   * xtb version 6.7.1 (edcfbbe) compiled by 'albert@albert-system' on 2024-07-22

   ID    Z sym.   atoms
    1    5 B      1
    2    6 C      2-11, 13-18, 20-29, 31-48, 50-61, 63-68
    3    8 O      12, 19
    4    7 N      30, 49, 62
    5    1 H      69-116

          program call               : xtb data250606/toluene/TDBA-DI/TDBA-DI_toluene_S0_crest.xyz --gfn 2 --gbsa toluene --ohess vtight --parallel 14 --molden --ceasefiles --namespace data250606/toluene/TDBA-DI/TDBA-DI_toluene_S0_finalOpt
      * Solvation model:               GBSA
        Solvent                        toluene
        Solvent mass                       9.2140E+01 g/mol
          :  Hamiltonian                  GFN2-xTB          :
 * total energy  :  -175.6393456 Eh     change       -0.4865484E-08 Eh
 * total energy  :  -175.6394353 Eh     change       -0.8969988E-04 Eh
 * total energy  :  -175.6394997 Eh     change       -0.6440915E-04 Eh
 * total energy  :  -175.6395322 Eh     change       -0.3246074E-04 Eh
 * total energy  :  -175.6395592 Eh     change       -0.2698732E-04 Eh
 * total energy  :  -175.6395902 Eh     change       -0.3105899E-04 Eh
 * total energy  :  -175.6396083 Eh     change       -0.1806192E-04 Eh
 * total energy  :  -175.6396232 Eh     change       -0.1494137E-04 Eh
 * total energy  :  -175.6396370 Eh     change       -0.1382163E-04 Eh
 * total energy  :  -175.6396433 Eh     change       -0.6227823E-05 Eh
 * total energy  :  -175.6398012 Eh     change       -0.1386890E-05 Eh
 * total energy  :  -175.6398029 Eh     change       -0.1649951E-05 Eh
 * total energy  :  -175.6398042 Eh     change       -0.1317881E-05 Eh
 * total energy  :  -175.6398052 Eh     change       -0.1026286E-05 Eh
 * total energy  :  -175.6398063 Eh     change       -0.1047561E-05 Eh
 * total energy  :  -175.6398072 Eh     change       -0.9578995E-06 Eh
 * total energy  :  -175.6398080 Eh     change       -0.7640486E-06 Eh
 * total energy  :  -175.6398086 Eh     change       -0.5985972E-06 Eh
 * total energy  :  -175.6398087 Eh     change       -0.6737321E-07 Eh
   *** GEOMETRY OPTIMIZATION CONVERGED AFTER 55 ITERATIONS ***

 final structure:
================
116
 xtb: 6.7.1 (edcfbbe)
B            4.37285045790401       -0.43887487930114       -0.21904312855846
C            4.67855521126711        0.95493857957581       -0.82104298216058
C            3.60991233579622        1.63486070534750       -1.42954251477686
C            3.80513917965393        2.88037955599866       -2.02807884168911
C            5.04435208885574        3.47346588319180       -2.00612192213200
C            6.13068774814106        2.85603431208727       -1.37688467741971
C            5.91613895600990        1.61672309157322       -0.80467480350916
C            7.47713251623916        3.56533926163227       -1.34990398599351
C            7.31858812456848        4.91057321484937       -0.62555016822151
C            8.55746295915544        2.75746670365910       -0.62457097006553
C            7.94618194885301        3.80321768365385       -2.79310276936466
O            2.32467989211173        1.17439062153708       -1.49116596702896
C            1.94744751430056        0.04669427238366       -0.85090299962188
C            0.59244043883556       -0.25906403364889       -0.85108030267822
C            0.14899611573539       -1.38173633320422       -0.16161375708369
C            1.04891756361861       -2.22679833092933        0.47786304105263
C            2.40623607956328       -1.93031869960299        0.43202200724606
C            2.88558735720865       -0.78242800379801       -0.21744065768690
O            3.24402772401063       -2.78317787282116        1.06320418695452
C            4.60138560970372       -2.63109006540810        1.00233317745995
C            5.26141425915837       -1.55304142127897        0.38886363081370
C            6.66382681520538       -1.60324264866073        0.37321751168343
C            7.40125776477626       -2.61917214421952        0.95095956346295
C            6.69756428301845       -3.64799247948424        1.58595923020305
C            5.32369204695403       -3.66029779493167        1.60765592794865
C            8.92242374071755       -2.66293220314596        0.92714344192013
C            9.44381685546816       -2.64841970896240        2.37193347511581
C            9.53703111113334       -1.47219850446679        0.18553310490012
C            9.37617643876298       -3.95048154908167        0.22322082584329
N           -1.22283765073089       -1.67480779376186       -0.12992743163720
C           -1.76107812132284       -2.79667224165467       -0.73162989034848
C           -1.10093147184952       -3.90709769351921       -1.23513188166811
C           -1.85301065580690       -4.87607924221402       -1.86994079703790
C           -3.22628940649047       -4.71812384881315       -2.03256005929240
C           -3.88304550705752       -3.60410898153336       -1.54945601537522
C           -3.16077350798598       -2.63507848264915       -0.85761443873679
C           -3.47305681066273       -1.35579988167729       -0.27721866435249
C           -4.64719412471921       -0.61277016997336       -0.07007165450718
C           -4.59751064062164        0.75137923933688        0.30560365819889
C           -3.34314463771498        1.31699430638743        0.59013626443432
C           -2.18337105125025        0.50915521414984        0.66667553341549
C           -2.24453102952289       -0.78535791892023        0.12724814430589
C           -1.15201854736724        1.32914004062747        1.24248831160143
C            0.12938589516991        1.09520729559688        1.73540166215076
C            0.87119468699740        2.15886183771171        2.20898561984570
C            0.36065296656716        3.45391347776346        2.20235070492685
C           -0.93402947282764        3.70316193941774        1.79034332657445
C           -1.69670661551285        2.63021299569465        1.35388484538687
N           -3.02029809919424        2.60764212333578        0.95783733394085
C           -3.74575374150564        3.77331295407923        0.65652204051450
C           -4.22964291255616        3.97088684991538       -0.63388348047851
C           -4.91347946737155        5.13175910533005       -0.94350497298548
C           -5.10862001579460        6.10535297101197        0.02293894031155
C           -4.62395827843684        5.91167923355222        1.30627999576920
C           -3.94570163291918        4.74924126233237        1.62843241388308
C           -5.96263693547472        1.19811796802383        0.40240769683001
C           -6.58968570945226        2.37042724475683        0.81736151803235
C           -7.96859015886116        2.42888562517638        0.83933420802270
C           -8.74559579184617        1.32978037984692        0.48508338598785
C           -8.15419126286602        0.13973645377702        0.11072876191407
C           -6.76897771496381        0.08520759667853        0.06554903879445
N           -5.96088316160928       -0.99725745303958       -0.22179713368548
C           -6.45617745796225       -2.31327122457338       -0.26638102398910
C           -7.39578438744755       -2.67369152102710       -1.22727981538138
C           -7.91108239062217       -3.95794423260025       -1.23816943398239
C           -7.49277156350391       -4.88579079205162       -0.29838069896915
C           -6.55574967079108       -4.52708537271021        0.65717707898612
C           -6.04062789917308       -3.24436784615860        0.68085061799982
H            2.96013786099061        3.36578958716802       -2.49344784423494
H            5.16145165289723        4.43838119087029       -2.47505192334442
H            6.72466156708523        1.12189026457081       -0.29750874148612
H            6.60868187620328        5.55582569932503       -1.13572063468999
H            8.27568158888246        5.42622163890331       -0.58079846695380
H            6.96421428709898        4.75111810539546        0.39107647761810
H            8.72940050359666        1.80411069843303       -1.11803413081030
H            8.28397680046083        2.58247261034176        0.41342777143575
H            9.49272288333864        3.31374250756614       -0.63566251259590
H            8.91760482673249        4.29331933637496       -2.79460082625024
H            7.24837959799410        4.43163061952605       -3.33960224361539
H            8.03643229724836        2.85543885715462       -3.32037359546854
H           -0.10445561265262        0.39044553897705       -1.35544096840140
H            0.70543950948497       -3.09255825986730        1.02163917044623
H            7.17243368309406       -0.80592961247441       -0.13794069182838
H            7.22719263879935       -4.45944654526215        2.06093295403370
H            4.77870027397189       -4.46450674528636        2.07938308110893
H           10.53181520784335       -2.65876983152830        2.37720358868427
H            9.10430872900193       -1.75094454188343        2.88543755462589
H            9.09329850865376       -3.51253462884469        2.92965602898474
H           10.62153045323389       -1.56171498318762        0.19465420991965
H            9.27484033770120       -0.53394822105749        0.66819897911224
H            9.21152553378827       -1.44747931581653       -0.85192305881119
H            9.02200141085559       -4.83539572814042        0.74477958729407
H            8.99241790780476       -3.97849808407671       -0.79488917286508
H           10.46275218254497       -3.99176976485481        0.18370692579855
H           -0.02905589838778       -4.00248261213452       -1.15147389266027
H           -1.36546192317908       -5.75494164377319       -2.26589621632342
H           -3.78798369191904       -5.47447080129723       -2.56122315025557
H           -4.93717699070573       -3.48837165937643       -1.73239352124539
H            0.53629211749970        0.09841879969402        1.77623503227253
H            1.86817051149689        1.98331109412423        2.58722201028851
H            0.97685051307350        4.27148527865948        2.54685167991261
H           -1.33712535768469        4.70411596626460        1.81084221770126
H           -4.07104512581612        3.20788840425792       -1.38145697159046
H           -5.29101716496978        5.27847168406580       -1.94453407969176
H           -5.63985524975088        7.01261042125226       -0.22279858133221
H           -4.78106294453668        6.66504076339609        2.06423358095585
H           -3.58981917265954        4.58143371556985        2.63411513678975
H           -6.01949068415116        3.22511101607441        1.13551325691708
H           -8.45320478635254        3.34236997522653        1.15235795127368
H           -9.82275896596702        1.40169434477964        0.52244195202584
H           -8.75369561901129       -0.72719414188272       -0.12183925022090
H           -7.70143411243154       -1.95216438741263       -1.97066428142770
H           -8.63731728216896       -4.23546034318421       -1.98804078533115
H           -7.89539010079612       -5.88751593267296       -0.31200973214042
H           -6.22745672657932       -5.24770198734456        1.39135405710700
H           -5.31296171946617       -2.95601839679745        1.42461933778631

          :  Hamiltonian                  GFN2-xTB          :
         :: gradient norm              0.000137260581 Eh/a0 ::
         :: HOMO-LUMO gap              2.104641504334 eV    ::
         :: SCC energy              -178.713927248074 Eh    ::
         :: -> dispersion             -0.175409559376 Eh    ::
         :: -> Gsolv                  -0.064690192082 Eh    ::
         :: repulsion energy           3.074118571549 Eh    ::

    * Orbital Energies and Occupations

         #    Occupation            Energy/Eh            Energy/eV
      -------------------------------------------------------------
         1        2.0000           -0.7325324             -19.9332
       ...           ...                  ...                  ...
       151        2.0000           -0.4034157             -10.9775
       152        2.0000           -0.4019224             -10.9369
       153        2.0000           -0.4006946             -10.9035
       154        2.0000           -0.3934029             -10.7050
       155        2.0000           -0.3918602             -10.6631
       156        2.0000           -0.3886218             -10.5749
       157        2.0000           -0.3883685             -10.5680
       158        2.0000           -0.3882102             -10.5637
       159        2.0000           -0.3840103             -10.4495
       160        2.0000           -0.3699008             -10.0655
       161        2.0000           -0.3685314             -10.0283
       162        2.0000           -0.3501577              -9.5283
       163        2.0000           -0.3498338              -9.5195 (HOMO)
       164                         -0.2724895              -7.4148 (LUMO)
       165                         -0.2450743              -6.6688
       166                         -0.2425449              -6.6000
       167                         -0.2352398              -6.4012
       168                         -0.2325507              -6.3280
       169                         -0.2308234              -6.2810
       170                         -0.2303851              -6.2691
       171                         -0.2290563              -6.2329
       172                         -0.2281169              -6.2074
       173                         -0.2226761              -6.0593
       174                         -0.2205402              -6.0012
       ...                                ...                  ...
       320                          0.7768747              21.1398
      -------------------------------------------------------------
                  HL-Gap            0.0773443 Eh            2.1046 eV

     #   Z          covCN         q      C6AA      α(0)
     1   5 B        2.723     0.212    18.210     7.151
     2   6 C        2.882    -0.092    30.312     9.026
     3   6 C        2.877     0.133    25.095     8.212
     4   6 C        2.913    -0.056    29.389     8.889
     5   6 C        2.928    -0.031    28.780     8.798
     6   6 C        2.968     0.002    27.972     8.675
     7   6 C        2.930    -0.045    29.106     8.848
     8   6 C        3.902     0.026    20.089     6.371
     9   6 C        3.761    -0.106    22.579     6.774
    10   6 C        3.761    -0.110    22.646     6.784
    11   6 C        3.761    -0.107    22.585     6.775
    12   8 O        1.711    -0.237    17.923     5.716
    13   6 C        2.874     0.141    24.916     8.183
    14   6 C        2.916    -0.078    29.944     8.973
    15   6 C        2.918     0.073    26.368     8.421
    16   6 C        2.916    -0.083    30.086     8.995
    17   6 C        2.873     0.139    24.961     8.190
    18   6 C        2.888    -0.126    31.208     9.159
    19   8 O        1.711    -0.238    17.936     5.718
    20   6 C        2.876     0.132    25.113     8.215
    21   6 C        2.882    -0.092    30.307     9.025
    22   6 C        2.930    -0.044    29.104     8.847
    23   6 C        2.968     0.002    27.969     8.675
    24   6 C        2.928    -0.031    28.785     8.799
    25   6 C        2.913    -0.056    29.400     8.891
    26   6 C        3.902     0.026    20.090     6.371
    27   6 C        3.761    -0.107    22.583     6.774
    28   6 C        3.761    -0.110    22.647     6.784
    29   6 C        3.761    -0.106    22.581     6.774
    30   7 N        2.804    -0.045    22.109     6.983
    31   6 C        3.081     0.045    26.910     8.504
    32   6 C        2.910    -0.053    29.320     8.879
    33   6 C        2.923    -0.038    28.939     8.822
    34   6 C        2.919    -0.043    29.075     8.842
    35   6 C        2.914    -0.042    29.047     8.838
    36   6 C        3.060    -0.015    28.328     8.728
    37   6 C        3.054    -0.048    29.126     8.851
    38   6 C        3.065     0.042    26.987     8.519
    39   6 C        3.053    -0.047    29.119     8.850
    40   6 C        3.063     0.043    26.981     8.518
    41   6 C        3.055    -0.047    29.114     8.849
    42   6 C        3.064     0.042    26.988     8.519
    43   6 C        3.062    -0.016    28.338     8.730
    44   6 C        2.914    -0.041    29.019     8.834
    45   6 C        2.919    -0.044    29.084     8.844
    46   6 C        2.923    -0.038    28.943     8.822
    47   6 C        2.910    -0.054    29.329     8.880
    48   6 C        3.081     0.046    26.891     8.501
    49   7 N        2.802    -0.048    22.175     6.994
    50   6 C        2.915     0.069    26.447     8.433
    51   6 C        2.922    -0.038    28.936     8.821
    52   6 C        2.919    -0.026    28.663     8.779
    53   6 C        2.919    -0.032    28.797     8.800
    54   6 C        2.920    -0.028    28.705     8.786
    55   6 C        2.921    -0.042    29.037     8.837
    56   6 C        3.059    -0.016    28.350     8.732
    57   6 C        2.915    -0.043    29.072     8.842
    58   6 C        2.919    -0.044    29.082     8.843
    59   6 C        2.923    -0.038    28.945     8.823
    60   6 C        2.911    -0.053    29.325     8.880
    61   6 C        3.083     0.045    26.908     8.504
    62   7 N        2.801    -0.047    22.153     6.991
    63   6 C        2.916     0.069    26.456     8.434
    64   6 C        2.922    -0.042    29.031     8.836
    65   6 C        2.920    -0.028    28.709     8.786
    66   6 C        2.919    -0.032    28.792     8.799
    67   6 C        2.920    -0.026    28.659     8.779
    68   6 C        2.922    -0.037    28.922     8.819
    69   1 H        0.926     0.039     2.463     2.454
    70   1 H        0.926     0.040     2.444     2.445
    71   1 H        0.926     0.055     2.258     2.350
    72   1 H        0.925     0.036     2.500     2.473
    73   1 H        0.925     0.040     2.446     2.446
    74   1 H        0.925     0.033     2.542     2.493
    75   1 H        0.925     0.040     2.449     2.447
    76   1 H        0.925     0.037     2.483     2.464
    77   1 H        0.925     0.040     2.455     2.450
    78   1 H        0.925     0.040     2.443     2.444
    79   1 H        0.925     0.036     2.498     2.471
    80   1 H        0.925     0.034     2.526     2.486
    81   1 H        0.926     0.048     2.344     2.394
    82   1 H        0.926     0.053     2.285     2.364
    83   1 H        0.926     0.055     2.260     2.351
    84   1 H        0.926     0.040     2.443     2.444
    85   1 H        0.926     0.040     2.451     2.448
    86   1 H        0.925     0.040     2.444     2.445
    87   1 H        0.925     0.034     2.528     2.486
    88   1 H        0.925     0.036     2.497     2.471
    89   1 H        0.925     0.039     2.456     2.451
    90   1 H        0.925     0.040     2.450     2.448
    91   1 H        0.925     0.037     2.483     2.464
    92   1 H        0.925     0.036     2.498     2.472
    93   1 H        0.925     0.033     2.540     2.492
    94   1 H        0.925     0.040     2.447     2.446
    95   1 H        0.926     0.027     2.630     2.536
    96   1 H        0.926     0.028     2.621     2.532
    97   1 H        0.926     0.026     2.650     2.545
    98   1 H        0.926     0.029     2.605     2.524
    99   1 H        0.926     0.020     2.729     2.584
   100   1 H        0.926     0.020     2.729     2.583
   101   1 H        0.926     0.027     2.623     2.533
   102   1 H        0.926     0.030     2.585     2.514
   103   1 H        0.926     0.038     2.481     2.463
   104   1 H        0.926     0.040     2.447     2.446
   105   1 H        0.926     0.040     2.449     2.447
   106   1 H        0.926     0.040     2.443     2.444
   107   1 H        0.926     0.042     2.419     2.432
   108   1 H        0.926     0.028     2.619     2.531
   109   1 H        0.926     0.024     2.672     2.556
   110   1 H        0.926     0.027     2.631     2.537
   111   1 H        0.926     0.028     2.610     2.526
   112   1 H        0.926     0.042     2.420     2.433
   113   1 H        0.926     0.041     2.442     2.444
   114   1 H        0.926     0.040     2.451     2.448
   115   1 H        0.926     0.040     2.453     2.449
   116   1 H        0.926     0.038     2.481     2.463

molecular dipole:
                 x           y           z       tot (Debye)
 q only:        1.233       0.439      -0.179
   full:        1.035       0.380      -0.185       2.841

 projected vibrational frequencies (cm⁻¹)
eigval :       -0.00    -0.00     0.00     0.00     0.00     0.00
eigval :        9.22    11.60    11.93    22.97    24.55    27.91
eigval :       31.40    37.85    41.70    44.44    49.37    55.79
eigval :       60.79    63.54    69.78    76.51    77.44    82.78
eigval :       93.68    98.58   113.29   116.05   123.99   125.73
eigval :      140.15   141.75   152.51   158.74   169.59   173.54
eigval :      176.00   196.82   207.46   209.28   217.05   218.76
eigval :      223.69   225.02   228.47   230.33   231.04   242.93
eigval :      252.19   259.60   266.27   270.27   272.86   284.75
eigval :      292.52   300.23   316.30   319.28   327.75   331.90
eigval :      342.26   352.79   361.87   364.29   364.90   373.94
eigval :      380.44   382.50   383.88   386.04   390.11   393.09
eigval :      398.04   403.96   410.03   414.84   428.25   434.10
eigval :      435.27   443.96   446.12   446.78   454.27   472.51
eigval :      476.00   481.23   489.55   502.95   516.73   518.02
eigval :      526.59   540.54   543.72   546.35   555.87   562.44
eigval :      570.52   574.31   581.98   582.72   589.36   593.84
eigval :      597.29   604.94   609.47   617.76   624.32   624.74
eigval :      635.95   644.66   651.14   653.81   661.73   670.05
eigval :      672.33   675.05   688.41   691.99   697.75   699.20
eigval :      702.31   702.39   708.98   715.23   728.93   729.79
eigval :      749.64   763.60   767.24   773.53   775.95   777.04
eigval :      810.90   828.22   830.16   832.44   834.44   844.60
eigval :      845.29   851.64   857.92   868.77   870.50   871.11
eigval :      872.89   873.52   876.68   877.02   879.24   879.68
eigval :      892.07   899.30   899.60   902.81   905.52   907.28
eigval :      912.09   920.68   922.76   923.54   923.98   926.81
eigval :      927.04   927.92   929.36   932.31   934.41   939.86
eigval :      958.87   959.39   959.94   962.12   962.40   963.45
eigval :      968.03   985.48   987.56  1000.07  1023.53  1033.85
eigval :     1034.52  1034.65  1035.16  1073.64  1077.13  1077.54
eigval :     1078.04  1078.99  1082.36  1083.65  1090.02  1090.52
eigval :     1115.04  1116.42  1130.75  1136.40  1138.18  1139.09
eigval :     1144.73  1147.02  1169.93  1175.86  1176.90  1178.19
eigval :     1178.30  1178.77  1181.73  1182.60  1189.13  1190.71
eigval :     1212.04  1213.18  1214.04  1215.01  1225.68  1226.12
eigval :     1228.46  1229.79  1233.75  1241.42  1245.40  1247.83
eigval :     1251.00  1255.97  1271.68  1273.54  1276.23  1281.29
eigval :     1291.84  1292.24  1294.53  1296.38  1299.29  1312.99
eigval :     1313.45  1329.30  1329.94  1333.67  1334.23  1342.07
eigval :     1344.91  1361.07  1365.14  1366.85  1385.83  1390.75
eigval :     1391.07  1397.03  1399.12  1401.09  1402.59  1402.61
eigval :     1406.93  1409.47  1426.48  1427.16  1428.65  1430.66
eigval :     1432.31  1434.95  1438.17  1438.55  1446.30  1452.97
eigval :     1468.95  1474.04  1474.90  1477.25  1479.30  1481.44
eigval :     1487.74  1488.05  1491.16  1491.52  1496.44  1499.19
eigval :     1500.92  1501.31  1510.44  1511.36  1514.58  1517.88
eigval :     1534.79  1544.47  1547.87  1565.08  1565.36  1573.33
eigval :     1579.69  1580.22  1583.22  1588.09  1589.25  1591.78
eigval :     1592.29  1594.69  1598.16  1600.33  1602.06  1602.21
eigval :     3021.09  3021.44  3021.57  3021.72  3025.05  3025.11
eigval :     3026.23  3026.35  3028.53  3028.63  3033.25  3033.80
eigval :     3038.15  3039.46  3044.40  3044.48  3047.70  3047.84
eigval :     3068.92  3070.37  3071.12  3076.63  3077.07  3078.76
eigval :     3079.29  3079.67  3079.99  3080.20  3080.75  3081.39
eigval :     3087.24  3088.10  3090.69  3091.28  3091.66  3091.97
eigval :     3092.25  3092.98  3093.77  3097.69  3098.22  3106.35
eigval :     3111.60  3117.11  3137.90  3143.47  3147.31  3148.48

   temp. (K)  partition function   enthalpy   heat capacity  entropy
                                   cal/mol     cal/K/mol   cal/K/mol   J/K/mol
 298.15  VIB  0.138E+26            33515.223    212.517    206.661
         ROT  0.218E+09              888.752      2.981     41.140
         INT  0.302E+34            34403.976    215.498    247.801
         TR   0.252E+29             1481.254      4.968     46.172
         TOT                       35885.2297   220.4660   293.9730  1229.9829

       T/K    H(0)-H(T)+PV         H(T)/Eh          T*S/Eh         G(T)/Eh
   ------------------------------------------------------------------------
    298.15    0.571868E-01    0.969735E+00    0.139676E+00    0.830059E+00
   ------------------------------------------------------------------------

         :::::::::::::::::::::::::::::::::::::::::::::::::::::
         ::                  THERMODYNAMIC                  ::
         :::::::::::::::::::::::::::::::::::::::::::::::::::::
         :: total free energy        -174.809749355320 Eh   ::
         ::.................................................::
         :: total energy             -175.639808672698 Eh   ::
         :: zero point energy           0.912548605678 Eh   ::
         :: G(RRHO) w/o ZPVE           -0.082489288300 Eh   ::
         :: G(RRHO) contrib.            0.830059317378 Eh   ::
         :::::::::::::::::::::::::::::::::::::::::::::::::::::

           -------------------------------------------------
          | TOTAL ENERGY             -175.639808672698 Eh   |
          | TOTAL ENTHALPY           -174.670073313364 Eh   |
          | TOTAL FREE ENERGY        -174.809749355320 Eh   |
          | GRADIENT NORM               0.000137216014 Eh/α |
          | HOMO-LUMO GAP               2.104645150557 eV   |
           -------------------------------------------------

 * finished run on 2025/06/07 at 02:31:21.862
