   * xtb version 6.7.1 (edcfbbe) compiled by 'albert@albert-system' on 2024-07-22

   ID    Z sym.   atoms
    1    7 N      1, 4, 7, 10, 19, 40
    2    6 C      2, 3, 5, 6, 8, 9, 11-18, 20-39, 41-58
    3    1 H      59-90

          program call               : xtb data2507/toluene/APDC-DTPA/APDC-DTPA_toluene_T1_crest.xyz --gfn 2 --uhf 2 --gbsa toluene --ohess vtight --parallel 40 --molden --ceasefiles --namespace data2507/toluene/APDC-DTPA/APDC-DTPA_toluene_T1_finalOpt
      * Solvation model:               GBSA
        Solvent                        toluene
        Solvent mass                       9.2140E+01 g/mol
          :  Hamiltonian                  GFN2-xTB          :
 * total energy  :  -145.1738484 Eh     change       -0.1774711E-07 Eh
 * total energy  :  -145.1742633 Eh     change       -0.4149388E-03 Eh
 * total energy  :  -145.1744378 Eh     change       -0.1745369E-03 Eh
 * total energy  :  -145.1744674 Eh     change       -0.2954356E-04 Eh
 * total energy  :  -145.1745844 Eh     change       -0.1170060E-03 Eh
 * total energy  :  -145.1745198 Eh     change        0.6456806E-04 Eh
 * total energy  :  -145.1746155 Eh     change       -0.9570917E-04 Eh
 * total energy  :  -145.1746288 Eh     change       -0.1330855E-04 Eh
 * total energy  :  -145.1746538 Eh     change       -0.2499952E-04 Eh
 * total energy  :  -145.1746804 Eh     change       -0.2650510E-04 Eh
 * total energy  :  -145.1748373 Eh     change       -0.9155442E-06 Eh
 * total energy  :  -145.1748382 Eh     change       -0.8800983E-06 Eh
 * total energy  :  -145.1748390 Eh     change       -0.7885585E-06 Eh
 * total energy  :  -145.1748397 Eh     change       -0.7438240E-06 Eh
 * total energy  :  -145.1748405 Eh     change       -0.7709716E-06 Eh
 * total energy  :  -145.1748411 Eh     change       -0.6434100E-06 Eh
 * total energy  :  -145.1748418 Eh     change       -0.6588615E-06 Eh
 * total energy  :  -145.1748424 Eh     change       -0.6347825E-06 Eh
 * total energy  :  -145.1748424 Eh     change       -0.4188308E-08 Eh
   *** GEOMETRY OPTIMIZATION CONVERGED AFTER 68 ITERATIONS ***

 final structure:
================
90
 xtb: 6.7.1 (edcfbbe)
N          -10.96730931819626        1.39921783844010        1.35686871302385
C           -9.94778615289088        1.01338150725740        0.97980076228376
C           -8.73018880495504        0.52494523448827        0.50151338720056
N           -7.58614012926772        1.00436852006841        0.98270291587294
C           -6.46146793301720        0.53403579252159        0.51748366969448
C           -6.46184941189035       -0.51787213253372       -0.52956475913257
N           -7.58686452889882       -0.98505643681012       -0.99711877326460
C           -8.73056622823730       -0.50239796481789       -0.51833612874721
C           -9.94852882620549       -0.98699864826005       -0.99958141015532
N          -10.96832580834677       -1.36967308108750       -1.37912832584197
C           -5.10550200638316       -0.82879761775041       -0.83036281636138
C           -4.47055608030966       -1.71061317043546       -1.69727980278143
C           -3.08419314785255       -1.76997811666587       -1.66203709303578
C           -2.29135962881398       -0.98201683950940       -0.82587951521965
C           -0.85660171846891       -1.27554392589897       -0.76610876471638
C           -0.23477627466691       -1.53816353150878        0.45782882639790
C            1.09995538619575       -1.86860077138138        0.51953440204149
C            1.86717916491286       -1.94430993940440       -0.64807438421961
N            3.22262719381199       -2.26516383242527       -0.59661077982876
C            4.10311233743640       -1.70380730608815       -1.52999271628257
C            5.13532245123765       -2.46431656090237       -2.08199661717144
C            5.99240245502611       -1.90002659793967       -3.00689416861152
C            5.83139909319390       -0.58009376025884       -3.40014905209915
C            4.80613404064876        0.17814839369140       -2.85614759079549
C            3.95032782633592       -0.37340246996689       -1.92325620738133
C            3.70556678965048       -3.18027809163541        0.34479985925569
C            4.97296501805002       -3.00599154874130        0.90496780993327
C            5.45598052064915       -3.91599360609142        1.82500909004544
C            4.68792332093062       -5.00642157715097        2.20374096179141
C            3.42853358191697       -5.18303541734866        1.65091016736654
C            2.93700988283721       -4.28200198054108        0.72645018667492
C            1.24453388944898       -1.69925393461155       -1.87669308519546
C           -0.09388315055389       -1.38250327623387       -1.93088356987699
C           -2.90875475401534        0.00369130382489       -0.00290760998075
C           -2.29040377876484        0.98792592203891        0.82111097062585
C           -0.85488663924620        1.27816122378450        0.76371159491106
C           -0.09390769047309        1.38345491547154        1.92977338448511
C            1.24529541880595        1.69721334953005        1.87784075266901
C            1.87057955527941        1.94085090297372        0.65027562853414
N            3.22684878998668        2.25860418874769        0.60118969851103
C            4.10421472161829        1.69536309194109        1.53639324987291
C            3.94776668804629        0.36527248717459        1.92926305290185
C            4.80027156468550       -0.18807108302105        2.86411227268314
C            5.82587203483422        0.56802489346624        3.41046449587902
C            5.99057071170102        1.88760077709216        3.01754555200289
C            5.13677065921300        2.45369779225365        2.09071914109213
C            3.71367119182760        3.17277089704936       -0.33911949032868
C            2.94824140338215        4.27611990649146       -0.72235520524053
C            3.44371722405494        5.17630631343387       -1.64553257797177
C            4.70402980675669        4.99725916839020       -2.19546905757160
C            5.46897064768913        3.90517393763121       -1.81520070769650
C            4.98196940861002        2.99596940616800       -0.89647291623837
C            1.10516972913842        1.86683071630256       -0.51862784031009
C           -0.23040368022464        1.53937369494954       -0.45917485976802
C           -3.08275406432110        1.77769369904436        1.65602563613482
C           -4.46931411092247        1.72168051994880        1.68888932225133
C           -5.10489428940993        0.84146761395936        0.82080958968997
C           -4.30979366127473        0.00535675935324       -0.00407998159918
H           -5.03852062007152       -2.35064129339392       -2.35480033675268
H           -2.58768162769099       -2.49963740449970       -2.28645750770729
H           -0.81760336154279       -1.49512053272037        1.36537438842392
H            1.55768571475012       -2.07159008027356        1.47640427916201
H            5.24926773633376       -3.49848068906138       -1.79291676570652
H            6.78378591324998       -2.49874198715404       -3.43271319015767
H            6.49984461658696       -0.14579935572915       -4.12780881895223
H            4.67709613168289        1.20808563339635       -3.15285091181822
H            3.16009029201188        0.21770815223150       -1.48693568123459
H            5.56652495962656       -2.14960533771296        0.62265756805256
H            6.43550686702496       -3.76819642920800        2.25486387348705
H            5.06826261495333       -5.71579455703310        2.92293682800810
H            2.82825631508924       -6.03503863774459        1.93362843534036
H            1.96408856601048       -4.43351963977116        0.28289218594677
H            1.81624538529102       -1.78240207149454       -2.78886236295774
H           -0.56061027649453       -1.20190056861983       -2.88780552857529
H           -0.56264362016957        1.20390445706618        2.88591091154450
H            1.81562250537937        1.77910822518144        2.79098814801988
H            3.15726152298408       -0.22416158098858        1.49116205406086
H            4.66836201493828       -1.21772393687724        3.16052930331219
H            6.49171922554287        0.13235862462382        4.13968649631707
H            6.78224495812737        2.48465193577741        3.44515338477608
H            5.25351616089348        3.48762984396375        1.80192928282842
H            1.97463216620294        4.42957838089090       -0.28098975161264
H            2.84581808725614        6.02958146890613       -1.92946344249970
H            5.08748224145531        5.70603021058538       -2.91360673691439
H            6.44919064032506        3.75545643342507       -2.24280184092547
H            5.57314356197359        2.13832546938397       -0.61296860661080
H            1.56495395929619        2.06880843017240       -1.47472769447659
H           -0.81178598430105        1.49762177350767       -1.36770614429510
H           -2.58554716533448        2.50610362075979        2.28135118241395
H           -5.03685473649066        2.36300134545375        2.34551423360171

          :  Hamiltonian                  GFN2-xTB          :
         :: gradient norm              0.000064267742 Eh/a0 ::
         :: HOMO-LUMO gap              0.548549908794 eV    ::
         :: SCC energy              -147.930360609650 Eh    ::
         :: -> dispersion             -0.145340861569 Eh    ::
         :: -> Gsolv                  -0.081952252159 Eh    ::
         :: repulsion energy           2.755518167069 Eh    ::

    * Orbital Energies and Occupations

         #    Occupation            Energy/Eh            Energy/eV
      -------------------------------------------------------------
         1        2.0000           -0.6883062             -18.7298
       ...           ...                  ...                  ...
       124        2.0000           -0.4211496             -11.4601
       125        2.0000           -0.4188269             -11.3969
       126        2.0000           -0.4183376             -11.3835
       127        2.0000           -0.4176493             -11.3648
       128        2.0000           -0.4166111             -11.3366
       129        2.0000           -0.4103709             -11.1668
       130        2.0000           -0.4083989             -11.1131
       131        2.0000           -0.3931300             -10.6976
       132        2.0000           -0.3869696             -10.5300
       133        1.9387           -0.3671346              -9.9902
       134        1.6525           -0.3651415              -9.9360
       135        1.4089           -0.3641929              -9.9102
       136        1.0000           -0.3114957              -8.4762 (HOMO)
       137        0.0000           -0.2913371              -7.9277 (LUMO)
       138                         -0.2755915              -7.4992
       139                         -0.2507207              -6.8225
       140                         -0.2461146              -6.6971
       141                         -0.2451657              -6.6713
       142                         -0.2439447              -6.6381
       143                         -0.2411559              -6.5622
       144                         -0.2398489              -6.5266
       145                         -0.2357546              -6.4152
       146                         -0.2356802              -6.4132
       147                         -0.2345012              -6.3811
       ...                                ...                  ...
       264                          1.1677181              31.7752
      -------------------------------------------------------------
                  HL-Gap            0.0201586 Eh            0.5485 eV

     #   Z          covCN         q      C6AA      α(0)
     1   7 N        0.911    -0.295    27.588     7.596
     2   6 C        1.909     0.104    28.522     8.625
     3   6 C        2.958     0.075    26.318     8.415
     4   7 N        1.842    -0.227    26.796     7.671
     5   6 C        3.051     0.073    26.326     8.415
     6   6 C        3.051     0.073    26.326     8.415
     7   7 N        1.842    -0.227    26.796     7.671
     8   6 C        2.958     0.075    26.318     8.415
     9   6 C        1.909     0.104    28.522     8.625
    10   7 N        0.911    -0.295    27.588     7.596
    11   6 C        3.031    -0.023    28.558     8.766
    12   6 C        2.908    -0.035    28.869     8.810
    13   6 C        2.926    -0.037    28.931     8.821
    14   6 C        2.975    -0.002    28.075     8.691
    15   6 C        2.977     0.017    27.628     8.622
    16   6 C        2.923    -0.029    28.719     8.788
    17   6 C        2.919    -0.045    29.126     8.850
    18   6 C        2.924     0.061    26.635     8.463
    19   7 N        2.752    -0.037    21.959     6.960
    20   6 C        2.926     0.062    26.603     8.459
    21   6 C        2.921    -0.041    29.025     8.835
    22   6 C        2.919    -0.025    28.640     8.776
    23   6 C        2.919    -0.030    28.750     8.793
    24   6 C        2.919    -0.026    28.647     8.777
    25   6 C        2.922    -0.043    29.060     8.840
    26   6 C        2.924     0.063    26.590     8.456
    27   6 C        2.921    -0.041    29.026     8.835
    28   6 C        2.919    -0.026    28.647     8.777
    29   6 C        2.919    -0.030    28.760     8.794
    30   6 C        2.919    -0.026    28.643     8.776
    31   6 C        2.921    -0.042    29.041     8.837
    32   6 C        2.920    -0.042    29.056     8.839
    33   6 C        2.922    -0.031    28.785     8.798
    34   6 C        2.974     0.006    27.879     8.661
    35   6 C        2.975    -0.002    28.075     8.691
    36   6 C        2.977     0.017    27.628     8.622
    37   6 C        2.922    -0.031    28.785     8.798
    38   6 C        2.920    -0.042    29.056     8.839
    39   6 C        2.924     0.061    26.635     8.463
    40   7 N        2.752    -0.037    21.959     6.960
    41   6 C        2.926     0.062    26.603     8.459
    42   6 C        2.922    -0.043    29.060     8.840
    43   6 C        2.919    -0.026    28.647     8.777
    44   6 C        2.919    -0.030    28.750     8.793
    45   6 C        2.919    -0.025    28.640     8.776
    46   6 C        2.921    -0.041    29.024     8.835
    47   6 C        2.924     0.063    26.590     8.456
    48   6 C        2.921    -0.042    29.041     8.837
    49   6 C        2.919    -0.026    28.643     8.776
    50   6 C        2.919    -0.030    28.760     8.794
    51   6 C        2.919    -0.026    28.647     8.777
    52   6 C        2.921    -0.041    29.026     8.835
    53   6 C        2.919    -0.045    29.126     8.850
    54   6 C        2.923    -0.029    28.719     8.788
    55   6 C        2.926    -0.037    28.931     8.821
    56   6 C        2.908    -0.035    28.869     8.810
    57   6 C        3.031    -0.023    28.558     8.766
    58   6 C        3.144    -0.009    27.990     8.656
    59   1 H        0.926     0.033     2.550     2.497
    60   1 H        0.926     0.040     2.450     2.448
    61   1 H        0.926     0.041     2.432     2.439
    62   1 H        0.926     0.045     2.377     2.411
    63   1 H        0.926     0.043     2.412     2.429
    64   1 H        0.926     0.044     2.402     2.424
    65   1 H        0.926     0.043     2.412     2.428
    66   1 H        0.926     0.045     2.390     2.417
    67   1 H        0.926     0.042     2.425     2.435
    68   1 H        0.926     0.045     2.378     2.412
    69   1 H        0.926     0.045     2.386     2.416
    70   1 H        0.926     0.041     2.431     2.438
    71   1 H        0.926     0.041     2.429     2.437
    72   1 H        0.926     0.041     2.432     2.439
    73   1 H        0.926     0.047     2.360     2.402
    74   1 H        0.926     0.045     2.380     2.413
    75   1 H        0.926     0.045     2.380     2.413
    76   1 H        0.926     0.047     2.360     2.402
    77   1 H        0.926     0.042     2.425     2.435
    78   1 H        0.926     0.045     2.389     2.417
    79   1 H        0.926     0.043     2.411     2.428
    80   1 H        0.926     0.044     2.402     2.424
    81   1 H        0.926     0.043     2.412     2.429
    82   1 H        0.926     0.041     2.432     2.439
    83   1 H        0.926     0.041     2.429     2.437
    84   1 H        0.926     0.041     2.431     2.438
    85   1 H        0.926     0.045     2.386     2.416
    86   1 H        0.926     0.045     2.378     2.412
    87   1 H        0.926     0.045     2.377     2.411
    88   1 H        0.926     0.041     2.432     2.439
    89   1 H        0.926     0.040     2.450     2.448
    90   1 H        0.926     0.033     2.550     2.497

molecular dipole:
                 x           y           z       tot (Debye)
 q only:       14.942      -0.019       0.014
   full:       15.301      -0.019       0.015      38.891

 projected vibrational frequencies (cm⁻¹)
eigval :       -0.00    -0.00    -0.00    -0.00     0.00     0.00
eigval :       12.86    15.73    19.37    24.89    29.76    33.01
eigval :       35.80    44.16    47.88    50.88    56.26    62.92
eigval :       66.92    67.22    74.89    78.39    86.51    87.41
eigval :       98.93    99.85   117.93   125.63   135.39   141.05
eigval :      145.72   163.94   168.58   176.83   183.68   199.27
eigval :      211.74   226.84   233.20   233.90   244.81   277.80
eigval :      288.71   300.74   306.95   314.85   328.81   331.27
eigval :      340.24   345.13   367.63   378.31   378.78   380.50
eigval :      380.58   382.99   387.77   388.16   391.55   399.57
eigval :      410.15   413.25   423.95   431.71   456.23   463.87
eigval :      473.14   474.68   482.68   495.01   496.51   501.13
eigval :      513.37   523.63   531.19   538.02   550.98   573.67
eigval :      581.20   583.72   584.48   585.65   588.69   592.14
eigval :      600.13   606.13   610.19   611.77   628.22   630.36
eigval :      641.85   644.41   659.01   660.09   663.53   663.58
eigval :      671.69   686.06   691.34   696.88   697.84   720.04
eigval :      729.12   747.66   756.89   759.10   759.75   761.03
eigval :      772.47   810.52   811.55   825.73   826.31   834.50
eigval :      866.99   867.68   871.25   872.88   873.93   876.24
eigval :      894.59   897.89   898.27   898.72   900.16   902.82
eigval :      903.47   908.58   908.66   913.71   920.92   921.92
eigval :      928.81   929.46   929.70   930.42   932.15   932.33
eigval :      932.82   933.26   933.55   934.27   938.10   972.37
eigval :      984.16   989.91  1002.60  1003.26  1013.85  1019.29
eigval :     1068.65  1069.57  1079.78  1079.79  1080.22  1081.26
eigval :     1118.65  1119.06  1120.75  1122.71  1123.49  1127.69
eigval :     1139.31  1141.10  1154.04  1175.30  1175.43  1177.21
eigval :     1177.35  1177.42  1179.38  1183.06  1190.30  1190.63
eigval :     1191.96  1192.45  1208.30  1211.51  1216.95  1229.29
eigval :     1241.98  1263.35  1265.22  1266.53  1271.71  1273.45
eigval :     1274.39  1278.88  1281.71  1295.90  1296.11  1304.98
eigval :     1306.61  1313.31  1313.54  1320.18  1323.30  1323.46
eigval :     1323.94  1324.31  1338.22  1354.67  1356.00  1368.36
eigval :     1408.56  1411.41  1412.91  1424.90  1431.26  1431.41
eigval :     1437.39  1437.96  1457.44  1457.59  1457.94  1458.03
eigval :     1461.95  1471.62  1473.54  1478.30  1503.70  1533.72
eigval :     1534.74  1541.77  1544.72  1567.29  1567.45  1568.75
eigval :     1570.32  1571.69  1574.86  1578.63  1580.29  1580.46
eigval :     1587.31  1590.79  2296.12  2296.67  3070.88  3071.25
eigval :     3079.47  3079.50  3080.28  3080.38  3081.32  3081.43
eigval :     3082.12  3082.38  3083.32  3083.65  3084.89  3084.95
eigval :     3089.10  3089.24  3091.53  3091.58  3092.39  3093.11
eigval :     3093.69  3093.97  3094.22  3094.51  3096.21  3096.45
eigval :     3097.97  3098.29  3100.01  3100.27  3105.87  3106.42

   temp. (K)  partition function   enthalpy   heat capacity  entropy
                                   cal/mol     cal/K/mol   cal/K/mol   J/K/mol
 298.15  VIB  0.139E+22            27508.848    171.593    171.818
         ROT  0.653E+08              888.752      2.981     38.740
         INT  0.909E+29            28397.600    174.574    210.558
         TR   0.195E+29             1481.254      4.968     45.667
         TOT                       29878.8541   179.5425   256.2245  1072.0433

       T/K    H(0)-H(T)+PV         H(T)/Eh          T*S/Eh         G(T)/Eh
   ------------------------------------------------------------------------
    298.15    0.476150E-01    0.718747E+00    0.121741E+00    0.597007E+00
   ------------------------------------------------------------------------

         :::::::::::::::::::::::::::::::::::::::::::::::::::::
         ::                  THERMODYNAMIC                  ::
         :::::::::::::::::::::::::::::::::::::::::::::::::::::
         :: total free energy        -144.577835488805 Eh   ::
         ::.................................................::
         :: total energy             -145.174842440709 Eh   ::
         :: zero point energy           0.671132490348 Eh   ::
         :: G(RRHO) w/o ZPVE           -0.074125538444 Eh   ::
         :: G(RRHO) contrib.            0.597006951904 Eh   ::
         :::::::::::::::::::::::::::::::::::::::::::::::::::::

           -------------------------------------------------
          | TOTAL ENERGY             -145.174842440709 Eh   |
          | TOTAL ENTHALPY           -144.456094965456 Eh   |
          | TOTAL FREE ENERGY        -144.577835488805 Eh   |
          | GRADIENT NORM               0.000065645994 Eh/α |
          | HOMO-LUMO GAP               0.548542351917 eV   |
           -------------------------------------------------

 * finished run on 2025/07/16 at 21:49:41.472
