   * xtb version 6.7.1 (edcfbbe) compiled by 'albert@albert-system' on 2024-07-22

   ID    Z sym.   atoms
    1    7 N      1, 4, 7, 10, 19, 40
    2    6 C      2, 3, 5, 6, 8, 9, 11-18, 20-39, 41-58
    3    1 H      59-90

          program call               : xtb data2507/toluene/APDC-DTPA/APDC-DTPA_toluene_S0_finalOpt.xtbopt.xyz --gfn 2 --uhf 2 --gbsa toluene --ohess vtight --parallel 40 --molden --ceasefiles --namespace data2507/toluene/APDC-DTPA/APDC-DTPA_toluene_T1_preOpt
      * Solvation model:               GBSA
        Solvent                        toluene
        Solvent mass                       9.2140E+01 g/mol
          :  Hamiltonian                  GFN2-xTB          :
 * total energy  :  -145.1719143 Eh     change       -0.1996290E-07 Eh
 * total energy  :  -145.1737024 Eh     change       -0.1788036E-02 Eh
 * total energy  :  -145.1744719 Eh     change       -0.7695923E-03 Eh
 * total energy  :  -145.1745087 Eh     change       -0.3672635E-04 Eh
 * total energy  :  -145.1745985 Eh     change       -0.8984658E-04 Eh
 * total energy  :  -145.1746154 Eh     change       -0.1692364E-04 Eh
 * total energy  :  -145.1746189 Eh     change       -0.3421644E-05 Eh
 * total energy  :  -145.1746283 Eh     change       -0.9436265E-05 Eh
 * total energy  :  -145.1746400 Eh     change       -0.1171680E-04 Eh
 * total energy  :  -145.1746533 Eh     change       -0.1332420E-04 Eh
 * total energy  :  -145.1747077 Eh     change       -0.7818988E-06 Eh
 * total energy  :  -145.1747084 Eh     change       -0.6951496E-06 Eh
 * total energy  :  -145.1747091 Eh     change       -0.6397958E-06 Eh
 * total energy  :  -145.1747096 Eh     change       -0.5918669E-06 Eh
 * total energy  :  -145.1747102 Eh     change       -0.5818694E-06 Eh
 * total energy  :  -145.1747108 Eh     change       -0.5761827E-06 Eh
 * total energy  :  -145.1747114 Eh     change       -0.5614585E-06 Eh
 * total energy  :  -145.1747119 Eh     change       -0.5638270E-06 Eh
 * total energy  :  -145.1747119 Eh     change       -0.5487209E-08 Eh
   *** GEOMETRY OPTIMIZATION CONVERGED AFTER 44 ITERATIONS ***

 final structure:
================
90
 xtb: 6.7.1 (edcfbbe)
N          -10.93985709023699        1.87132016444614       -0.51558479793613
C           -9.91934636179571        1.35316855587184       -0.37198788711445
C           -8.70121786871676        0.69545985650089       -0.18966405587869
N           -7.55760265311150        1.35067829274188       -0.37149388517085
C           -6.43228804456729        0.71430877613693       -0.19489564280211
C           -6.43179641957962       -0.71747499745521        0.20000760663247
N           -7.55667238530029       -1.35442833492018        0.37728721280308
C           -8.70073883847992       -0.69980245683458        0.19616149795749
C           -9.91840956432595       -1.35812518008992        0.37931314691460
N          -10.93856355141621       -1.87677066831629        0.52367775510855
C           -5.07546098558857       -1.13640155466116        0.30858848880312
C           -4.43483162407862       -2.32934286081469        0.62627949037940
C           -3.04866807660508       -2.36522067853517        0.55031940800400
C           -2.26167264278912       -1.26505335963198        0.20546665487340
C           -0.83895195919396       -1.47683591768597       -0.06805795879142
C           -0.01123835330078       -2.17055303475277        0.81654170065932
C            1.31058766019722       -2.40692426273599        0.51321155790061
C            1.85125656849006       -1.98279529613830       -0.70782299919568
N            3.18494187507657       -2.23188479645025       -1.01090151967487
C            3.91784830813044       -1.38037022993575       -1.84520804023079
C            4.88273766972211       -1.90711687548185       -2.70714571352255
C            5.62443505582656       -1.06866977459012       -3.51609288354679
C            5.41814311885214        0.30204098875892       -3.48393915535290
C            4.45776050072150        0.82936149749225       -2.63489877672672
C            3.71188173654099        0.00009290346436       -1.82062351791832
C            3.82440624018177       -3.36182795794943       -0.47472400133197
C            5.12383797819493       -3.25769186285604        0.02260710980773
C            5.75451742197291       -4.36867451069375        0.54871746479321
C            5.10258168174024       -5.59163921124850        0.58751034630666
C            3.81171491116353       -5.69895466485580        0.09287179782709
C            3.17236349198154       -4.59466267055885       -0.43723255291145
C            1.01678397924414       -1.31006543204463       -1.60843415793000
C           -0.29629424176899       -1.05722291830409       -1.28725848131474
C           -2.88440919517225       -0.00066293700929        0.00148127907624
C           -2.26244424370959        1.26403841366689       -0.20292236945485
C           -0.83961101395073        1.47650477870259        0.06950982361149
C           -0.29574906088652        1.05710595564873        1.28824414654198
C            1.01748624765540        1.31054279872970        1.60833286284894
C            1.85088761159126        1.98367953651731        0.70704778784713
N            3.18472341454983        2.23336506387096        1.00901042789692
C            3.91875377996477        1.38213877382540        1.84261780697671
C            3.71335362507285        0.00159355777299        1.81817602143004
C            4.46033386014131       -0.82738056650332        2.63174337851709
C            5.42125733884498       -0.29967273778417        3.47992946759888
C            5.62699265597408        1.07112483820536        3.51193396474659
C            4.88420176278274        1.90927706007330        2.70368214796003
C            3.82317681999738        3.36365709167038        0.47234460275763
C            3.17054225511888        4.59619561921051        0.43566196687342
C            3.80884893385232        5.70082909893149       -0.09499027684608
C            5.09924613299364        5.59413202896516       -0.59098208805444
C            5.75177511416022        4.37145969102610       -0.55297387861461
C            5.12214638210416        3.26014368635908       -0.02630245422320
C            1.30901640847437        2.40761617491127       -0.51351140481067
C           -0.01295477178429        2.17063663268676       -0.81575119215545
C           -3.05022490482484        2.36381188776276       -0.54723377091570
C           -4.43641526368689        2.32722268363469       -0.62233595258155
C           -5.07623441046552        1.13394672506688       -0.30426658943505
C           -4.28316360500175       -0.00101990269594        0.00192677071286
H           -4.99968311182582       -3.21088822617857        0.88787511441239
H           -2.55057950095915       -3.30944400860668        0.72086563212479
H           -0.40675677461085       -2.49829948165114        1.76625952359414
H            1.94061007285044       -2.91608877207970        1.22682203643898
H            5.03753770336932       -2.97506853494286       -2.74542101554643
H            6.36295331166792       -1.48931619373895       -4.18216874127863
H            5.99962897626589        0.95384336416875       -4.11784484092283
H            4.29550550326667        1.89620208470954       -2.59908412970719
H            2.96973246870969        0.41650179893052       -1.15844544543322
H            5.62507410121759       -2.30159965314299        0.00326570622265
H            6.75748527393890       -4.27722759312416        0.93787682076830
H            5.59767959200007       -6.45759714213702        0.99988887971307
H            3.30191245052818       -6.65062552939745        0.11215916201448
H            2.17215388959669       -4.68065971936969       -0.83565939295002
H            1.40128783218140       -1.01107592407100       -2.57170906878018
H           -0.93364857853343       -0.55921111345938       -2.00237788691269
H           -0.93226170139190        0.55877283490716        2.00388649895074
H            1.40293387945351        1.01169920229448        2.57127609372473
H            2.97077536867896       -0.41511404279830        1.15666802988420
H            4.29850190584687       -1.89428860553342        2.59603967548029
H            6.00359823634078       -0.95124547079693        4.11328554888405
H            6.36593685360056        1.49207317115806        4.17734572747811
H            5.03858138273313        2.97729295273940        2.74184942225114
H            2.17069422764078        4.68168899625447        0.83510525071768
H            3.29860429922227        6.65227429785407       -0.11364869378926
H            5.59352842541736        6.46035182023746       -1.00379027793159
H            6.75438852535309        4.28050767560469       -0.94316144798216
H            5.62383718151279        2.30427875023189       -0.00754397028471
H            1.93820594292125        2.91710555992720       -1.22762508576589
H           -0.40941127715930        2.49822246939802       -1.76513273641241
H           -2.55272976030232        3.30829224214622       -0.71809106530716
H           -5.00188155139529        3.20848170195743       -0.88356762470113

          :  Hamiltonian                  GFN2-xTB          :
         :: gradient norm              0.000050445093 Eh/a0 ::
         :: HOMO-LUMO gap              0.545809507180 eV    ::
         :: SCC energy              -147.930508821913 Eh    ::
         :: -> dispersion             -0.145861927929 Eh    ::
         :: -> Gsolv                  -0.082281636239 Eh    ::
         :: repulsion energy           2.755796887429 Eh    ::

    * Orbital Energies and Occupations

         #    Occupation            Energy/Eh            Energy/eV
      -------------------------------------------------------------
         1        2.0000           -0.6881361             -18.7251
       ...           ...                  ...                  ...
       124        2.0000           -0.4210842             -11.4583
       125        2.0000           -0.4191753             -11.4063
       126        2.0000           -0.4180781             -11.3765
       127        2.0000           -0.4179927             -11.3742
       128        2.0000           -0.4164385             -11.3319
       129        2.0000           -0.4100263             -11.1574
       130        2.0000           -0.4077728             -11.0961
       131        2.0000           -0.3935557             -10.7092
       132        2.0000           -0.3879196             -10.5558
       133        1.9132           -0.3666855              -9.9780
       134        1.6522           -0.3650471              -9.9334
       135        1.4346           -0.3642001              -9.9104
       136        1.0000           -0.3112400              -8.4693 (HOMO)
       137        0.0000           -0.2911816              -7.9235 (LUMO)
       138                         -0.2755639              -7.4985
       139                         -0.2504325              -6.8146
       140                         -0.2460572              -6.6956
       141                         -0.2456790              -6.6853
       142                         -0.2439767              -6.6389
       143                         -0.2411847              -6.5630
       144                         -0.2397999              -6.5253
       145                         -0.2361702              -6.4265
       146                         -0.2360531              -6.4233
       147                         -0.2343719              -6.3776
       ...                                ...                  ...
       264                          1.1677741              31.7768
      -------------------------------------------------------------
                  HL-Gap            0.0200584 Eh            0.5458 eV

     #   Z          covCN         q      C6AA      α(0)
     1   7 N        0.911    -0.295    27.595     7.597
     2   6 C        1.909     0.104    28.524     8.625
     3   6 C        2.958     0.075    26.318     8.414
     4   7 N        1.842    -0.227    26.803     7.673
     5   6 C        3.052     0.073    26.325     8.415
     6   6 C        3.052     0.073    26.325     8.415
     7   7 N        1.842    -0.227    26.803     7.673
     8   6 C        2.958     0.075    26.318     8.414
     9   6 C        1.909     0.104    28.524     8.625
    10   7 N        0.911    -0.295    27.595     7.598
    11   6 C        3.029    -0.024    28.565     8.767
    12   6 C        2.908    -0.035    28.871     8.811
    13   6 C        2.925    -0.037    28.932     8.821
    14   6 C        2.975    -0.002    28.069     8.690
    15   6 C        2.976     0.016    27.644     8.624
    16   6 C        2.921    -0.032    28.793     8.799
    17   6 C        2.920    -0.045    29.109     8.848
    18   6 C        2.922     0.061    26.625     8.462
    19   7 N        2.752    -0.037    21.951     6.959
    20   6 C        2.924     0.062    26.600     8.458
    21   6 C        2.922    -0.042    29.036     8.837
    22   6 C        2.919    -0.026    28.642     8.776
    23   6 C        2.919    -0.030    28.761     8.794
    24   6 C        2.919    -0.026    28.641     8.776
    25   6 C        2.921    -0.044    29.093     8.845
    26   6 C        2.928     0.062    26.602     8.458
    27   6 C        2.921    -0.040    28.994     8.830
    28   6 C        2.919    -0.026    28.640     8.776
    29   6 C        2.919    -0.029    28.736     8.791
    30   6 C        2.919    -0.026    28.642     8.776
    31   6 C        2.921    -0.040    28.999     8.831
    32   6 C        2.918    -0.046    29.139     8.852
    33   6 C        2.924    -0.028    28.712     8.787
    34   6 C        2.976     0.006    27.888     8.662
    35   6 C        2.975    -0.002    28.069     8.690
    36   6 C        2.976     0.016    27.644     8.624
    37   6 C        2.924    -0.028    28.712     8.787
    38   6 C        2.918    -0.046    29.139     8.852
    39   6 C        2.922     0.061    26.625     8.462
    40   7 N        2.752    -0.037    21.951     6.959
    41   6 C        2.924     0.062    26.600     8.458
    42   6 C        2.921    -0.044    29.093     8.845
    43   6 C        2.919    -0.026    28.641     8.776
    44   6 C        2.919    -0.030    28.761     8.794
    45   6 C        2.919    -0.026    28.642     8.776
    46   6 C        2.922    -0.042    29.036     8.837
    47   6 C        2.928     0.062    26.602     8.458
    48   6 C        2.921    -0.040    28.999     8.831
    49   6 C        2.919    -0.026    28.642     8.776
    50   6 C        2.919    -0.029    28.736     8.791
    51   6 C        2.919    -0.026    28.640     8.776
    52   6 C        2.921    -0.040    28.994     8.830
    53   6 C        2.920    -0.045    29.109     8.848
    54   6 C        2.921    -0.032    28.793     8.799
    55   6 C        2.925    -0.037    28.932     8.821
    56   6 C        2.908    -0.035    28.871     8.811
    57   6 C        3.029    -0.024    28.565     8.767
    58   6 C        3.148    -0.009    27.974     8.652
    59   1 H        0.926     0.033     2.551     2.498
    60   1 H        0.926     0.040     2.446     2.446
    61   1 H        0.926     0.045     2.378     2.411
    62   1 H        0.926     0.048     2.345     2.395
    63   1 H        0.926     0.042     2.426     2.436
    64   1 H        0.926     0.043     2.410     2.428
    65   1 H        0.926     0.042     2.417     2.431
    66   1 H        0.926     0.043     2.416     2.430
    67   1 H        0.926     0.042     2.421     2.433
    68   1 H        0.926     0.045     2.379     2.412
    69   1 H        0.926     0.045     2.377     2.411
    70   1 H        0.926     0.043     2.416     2.430
    71   1 H        0.926     0.043     2.410     2.427
    72   1 H        0.926     0.043     2.414     2.430
    73   1 H        0.926     0.046     2.373     2.409
    74   1 H        0.926     0.040     2.448     2.447
    75   1 H        0.926     0.040     2.448     2.447
    76   1 H        0.926     0.046     2.373     2.409
    77   1 H        0.926     0.042     2.421     2.433
    78   1 H        0.926     0.043     2.416     2.430
    79   1 H        0.926     0.042     2.417     2.431
    80   1 H        0.926     0.043     2.410     2.428
    81   1 H        0.926     0.042     2.426     2.436
    82   1 H        0.926     0.043     2.414     2.430
    83   1 H        0.926     0.043     2.410     2.427
    84   1 H        0.926     0.043     2.416     2.430
    85   1 H        0.926     0.045     2.377     2.411
    86   1 H        0.926     0.045     2.379     2.412
    87   1 H        0.926     0.048     2.345     2.395
    88   1 H        0.926     0.045     2.378     2.411
    89   1 H        0.926     0.040     2.446     2.446
    90   1 H        0.926     0.033     2.551     2.498

molecular dipole:
                 x           y           z       tot (Debye)
 q only:       14.965       0.003      -0.006
   full:       15.323       0.004      -0.006      38.948

 projected vibrational frequencies (cm⁻¹)
eigval :       -0.00    -0.00     0.00     0.00     0.00     0.00
eigval :       13.84    15.12    16.89    18.78    26.67    28.77
eigval :       39.00    43.07    50.94    51.23    56.32    62.37
eigval :       64.94    70.15    71.44    76.47    79.27    87.08
eigval :      100.80   102.98   114.52   120.29   134.79   140.14
eigval :      142.66   164.45   165.11   170.61   183.65   198.48
eigval :      219.89   232.65   233.66   238.72   240.89   281.36
eigval :      284.57   298.38   307.31   315.10   323.45   327.24
eigval :      347.56   352.96   361.36   376.19   376.83   378.90
eigval :      380.44   383.88   384.38   391.58   392.43   393.93
eigval :      412.56   421.35   423.40   423.49   454.22   463.15
eigval :      473.09   475.81   480.53   496.05   498.72   500.28
eigval :      513.70   523.55   528.97   537.76   550.86   572.15
eigval :      583.04   583.68   584.28   585.10   589.81   593.15
eigval :      594.16   605.04   610.20   610.31   627.27   630.20
eigval :      642.95   644.82   660.22   660.34   663.06   664.33
eigval :      670.92   684.89   690.27   696.40   698.51   719.54
eigval :      728.37   747.16   757.07   758.95   760.54   761.56
eigval :      772.41   805.92   807.89   821.48   822.20   834.87
eigval :      861.67   862.31   870.58   873.27   874.49   876.83
eigval :      894.33   894.73   898.91   899.58   900.28   901.29
eigval :      902.42   908.22   909.26   913.71   917.89   920.20
eigval :      926.43   927.03   930.13   930.23   930.54   931.17
eigval :      932.51   932.52   933.46   937.26   937.56   971.57
eigval :      984.16   990.11  1002.69  1002.86  1013.40  1018.49
eigval :     1064.60  1068.83  1078.60  1078.73  1081.98  1083.66
eigval :     1118.28  1118.78  1119.34  1121.88  1125.55  1128.85
eigval :     1141.89  1143.15  1153.64  1175.87  1176.11  1176.37
eigval :     1177.67  1177.87  1180.50  1183.77  1190.34  1190.48
eigval :     1192.18  1195.28  1208.05  1212.86  1216.56  1227.91
eigval :     1234.24  1263.94  1265.13  1266.97  1272.22  1273.00
eigval :     1273.45  1279.29  1281.32  1293.47  1293.64  1307.36
eigval :     1308.24  1312.41  1312.51  1321.07  1321.91  1322.36
eigval :     1324.67  1325.51  1337.68  1355.76  1356.00  1368.79
eigval :     1407.15  1413.35  1414.34  1425.66  1431.13  1431.20
eigval :     1436.74  1437.04  1457.19  1457.36  1458.27  1458.75
eigval :     1460.47  1470.29  1472.79  1476.69  1502.34  1530.78
eigval :     1531.83  1541.30  1543.90  1568.27  1568.29  1568.46
eigval :     1570.35  1572.40  1573.75  1579.07  1580.89  1580.90
eigval :     1587.76  1590.66  2295.65  2295.93  3071.22  3071.62
eigval :     3080.34  3080.35  3081.52  3081.61  3083.03  3083.12
eigval :     3084.15  3084.25  3084.59  3084.90  3085.89  3086.43
eigval :     3089.66  3089.72  3091.51  3091.98  3092.12  3092.34
eigval :     3094.09  3094.43  3095.65  3096.68  3097.44  3098.39
eigval :     3099.40  3099.71  3100.62  3100.90  3113.32  3115.15

   temp. (K)  partition function   enthalpy   heat capacity  entropy
                                   cal/mol     cal/K/mol   cal/K/mol   J/K/mol
 298.15  VIB  0.270E+22            27561.649    171.597    172.601
         ROT  0.666E+08              888.752      2.981     38.781
         INT  0.180E+30            28450.401    174.578    211.382
         TR   0.195E+29             1481.254      4.968     45.667
         TOT                       29931.6554   179.5465   257.0489  1075.4926

       T/K    H(0)-H(T)+PV         H(T)/Eh          T*S/Eh         G(T)/Eh
   ------------------------------------------------------------------------
    298.15    0.476991E-01    0.718699E+00    0.122132E+00    0.596566E+00
   ------------------------------------------------------------------------

         :::::::::::::::::::::::::::::::::::::::::::::::::::::
         ::                  THERMODYNAMIC                  ::
         :::::::::::::::::::::::::::::::::::::::::::::::::::::
         :: total free energy        -144.578145492236 Eh   ::
         ::.................................................::
         :: total energy             -145.174711933224 Eh   ::
         :: zero point energy           0.670999540968 Eh   ::
         :: G(RRHO) w/o ZPVE           -0.074433099980 Eh   ::
         :: G(RRHO) contrib.            0.596566440988 Eh   ::
         :::::::::::::::::::::::::::::::::::::::::::::::::::::

           -------------------------------------------------
          | TOTAL ENERGY             -145.174711933224 Eh   |
          | TOTAL ENTHALPY           -144.456013263250 Eh   |
          | TOTAL FREE ENERGY        -144.578145492236 Eh   |
          | GRADIENT NORM               0.000051799358 Eh/α |
          | HOMO-LUMO GAP               0.545816866721 eV   |
           -------------------------------------------------

 * finished run on 2025/07/16 at 21:38:41.409
