   * xtb version 6.7.1 (edcfbbe) compiled by 'albert@albert-system' on 2024-07-22

   ID    Z sym.   atoms
    1    7 N      1, 4, 7, 10, 19, 40
    2    6 C      2, 3, 5, 6, 8, 9, 11-18, 20-39, 41-58
    3    1 H      59-90

          program call               : xtb data2507/toluene/APDC-DTPA/APDC-DTPA_toluene_S0_crest.xyz --gfn 2 --gbsa toluene --ohess vtight --parallel 40 --molden --ceasefiles --namespace data2507/toluene/APDC-DTPA/APDC-DTPA_toluene_S0_finalOpt
      * Solvation model:               GBSA
        Solvent                        toluene
        Solvent mass                       9.2140E+01 g/mol
          :  Hamiltonian                  GFN2-xTB          :
 * total energy  :  -145.2186416 Eh     change       -0.1417561E-08 Eh
 * total energy  :  -145.2187641 Eh     change       -0.1225394E-03 Eh
 * total energy  :  -145.2188223 Eh     change       -0.5824740E-04 Eh
 * total energy  :  -145.2188016 Eh     change        0.2077888E-04 Eh
 * total energy  :  -145.2188564 Eh     change       -0.5488131E-04 Eh
 * total energy  :  -145.2188465 Eh     change        0.9926515E-05 Eh
 * total energy  :  -145.2188908 Eh     change       -0.4429709E-04 Eh
 * total energy  :  -145.2189071 Eh     change       -0.1626224E-04 Eh
 * total energy  :  -145.2189271 Eh     change       -0.2007069E-04 Eh
 * total energy  :  -145.2189439 Eh     change       -0.1678522E-04 Eh
 * total energy  :  -145.2190206 Eh     change       -0.5790604E-06 Eh
 * total energy  :  -145.2190211 Eh     change       -0.4802319E-06 Eh
 * total energy  :  -145.2190216 Eh     change       -0.5584962E-06 Eh
 * total energy  :  -145.2190221 Eh     change       -0.4345000E-06 Eh
 * total energy  :  -145.2190224 Eh     change       -0.3509685E-06 Eh
 * total energy  :  -145.2190226 Eh     change       -0.2171769E-06 Eh
 * total energy  :  -145.2190228 Eh     change       -0.1305872E-06 Eh
 * total energy  :  -145.2190229 Eh     change       -0.1696870E-06 Eh
 * total energy  :  -145.2190230 Eh     change       -0.8440639E-07 Eh
   *** GEOMETRY OPTIMIZATION CONVERGED AFTER 34 ITERATIONS ***

 final structure:
================
90
 xtb: 6.7.1 (edcfbbe)
N          -10.93892914499011        1.82086351894663       -0.61543479173262
C           -9.92047575894519        1.32156324156356       -0.44122653947896
C           -8.68670441594832        0.66986162550743       -0.21748449487775
N           -7.55562987940195        1.35223737546581       -0.43301767508861
C           -6.43900704900680        0.68979209086279       -0.21421018757492
C           -6.43850257993545       -0.69292060749590        0.21912043136947
N           -7.55464523915637       -1.35591168194904        0.43875665292449
C           -8.68620927529373       -0.67407809331967        0.22409091656643
C           -9.91951617934487       -1.32626828621433        0.44898736694470
N          -10.93763339774673       -1.82590958209312        0.62417348565453
C           -5.07224488360527       -1.12368098926999        0.34478164987570
C           -4.44059698909219       -2.29930037993740        0.70062450613045
C           -3.04985606693065       -2.34608038421065        0.61794990257122
C           -2.26073404509735       -1.26504441541950        0.23231802007509
C           -0.84503105389952       -1.49379052884407       -0.05482026340908
C           -0.01697238677243       -2.19930044497118        0.81742125552444
C            1.30483594846851       -2.42985808690568        0.50820990510379
C            1.84267701440791       -1.99650116360687       -0.70950890385823
N            3.17463141418633       -2.23229366766180       -1.01848481218806
C            3.89321821416983       -1.37857260207991       -1.86979971464394
C            4.83621853208871       -1.90658421695383       -2.75157886831765
C            5.56619062464519       -1.07006575974456       -3.57430544783613
C            5.36507708223997        0.30044365816776       -3.53826157359629
C            4.42447406174504        0.82904540204669       -2.66938474420667
C            3.69501936036544        0.00100022570310       -1.83802942494698
C            3.84152712805462       -3.34482103326265       -0.47145547770866
C            5.13377206325063       -3.20544557299853        0.03104444101977
C            5.79403302526713       -4.29831179006829        0.56019249898135
C            5.17626011046314       -5.53812064782458        0.60032289414334
C            3.89118802223487       -5.68033396831108        0.10153492277860
C            3.22554813925835       -4.59442461386464       -0.43556214105569
C            1.00058001285042       -1.32391779803288       -1.60241449380525
C           -0.30971322179718       -1.06777636173778       -1.27303308875980
C           -2.88036741672882       -0.00061344935948        0.00130544064448
C           -2.26158396079651        1.26415664740302       -0.23006078686116
C           -0.84580670248649        1.49363215410880        0.05617133443832
C           -0.30955282565585        1.06809379680562        1.27413450841610
C            1.00085577616706        1.32482693580446        1.60261982093391
C            1.84209794272187        1.99751647103602        0.70900451823802
N            3.17421310494169        2.23387568063195        1.01701105853540
C            3.89395234996334        1.38011605617897        1.86725905993942
C            3.69562511559867        0.00055215771787        1.83572345114651
C            4.42615401896778       -0.82758689607106        2.66602706179771
C            5.36803108323205       -0.29911796274290        3.53358333019544
C            5.56924818312924        1.07137834872955        3.56943551754209
C            4.83819614727301        1.90799806297605        2.74777878263440
C            3.83994603184796        3.34689364512803        0.46956520034294
C            3.22308907315535        4.59609244709436        0.43450455708148
C            3.88737320795416        5.68250676448611       -0.10323506769605
C            5.17196356952735        5.54120119325836       -0.60352133377579
C            5.79063251207881        4.30181544211579       -0.56417282952139
C            5.13173297988802        3.20844982348530       -0.03435532103869
C            1.30330444906453        2.43043620782618       -0.50843673796775
C           -0.01861422377107        2.19930067503249       -0.81674948168161
C           -3.05151244887420        2.34477901005706       -0.61518130073709
C           -4.44227745791700        2.29723378492022       -0.69702016291508
C           -5.07305403810020        1.12126451283700       -0.34078680829301
C           -4.27880304640218       -0.00099426888627        0.00175649024726
H           -5.00592031959773       -3.17171760500586        0.99019479944077
H           -2.55675672807771       -3.28754963421843        0.81149282903520
H           -0.40391654427344       -2.52991646778962        1.76986048677333
H            1.93679308388332       -2.94616021175284        1.21492247693200
H            4.99179463657088       -2.97493599091465       -2.78818845774246
H            6.29215567574772       -1.49320346924602       -4.25320977916404
H            5.93653466838612        0.95131214509159       -4.18272401340322
H            4.26589066412865        1.89663675068996       -2.62832662778111
H            2.96851704747270        0.42079876769295       -1.16008409371719
H            5.61100560483336       -2.23683101227118        0.00688891038691
H            6.79383347434093       -4.17824947042075        0.95081969556361
H            5.69365538553070       -6.38932623988795        1.01673845939745
H            3.40612256041160       -6.64527820459386        0.12231588152577
H            2.22780433114387       -4.70792271310737       -0.83411264885503
H            1.38179213036031       -1.01549340495466       -2.56405913562479
H           -0.94763142554608       -0.56419024775921       -1.98411988565629
H           -0.94680088932735        0.56432998640445        1.98569578583173
H            1.38283236976035        1.01674896354770        2.56407249483075
H            2.96811464254425       -0.41918081888501        1.15881843843382
H            4.26742055516122       -1.89516189082604        2.62514365903348
H            5.94036978969171       -0.95006984326015        4.17717503586155
H            6.29629660459144        1.49442296806668        4.24725005410375
H            4.99397929154624        2.97632588628853        2.78419690825085
H            2.22568295990993        4.70884492888462        0.83411251483584
H            3.40159579939668        6.64710381901744       -0.12344025130563
H            5.68830743659406        6.39279281252375       -1.02045343025159
H            6.79011826164252        4.18249677552413       -0.95583152151385
H            5.60967556267487        2.24017225776757       -0.01079669819498
H            1.93459789052759        2.94687451570345       -1.21564054924822
H           -0.40633207825985        2.52962995666961       -1.76897182598033
H           -2.55903902701370        3.28652531339330       -0.80896803677152
H           -5.00826752197641        3.16935202576699       -0.98619193735126

          :  Hamiltonian                  GFN2-xTB          :
         :: gradient norm              0.000074124228 Eh/a0 ::
         :: HOMO-LUMO gap              0.772366568998 eV    ::
         :: SCC energy              -147.979924464340 Eh    ::
         :: -> dispersion             -0.146036587507 Eh    ::
         :: -> Gsolv                  -0.066373716711 Eh    ::
         :: repulsion energy           2.760901432755 Eh    ::

    * Orbital Energies and Occupations

         #    Occupation            Energy/Eh            Energy/eV
      -------------------------------------------------------------
         1        2.0000           -0.7098442             -19.3158
       ...           ...                  ...                  ...
       123        2.0000           -0.4163894             -11.3305
       124        2.0000           -0.4143086             -11.2739
       125        2.0000           -0.4134946             -11.2518
       126        2.0000           -0.4125603             -11.2263
       127        2.0000           -0.4112384             -11.1904
       128        2.0000           -0.4105187             -11.1708
       129        2.0000           -0.4090954             -11.1321
       130        2.0000           -0.4090464             -11.1307
       131        2.0000           -0.4022317             -10.9453
       132        2.0000           -0.3993518             -10.8669
       133        2.0000           -0.3830602             -10.4236
       134        2.0000           -0.3586936              -9.7605
       135        2.0000           -0.3554051              -9.6711 (HOMO)
       136        0.0000           -0.3270213              -8.8987 (LUMO)
       137                         -0.3122732              -8.4974
       138                         -0.2910788              -7.9207
       139                         -0.2499440              -6.8013
       140                         -0.2461862              -6.6991
       141                         -0.2398716              -6.5272
       142                         -0.2392622              -6.5107
       143                         -0.2362794              -6.4295
       144                         -0.2359425              -6.4203
       145                         -0.2341375              -6.3712
       146                         -0.2318964              -6.3102
       ...                                ...                  ...
       264                          1.1509896              31.3200
      -------------------------------------------------------------
                  HL-Gap            0.0283838 Eh            0.7724 eV

     #   Z          covCN         q      C6AA      α(0)
     1   7 N        0.911    -0.239    26.252     7.410
     2   6 C        1.911     0.113    28.324     8.595
     3   6 C        2.978     0.095    25.892     8.347
     4   7 N        1.842    -0.246    27.266     7.739
     5   6 C        3.071     0.088    25.978     8.357
     6   6 C        3.071     0.088    25.978     8.357
     7   7 N        1.842    -0.246    27.266     7.739
     8   6 C        2.978     0.095    25.891     8.347
     9   6 C        1.911     0.113    28.324     8.595
    10   7 N        0.911    -0.239    26.252     7.410
    11   6 C        3.035    -0.019    28.443     8.748
    12   6 C        2.909    -0.014    28.360     8.732
    13   6 C        2.926    -0.035    28.874     8.812
    14   6 C        2.976     0.026    27.409     8.588
    15   6 C        2.977     0.003    27.946     8.671
    16   6 C        2.922    -0.032    28.790     8.799
    17   6 C        2.921    -0.050    29.237     8.867
    18   6 C        2.920     0.067    26.496     8.441
    19   7 N        2.751    -0.067    22.530     7.050
    20   6 C        2.924     0.063    26.580     8.455
    21   6 C        2.923    -0.046    29.149     8.854
    22   6 C        2.919    -0.029    28.725     8.789
    23   6 C        2.919    -0.037    28.915     8.818
    24   6 C        2.919    -0.028    28.703     8.786
    25   6 C        2.922    -0.047    29.173     8.857
    26   6 C        2.927     0.064    26.567     8.453
    27   6 C        2.922    -0.043    29.068     8.841
    28   6 C        2.919    -0.028    28.708     8.786
    29   6 C        2.919    -0.035    28.878     8.812
    30   6 C        2.919    -0.029    28.721     8.788
    31   6 C        2.921    -0.045    29.112     8.848
    32   6 C        2.920    -0.050    29.242     8.868
    33   6 C        2.924    -0.028    28.712     8.787
    34   6 C        2.976     0.009    27.815     8.651
    35   6 C        2.976     0.026    27.409     8.588
    36   6 C        2.977     0.003    27.946     8.671
    37   6 C        2.924    -0.028    28.712     8.787
    38   6 C        2.920    -0.050    29.242     8.868
    39   6 C        2.920     0.067    26.496     8.441
    40   7 N        2.751    -0.067    22.530     7.050
    41   6 C        2.924     0.063    26.580     8.455
    42   6 C        2.922    -0.047    29.173     8.857
    43   6 C        2.919    -0.028    28.703     8.786
    44   6 C        2.919    -0.037    28.915     8.818
    45   6 C        2.919    -0.029    28.725     8.789
    46   6 C        2.923    -0.046    29.149     8.854
    47   6 C        2.927     0.064    26.567     8.453
    48   6 C        2.921    -0.045    29.112     8.848
    49   6 C        2.919    -0.029    28.721     8.788
    50   6 C        2.919    -0.035    28.878     8.812
    51   6 C        2.919    -0.028    28.708     8.786
    52   6 C        2.922    -0.043    29.068     8.841
    53   6 C        2.921    -0.050    29.236     8.867
    54   6 C        2.922    -0.032    28.790     8.799
    55   6 C        2.926    -0.035    28.874     8.812
    56   6 C        2.909    -0.014    28.360     8.732
    57   6 C        3.035    -0.019    28.443     8.748
    58   6 C        3.144    -0.007    27.938     8.648
    59   1 H        0.926     0.055     2.258     2.350
    60   1 H        0.926     0.057     2.232     2.336
    61   1 H        0.926     0.043     2.414     2.430
    62   1 H        0.926     0.041     2.436     2.441
    63   1 H        0.926     0.033     2.540     2.492
    64   1 H        0.926     0.035     2.515     2.480
    65   1 H        0.926     0.034     2.529     2.487
    66   1 H        0.926     0.034     2.524     2.484
    67   1 H        0.926     0.036     2.498     2.472
    68   1 H        0.926     0.036     2.503     2.474
    69   1 H        0.926     0.037     2.485     2.465
    70   1 H        0.926     0.036     2.508     2.477
    71   1 H        0.926     0.037     2.490     2.468
    72   1 H        0.926     0.036     2.499     2.472
    73   1 H        0.926     0.040     2.452     2.449
    74   1 H        0.926     0.036     2.500     2.472
    75   1 H        0.926     0.036     2.500     2.472
    76   1 H        0.926     0.040     2.452     2.448
    77   1 H        0.926     0.036     2.498     2.472
    78   1 H        0.926     0.034     2.524     2.485
    79   1 H        0.926     0.034     2.529     2.487
    80   1 H        0.926     0.035     2.515     2.480
    81   1 H        0.926     0.033     2.540     2.492
    82   1 H        0.926     0.036     2.499     2.472
    83   1 H        0.926     0.037     2.490     2.468
    84   1 H        0.926     0.036     2.509     2.477
    85   1 H        0.926     0.037     2.485     2.465
    86   1 H        0.926     0.036     2.503     2.474
    87   1 H        0.926     0.041     2.436     2.441
    88   1 H        0.926     0.043     2.414     2.430
    89   1 H        0.926     0.057     2.232     2.336
    90   1 H        0.926     0.055     2.258     2.350

molecular dipole:
                 x           y           z       tot (Debye)
 q only:        8.082       0.002      -0.004
   full:        8.562       0.002      -0.004      21.763

 projected vibrational frequencies (cm⁻¹)
eigval :       -0.00    -0.00    -0.00     0.00     0.00     0.00
eigval :       15.81    17.54    18.39    21.63    26.87    27.97
eigval :       41.15    42.83    50.37    51.87    56.51    60.98
eigval :       66.04    67.21    70.98    75.20    78.96    85.75
eigval :       99.99   101.86   112.70   121.15   135.39   142.14
eigval :      143.52   163.58   164.65   171.25   184.26   196.78
eigval :      221.67   233.03   234.37   239.92   241.13   281.57
eigval :      281.99   296.02   306.99   313.84   324.03   328.74
eigval :      350.13   353.53   362.30   377.54   378.69   381.21
eigval :      382.30   389.29   391.36   394.28   396.00   398.06
eigval :      420.16   424.29   424.79   427.10   459.35   470.02
eigval :      478.89   482.30   493.95   496.34   504.65   513.91
eigval :      521.26   528.57   539.22   542.98   555.64   576.81
eigval :      584.30   585.70   585.99   587.90   593.86   595.15
eigval :      604.74   608.38   612.76   628.67   635.46   647.66
eigval :      658.97   661.71   663.62   666.46   668.75   674.05
eigval :      684.00   685.07   699.01   701.41   724.20   742.92
eigval :      747.17   748.02   756.68   759.57   759.91   761.28
eigval :      777.93   812.33   816.52   832.16   838.67   841.75
eigval :      864.03   864.45   875.24   875.91   877.06   878.65
eigval :      894.19   896.60   897.02   898.98   902.66   908.62
eigval :      909.32   912.60   913.11   914.65   918.22   918.51
eigval :      925.64   925.83   929.91   930.06   930.50   930.75
eigval :      931.42   931.49   933.54   937.54   942.76   974.44
eigval :      986.19   995.77  1004.47  1004.77  1016.18  1029.07
eigval :     1072.77  1080.14  1080.17  1083.63  1085.22  1112.13
eigval :     1118.63  1118.91  1122.27  1126.04  1129.65  1131.56
eigval :     1145.03  1145.90  1166.72  1177.12  1177.25  1179.27
eigval :     1179.54  1184.21  1185.13  1186.43  1193.21  1194.52
eigval :     1196.12  1199.35  1212.22  1215.44  1233.72  1239.91
eigval :     1266.66  1269.09  1270.12  1275.26  1276.02  1279.13
eigval :     1282.34  1291.82  1300.35  1300.70  1311.83  1312.75
eigval :     1316.65  1318.94  1321.62  1322.30  1324.28  1324.65
eigval :     1325.93  1328.90  1333.04  1360.61  1363.71  1377.66
eigval :     1415.26  1415.45  1417.28  1432.69  1434.18  1436.07
eigval :     1439.12  1439.67  1459.14  1467.60  1467.72  1470.97
eigval :     1471.00  1488.46  1490.75  1511.42  1513.95  1543.46
eigval :     1543.61  1553.29  1572.27  1576.40  1576.54  1580.15
eigval :     1580.39  1584.49  1585.96  1590.09  1590.33  1591.31
eigval :     1597.61  1598.90  2351.78  2355.02  3074.77  3074.81
eigval :     3074.96  3074.96  3076.96  3076.99  3078.24  3078.27
eigval :     3081.01  3081.48  3082.81  3083.26  3084.45  3084.54
eigval :     3085.36  3085.51  3085.92  3086.01  3088.92  3089.21
eigval :     3094.01  3094.05  3094.66  3095.39  3096.36  3096.40
eigval :     3096.97  3097.51  3098.39  3099.13  3107.91  3109.63

   temp. (K)  partition function   enthalpy   heat capacity  entropy
                                   cal/mol     cal/K/mol   cal/K/mol   J/K/mol
 298.15  VIB  0.151E+22            27383.428    170.370    171.408
         ROT  0.666E+08              888.752      2.981     38.779
         INT  0.101E+30            28272.181    173.351    210.188
         TR   0.195E+29             1481.254      4.968     45.667
         TOT                       29753.4344   178.3193   255.8544  1070.4946

       T/K    H(0)-H(T)+PV         H(T)/Eh          T*S/Eh         G(T)/Eh
   ------------------------------------------------------------------------
    298.15    0.474151E-01    0.721165E+00    0.121565E+00    0.599601E+00
   ------------------------------------------------------------------------

         :::::::::::::::::::::::::::::::::::::::::::::::::::::
         ::                  THERMODYNAMIC                  ::
         :::::::::::::::::::::::::::::::::::::::::::::::::::::
         :: total free energy        -144.619422268580 Eh   ::
         ::.................................................::
         :: total energy             -145.219023032380 Eh   ::
         :: zero point energy           0.673750306613 Eh   ::
         :: G(RRHO) w/o ZPVE           -0.074149542813 Eh   ::
         :: G(RRHO) contrib.            0.599600763800 Eh   ::
         :::::::::::::::::::::::::::::::::::::::::::::::::::::

           -------------------------------------------------
          | TOTAL ENERGY             -145.219023032380 Eh   |
          | TOTAL ENTHALPY           -144.497857609910 Eh   |
          | TOTAL FREE ENERGY        -144.619422268580 Eh   |
          | GRADIENT NORM               0.000074150726 Eh/α |
          | HOMO-LUMO GAP               0.772363025239 eV   |
           -------------------------------------------------

 * finished run on 2025/07/16 at 21:38:29.794
