   * xtb version 6.7.1 (edcfbbe) compiled by 'albert@albert-system' on 2024-07-22

   ID    Z sym.   atoms
    1    7 N      1, 4, 7, 10, 19, 40
    2    6 C      2, 3, 5, 6, 8, 9, 11-18, 20-39, 41-58
    3    1 H      59-90

          program call               : xtb data2507/toluene/APDC-DTPA/APDC-DTPA.xyz --gfn 2 --gbsa toluene --ohess vtight --parallel 40 --molden --ceasefiles --namespace data2507/toluene/APDC-DTPA/APDC-DTPA_toluene_S0_preOpt
      * Solvation model:               GBSA
        Solvent                        toluene
        Solvent mass                       9.2140E+01 g/mol
          :  Hamiltonian                  GFN2-xTB          :
 * total energy  :  -145.1743864 Eh     change       -0.6596110E-09 Eh
 * total energy  :  -145.1950602 Eh     change       -0.2067384E-01 Eh
 * total energy  :  -145.2029909 Eh     change       -0.7930667E-02 Eh
 * total energy  :  -145.2053999 Eh     change       -0.2409041E-02 Eh
 * total energy  :  -145.2064476 Eh     change       -0.1047635E-02 Eh
 * total energy  :  -145.2060170 Eh     change        0.4305804E-03 Eh
 * total energy  :  -145.2070552 Eh     change       -0.1038230E-02 Eh
 * total energy  :  -145.2069207 Eh     change        0.1344960E-03 Eh
 * total energy  :  -145.2074323 Eh     change       -0.5116243E-03 Eh
 * total energy  :  -145.2076616 Eh     change       -0.2292833E-03 Eh
 * total energy  :  -145.2130600 Eh     change       -0.2356521E-06 Eh
 * total energy  :  -145.2130603 Eh     change       -0.2697689E-06 Eh
 * total energy  :  -145.2130603 Eh     change       -0.1068614E-07 Eh
 * total energy  :  -145.2130605 Eh     change       -0.1927142E-06 Eh
 * total energy  :  -145.2130606 Eh     change       -0.1193032E-06 Eh
 * total energy  :  -145.2130606 Eh     change        0.3131575E-07 Eh
 * total energy  :  -145.2130607 Eh     change       -0.1413250E-06 Eh
 * total energy  :  -145.2130607 Eh     change        0.1241992E-07 Eh
 * total energy  :  -145.2130608 Eh     change       -0.8202548E-07 Eh
   *** GEOMETRY OPTIMIZATION CONVERGED AFTER 86 ITERATIONS ***

 final structure:
================
90
 xtb: 6.7.1 (edcfbbe)
N          -11.74696727990602       -2.24054742876344       -0.82418957316445
C          -10.74374269404795       -1.71779961098708       -0.63167443779006
C           -9.52969128396319       -1.03754761958288       -0.38506605496641
N           -8.37903235068550       -1.69007368515662       -0.58900902185664
C           -7.28360097468854       -0.99956305293067       -0.34914920624273
C           -7.32404123488263        0.37526885081145        0.09568488583199
N           -8.45839719430072        1.01098397225832        0.30282332904394
C           -9.56924969405681        0.30292077806919        0.06562589163928
C          -10.82145661565880        0.92326629470937        0.27619691090633
N          -11.85364258182836        1.39744688876135        0.43902091667336
C           -5.97017316751799        0.83363428185363        0.24851445835984
C           -5.39045364842680        2.02418046750729        0.63096526718363
C           -4.00123495005696        2.09535087722623        0.61837748673064
C           -3.15776079372217        1.04141766401859        0.26332162423219
C           -1.73208203332452        1.38309363778105        0.21885911139300
C           -0.93449991698002        1.14555553065189       -0.90100531515796
C            0.34710397901469        1.64890378962467       -0.97876782801020
C            0.88028339643829        2.40968418979185        0.06630567342279
N            2.12727493434354        3.01368407036624       -0.02958956001579
C            2.34085847777594        4.26449879637227        0.57597190336102
C            1.36298210404146        5.25666163986655        0.51681725450063
C            1.58341907007902        6.48573855482409        1.10872348823852
C            2.77954199802759        6.74712753583937        1.75782727255839
C            3.75649079778859        5.76607104134007        1.81364359013547
C            3.54192350959736        4.53116838363942        1.23137404128142
C            3.18536578744833        2.42525096330561       -0.73669590937591
C            3.43158228662717        1.05661303208602       -0.64475344390722
C            4.51634150950916        0.50611684559061       -1.30111620030066
C            5.35611266209127        1.29917917725527       -2.06552936310276
C            5.10532438220177        2.65773217019435       -2.17166498461083
C            4.02888161784262        3.21993455375603       -1.51335696402318
C            0.10635121070663        2.59267478106768        1.21683271001196
C           -1.17554794690633        2.10153138378384        1.28187481948926
C           -3.72868103823392       -0.22601305948693       -0.06953915767221
C           -3.08825437096360       -1.46676475453424       -0.37806524784791
C           -1.64921247273786       -1.71783081370570       -0.27557908593937
C           -1.00480123240081       -2.44638081214129       -1.27884731927239
C            0.31934745719542       -2.80049669170174       -1.16872832804843
C            1.06220385056296       -2.43617479917021       -0.04109542281994
N            2.39299782821221       -2.80595447048878        0.08768550378003
C            2.95068153127821       -3.01335806728265        1.36459395747126
C            2.24528959611004       -3.70957939241643        2.34440369028792
C            2.80860834574780       -3.91665921814530        3.58948243557472
C            4.07990170360611       -3.44232684070130        3.87115042814316
C            4.78669805564223       -2.75533687705113        2.89738571196836
C            4.22830285710890       -2.53777193428577        1.65183248701138
C            3.18778022432738       -3.08114512831704       -1.03667773776820
C            4.10528428204377       -4.13107665034618       -1.00511438556062
C            4.90062083651447       -4.39561199545878       -2.10416988277206
C            4.78997785967976       -3.62793679950636       -3.25228880970727
C            3.87858538411331       -2.58496658104447       -3.29010940672150
C            3.08585129254407       -2.30690924050515       -2.19273623881655
C            0.42073906634645       -1.70205353450949        0.96370800955641
C           -0.90806271702563       -1.35799941441691        0.85023572431862
C           -3.86757702963439       -2.56148847480074       -0.75424862655648
C           -5.25726166181468       -2.55514222849951       -0.81511120264174
C           -5.90517492101609       -1.39144631304758       -0.45971655652972
C           -5.13378276119577       -0.25913421310570       -0.09361529363829
H           -5.98880248890996        2.87885077753269        0.90576970731155
H           -3.54209069179404        3.04182532215032        0.86329946605457
H           -1.34538240724829        0.60759801373312       -1.74196160844255
H            0.93401809459242        1.49222429679656       -1.87164678930325
H            0.43474582580179        5.05863305758609        0.00081001263270
H            0.81988059496913        7.24791792479005        1.05364670520053
H            2.94957847281997        7.70990472037304        2.21579963728411
H            4.69045123833441        5.96084031039946        2.32023612341752
H            4.30203404240820        3.76516035582689        1.28068382270749
H            2.77891167197670        0.43729560259945       -0.04662525212648
H            4.71193449607650       -0.55171598002909       -1.21633716862036
H            6.20100798573711        0.85931397798062       -2.57361439927812
H            5.74934765274017        3.28360079362589       -2.77203929670156
H            3.83493068428513        4.27973943254013       -1.59242727819709
H            0.51875916493654        3.14001384514866        2.05132622170433
H           -1.75520609679128        2.25437399191746        2.18055212512396
H           -1.55109112546534       -2.72858860152916       -2.16690544345779
H            0.78195451489721       -3.38369289013503       -1.95023413482420
H            1.25932847348865       -4.09075443033376        2.12107785758318
H            2.25507156274252       -4.46083920499782        4.34071563225159
H            4.51799504719214       -3.60977132066112        4.84360410303415
H            5.77730801745054       -2.38093532189549        3.10984147605239
H            4.77888760672124       -1.99995777317022        0.89438691646393
H            4.18915072662826       -4.73948469335617       -0.11649765389242
H            5.60571504184858       -5.21301289741376       -2.06519098532508
H            5.40995834968513       -3.84029115406863       -4.11021857490836
H            3.79123916265005       -1.97286589299434       -4.17581878421446
H            2.39126967086813       -1.48115613587016       -2.22226060960949
H            0.97181141232233       -1.41051648167264        1.84535418742515
H           -1.38785826769752       -0.82790163823664        1.65851894711653
H           -3.35740818162784       -3.48776736588262       -0.97323245867103
H           -5.80577158021567       -3.43864609099597       -1.10264252205097

          :  Hamiltonian                  GFN2-xTB          :
         :: gradient norm              0.000052217727 Eh/a0 ::
         :: HOMO-LUMO gap              0.743368082690 eV    ::
         :: SCC energy              -147.971600004539 Eh    ::
         :: -> dispersion             -0.139517875949 Eh    ::
         :: -> Gsolv                  -0.068494549000 Eh    ::
         :: repulsion energy           2.758539202491 Eh    ::

    * Orbital Energies and Occupations

         #    Occupation            Energy/Eh            Energy/eV
      -------------------------------------------------------------
         1        2.0000           -0.7105587             -19.3353
       ...           ...                  ...                  ...
       123        2.0000           -0.4155029             -11.3064
       124        2.0000           -0.4140542             -11.2670
       125        2.0000           -0.4133772             -11.2486
       126        2.0000           -0.4125347             -11.2256
       127        2.0000           -0.4104657             -11.1693
       128        2.0000           -0.4099266             -11.1547
       129        2.0000           -0.4098135             -11.1516
       130        2.0000           -0.4075064             -11.0888
       131        2.0000           -0.4021618             -10.9434
       132        2.0000           -0.3991090             -10.8603
       133        2.0000           -0.3835341             -10.4365
       134        2.0000           -0.3579783              -9.7411
       135        2.0000           -0.3549201              -9.6579 (HOMO)
       136        0.0000           -0.3276020              -8.9145 (LUMO)
       137                         -0.3130246              -8.5178
       138                         -0.2916037              -7.9349
       139                         -0.2499075              -6.8003
       140                         -0.2458876              -6.6909
       141                         -0.2402761              -6.5382
       142                         -0.2379612              -6.4753
       143                         -0.2361857              -6.4269
       144                         -0.2351890              -6.3998
       145                         -0.2334518              -6.3525
       146                         -0.2324305              -6.3248
       ...                                ...                  ...
       264                          1.1506303              31.3102
      -------------------------------------------------------------
                  HL-Gap            0.0273181 Eh            0.7434 eV

     #   Z          covCN         q      C6AA      α(0)
     1   7 N        0.911    -0.238    26.228     7.407
     2   6 C        1.910     0.113    28.321     8.595
     3   6 C        2.979     0.095    25.887     8.346
     4   7 N        1.842    -0.245    27.248     7.736
     5   6 C        3.068     0.088    25.985     8.359
     6   6 C        3.068     0.088    25.984     8.358
     7   7 N        1.842    -0.245    27.245     7.736
     8   6 C        2.979     0.095    25.889     8.346
     9   6 C        1.910     0.113    28.321     8.595
    10   7 N        0.911    -0.238    26.230     7.407
    11   6 C        3.045    -0.018    28.404     8.741
    12   6 C        2.908    -0.014    28.362     8.733
    13   6 C        2.936    -0.035    28.876     8.813
    14   6 C        2.974     0.026    27.416     8.589
    15   6 C        2.981     0.005    27.916     8.667
    16   6 C        2.921    -0.028    28.693     8.784
    17   6 C        2.920    -0.048    29.199     8.861
    18   6 C        2.922     0.068    26.479     8.439
    19   7 N        2.752    -0.069    22.577     7.057
    20   6 C        2.928     0.064    26.565     8.452
    21   6 C        2.922    -0.046    29.137     8.852
    22   6 C        2.919    -0.029    28.726     8.789
    23   6 C        2.919    -0.036    28.902     8.816
    24   6 C        2.919    -0.029    28.720     8.788
    25   6 C        2.922    -0.045    29.122     8.850
    26   6 C        2.924     0.064    26.573     8.454
    27   6 C        2.921    -0.045    29.128     8.850
    28   6 C        2.920    -0.028    28.713     8.787
    29   6 C        2.919    -0.037    28.915     8.818
    30   6 C        2.919    -0.029    28.718     8.788
    31   6 C        2.923    -0.046    29.142     8.853
    32   6 C        2.921    -0.048    29.193     8.860
    33   6 C        2.925    -0.033    28.813     8.803
    34   6 C        2.970     0.010    27.780     8.645
    35   6 C        2.974     0.026    27.412     8.588
    36   6 C        2.980     0.003    27.953     8.673
    37   6 C        2.925    -0.033    28.815     8.803
    38   6 C        2.920    -0.050    29.254     8.870
    39   6 C        2.920     0.068    26.472     8.437
    40   7 N        2.751    -0.067    22.533     7.050
    41   6 C        2.926     0.064    26.572     8.454
    42   6 C        2.921    -0.045    29.109     8.848
    43   6 C        2.919    -0.029    28.719     8.788
    44   6 C        2.919    -0.035    28.875     8.812
    45   6 C        2.919    -0.029    28.713     8.787
    46   6 C        2.922    -0.044    29.086     8.844
    47   6 C        2.923     0.064    26.574     8.454
    48   6 C        2.922    -0.047    29.160     8.855
    49   6 C        2.919    -0.029    28.726     8.789
    50   6 C        2.918    -0.037    28.914     8.818
    51   6 C        2.919    -0.029    28.717     8.788
    52   6 C        2.922    -0.045    29.120     8.849
    53   6 C        2.921    -0.050    29.248     8.869
    54   6 C        2.922    -0.028    28.699     8.785
    55   6 C        2.934    -0.035    28.882     8.814
    56   6 C        2.908    -0.014    28.362     8.732
    57   6 C        3.045    -0.018    28.408     8.742
    58   6 C        3.130    -0.007    27.994     8.662
    59   1 H        0.926     0.056     2.252     2.347
    60   1 H        0.926     0.057     2.231     2.336
    61   1 H        0.926     0.039     2.465     2.455
    62   1 H        0.926     0.038     2.478     2.462
    63   1 H        0.926     0.035     2.520     2.482
    64   1 H        0.926     0.036     2.501     2.473
    65   1 H        0.926     0.035     2.521     2.483
    66   1 H        0.926     0.036     2.499     2.472
    67   1 H        0.926     0.035     2.516     2.480
    68   1 H        0.926     0.034     2.530     2.487
    69   1 H        0.926     0.035     2.514     2.479
    70   1 H        0.926     0.034     2.533     2.489
    71   1 H        0.926     0.035     2.515     2.480
    72   1 H        0.926     0.033     2.542     2.493
    73   1 H        0.926     0.040     2.450     2.448
    74   1 H        0.926     0.042     2.428     2.437
    75   1 H        0.926     0.042     2.428     2.437
    76   1 H        0.926     0.041     2.433     2.439
    77   1 H        0.926     0.036     2.507     2.476
    78   1 H        0.926     0.036     2.496     2.471
    79   1 H        0.926     0.035     2.510     2.477
    80   1 H        0.926     0.038     2.482     2.464
    81   1 H        0.926     0.037     2.487     2.466
    82   1 H        0.926     0.032     2.551     2.498
    83   1 H        0.926     0.034     2.524     2.484
    84   1 H        0.926     0.033     2.538     2.491
    85   1 H        0.926     0.036     2.506     2.475
    86   1 H        0.926     0.039     2.460     2.453
    87   1 H        0.926     0.037     2.495     2.470
    88   1 H        0.926     0.038     2.471     2.458
    89   1 H        0.926     0.058     2.225     2.333
    90   1 H        0.926     0.055     2.255     2.348

molecular dipole:
                 x           y           z       tot (Debye)
 q only:        7.829       0.236       0.195
   full:        8.311       0.231       0.209      21.138

 projected vibrational frequencies (cm⁻¹)
eigval :       -0.00    -0.00    -0.00     0.00     0.00     0.00
eigval :       10.61    15.57    16.68    21.90    24.82    28.58
eigval :       36.44    41.24    48.66    54.50    55.22    57.89
eigval :       59.29    67.57    70.17    76.80    80.36    96.57
eigval :      101.35   104.15   113.29   122.07   131.39   139.86
eigval :      147.88   159.42   165.96   175.34   183.44   195.12
eigval :      213.54   225.04   235.13   238.82   244.08   280.95
eigval :      284.02   296.21   304.60   311.74   323.53   330.24
eigval :      342.75   347.98   365.37   378.34   378.69   381.80
eigval :      382.59   387.00   393.63   394.03   396.56   400.24
eigval :      419.31   421.38   429.13   430.15   461.12   469.17
eigval :      480.19   482.03   494.56   497.29   503.30   513.86
eigval :      523.17   531.46   539.42   546.49   554.15   577.86
eigval :      584.91   586.05   586.54   588.27   593.05   595.16
eigval :      605.30   610.85   613.34   630.46   635.70   642.96
eigval :      658.89   661.75   662.95   666.20   668.39   673.35
eigval :      686.69   690.64   699.28   700.62   723.56   744.52
eigval :      745.55   748.71   757.22   758.67   761.09   761.97
eigval :      778.82   814.32   819.55   828.92   843.96   845.89
eigval :      863.77   871.54   873.35   874.76   877.14   879.56
eigval :      892.19   893.87   895.96   898.04   903.06   908.35
eigval :      908.95   913.27   915.43   917.35   920.67   926.34
eigval :      927.20   927.96   929.82   930.40   930.63   931.48
eigval :      932.51   934.34   935.35   940.05   945.61   975.09
eigval :      985.93   995.35  1003.72  1004.21  1016.86  1029.23
eigval :     1074.51  1080.68  1081.35  1082.32  1083.70  1109.54
eigval :     1118.06  1120.12  1121.33  1121.71  1127.43  1139.59
eigval :     1142.14  1147.77  1167.24  1177.27  1177.68  1178.88
eigval :     1180.06  1182.42  1184.09  1187.40  1192.06  1193.50
eigval :     1194.57  1198.28  1211.68  1215.69  1233.41  1244.80
eigval :     1264.80  1267.33  1270.49  1275.25  1275.64  1278.79
eigval :     1279.55  1288.92  1298.92  1300.28  1311.21  1312.41
eigval :     1316.56  1318.92  1319.27  1321.51  1322.39  1324.01
eigval :     1326.79  1329.19  1330.28  1357.01  1365.31  1376.00
eigval :     1412.45  1416.23  1417.56  1431.60  1434.13  1434.79
eigval :     1438.47  1439.71  1462.34  1467.25  1467.98  1469.83
eigval :     1470.77  1486.67  1490.25  1513.64  1515.68  1541.90
eigval :     1543.49  1546.58  1573.91  1575.93  1576.44  1579.84
eigval :     1580.34  1586.19  1587.43  1589.84  1590.31  1592.10
eigval :     1597.52  1598.98  2351.88  2355.12  3073.46  3074.13
eigval :     3074.46  3075.10  3075.26  3077.00  3077.21  3077.50
eigval :     3079.33  3079.61  3082.99  3083.10  3083.94  3084.24
eigval :     3085.36  3085.88  3086.19  3087.63  3088.82  3088.87
eigval :     3089.93  3091.19  3091.76  3094.56  3095.05  3096.21
eigval :     3096.69  3097.85  3099.11  3100.64  3101.35  3101.56

   temp. (K)  partition function   enthalpy   heat capacity  entropy
                                   cal/mol     cal/K/mol   cal/K/mol   J/K/mol
 298.15  VIB  0.343E+22            27404.915    170.071    171.934
         ROT  0.150E+09              888.752      2.981     40.399
         INT  0.515E+30            28293.668    173.052    212.333
         TR   0.195E+29             1481.254      4.968     45.667
         TOT                       29774.9217   178.0204   257.9999  1079.4715

       T/K    H(0)-H(T)+PV         H(T)/Eh          T*S/Eh         G(T)/Eh
   ------------------------------------------------------------------------
    298.15    0.474494E-01    0.721126E+00    0.122584E+00    0.598542E+00
   ------------------------------------------------------------------------

         :::::::::::::::::::::::::::::::::::::::::::::::::::::
         ::                  THERMODYNAMIC                  ::
         :::::::::::::::::::::::::::::::::::::::::::::::::::::
         :: total free energy        -144.614519031678 Eh   ::
         ::.................................................::
         :: total energy             -145.213060803493 Eh   ::
         :: zero point energy           0.673676482948 Eh   ::
         :: G(RRHO) w/o ZPVE           -0.075134711132 Eh   ::
         :: G(RRHO) contrib.            0.598541771815 Eh   ::
         :::::::::::::::::::::::::::::::::::::::::::::::::::::

           -------------------------------------------------
          | TOTAL ENERGY             -145.213060803493 Eh   |
          | TOTAL ENTHALPY           -144.491934962467 Eh   |
          | TOTAL FREE ENERGY        -144.614519031678 Eh   |
          | GRADIENT NORM               0.000052284901 Eh/α |
          | HOMO-LUMO GAP               0.743363860721 eV   |
           -------------------------------------------------

 * finished run on 2025/07/16 at 21:31:00.178
