   * xtb version 6.7.1 (edcfbbe) compiled by 'albert@albert-system' on 2024-07-22

   ID    Z sym.   atoms
    1    7 N      1
    2    6 C      2-47
    3    1 H      48-74

          program call               : xtb data2507/toluene/SBF-AnCN/SBF-AnCN_toluene_S0_finalOpt.xtbopt.xyz --gfn 2 --uhf 2 --gbsa toluene --ohess vtight --parallel 40 --molden --ceasefiles --namespace data2507/toluene/SBF-AnCN/SBF-AnCN_toluene_T1_preOpt
      * Solvation model:               GBSA
        Solvent                        toluene
        Solvent mass                       9.2140E+01 g/mol
          :  Hamiltonian                  GFN2-xTB          :
 * total energy  :  -115.1578551 Eh     change       -0.1878917E-08 Eh
 * total energy  :  -115.1635241 Eh     change       -0.5669053E-02 Eh
 * total energy  :  -115.1649646 Eh     change       -0.1440485E-02 Eh
 * total energy  :  -115.1651673 Eh     change       -0.2027464E-03 Eh
 * total energy  :  -115.1654250 Eh     change       -0.2576654E-03 Eh
 * total energy  :  -115.1656057 Eh     change       -0.1807274E-03 Eh
 * total energy  :  -115.1657806 Eh     change       -0.1748600E-03 Eh
 * total energy  :  -115.1659884 Eh     change       -0.2078412E-03 Eh
 * total energy  :  -115.1661902 Eh     change       -0.2017331E-03 Eh
 * total energy  :  -115.1663675 Eh     change       -0.1773359E-03 Eh
 * total energy  :  -115.1678195 Eh     change       -0.3468763E-06 Eh
 * total energy  :  -115.1678185 Eh     change        0.9785436E-06 Eh
 * total energy  :  -115.1678203 Eh     change       -0.1708308E-05 Eh
 * total energy  :  -115.1678204 Eh     change       -0.1378852E-06 Eh
 * total energy  :  -115.1678207 Eh     change       -0.3307565E-06 Eh
 * total energy  :  -115.1678211 Eh     change       -0.3711690E-06 Eh
 * total energy  :  -115.1678213 Eh     change       -0.2236141E-06 Eh
 * total energy  :  -115.1678214 Eh     change       -0.1156966E-06 Eh
 * total energy  :  -115.1678214 Eh     change       -0.1571225E-07 Eh
   *** GEOMETRY OPTIMIZATION CONVERGED AFTER 52 ITERATIONS ***

 final structure:
================
74
 xtb: 6.7.1 (edcfbbe)
N           10.50600177669401       -1.17065865381873       -0.55297839234019
C            9.38606632734545       -0.93147000982807       -0.43574526867307
C            8.01956768516063       -0.63970791723579       -0.29238742684499
C            7.30899288160679       -0.04293454080520       -1.34342123134782
C            5.97525281510967        0.25199803959339       -1.19350311025048
C            5.29041986679515       -0.05109055461873       -0.00383406495013
C            3.88027060983859        0.25644073691490        0.14860040829807
C            2.96825394290954       -0.75986076502466        0.57756871978109
C            3.37347522867805       -2.08809078137905        0.74856472506687
C            2.51313270028675       -3.05227656525891        1.26346863959119
C            1.23084019398384       -2.69759293026515        1.63181242714906
C            0.78125018258828       -1.40098252352272        1.40780810986331
C            1.59913899541210       -0.43288387307282        0.81393726262191
C            1.10803598852271        0.86676341226601        0.47499967180420
C           -0.29872912549909        1.18124717579415        0.66036888112759
C           -0.69012061653821        2.32193850285256        1.38130601236000
C           -2.01857839402428        2.62301690176753        1.60173411099382
C           -2.99494830031100        1.78071822577208        1.08446527382718
C           -2.61344399250507        0.64299543356432        0.35137683897143
C           -1.29415365705973        0.33614354634117        0.13921946280238
C           -3.83086639864327       -0.12933039336468       -0.09954266347874
C           -3.81967592193194       -1.55686618237663        0.39486945886322
C           -3.75997484516458       -2.01107438242528        1.69445141802196
C           -3.74223851715456       -3.38205003128055        1.91614451458555
C           -3.78465302640069       -4.27333685666498        0.85412552476976
C           -3.84551277698121       -3.81960739619868       -0.45429483215134
C           -3.86241510294846       -2.45315706622422       -0.68300444065751
C           -3.91986023027742       -1.68613871708029       -1.91822207762265
C           -3.98462224446544       -2.08958232907338       -3.24214293473513
C           -4.03612649021990       -1.11883893928874       -4.23029434617438
C           -4.02174199081519        0.22957816008480       -3.90548057611954
C           -3.95543881150500        0.64144361322419       -2.58065381236065
C           -3.90531403402214       -0.32094957653172       -1.59575242766761
C           -4.95305570272728        0.70710546420735        0.46652835547534
C           -6.31047987189915        0.49154074705308        0.37772488026676
C           -7.16718895301836        1.40507615626366        0.97959644634151
C           -6.66821956425406        2.50981203619390        1.65558885328910
C           -5.30402229461303        2.73013074276233        1.74972596436769
C           -4.44160649022611        1.82242793465189        1.15183647063388
C            2.00362712085055        1.85555694668442       -0.03836658278997
C            1.54641746290419        3.09871465093657       -0.48992368031151
C            2.42811518503154        4.10097195498507       -0.87997246975371
C            3.78925851449338        3.87854533533887       -0.82001298098128
C            4.26745680024278        2.62481384743555       -0.45316410715101
C            3.40039813205854        1.57629062886389       -0.12700220509549
C            6.01407324552704       -0.66051022734113        1.03591072220241
C            7.35266382046582       -0.94112968197550        0.90358782043309
H            7.81923788499158        0.17594760651554       -2.27061162358876
H            5.42817919012269        0.68563326852858       -2.01780728168146
H            4.37443902045588       -2.37877263654537        0.46911560506693
H            2.86054038836091       -4.06719725313520        1.38645043798809
H            0.56478610645609       -3.42262685389146        2.07556797043718
H           -0.22234134510680       -1.13968739298261        1.70463348754921
H            0.07688142015940        2.94882347005333        1.81275843682408
H           -2.29136822915333        3.49422107923906        2.17873304876595
H           -1.01613743510861       -0.52420637389879       -0.45243666083399
H           -3.72757240201458       -1.31692601655581        2.52227728225049
H           -3.69579964156097       -3.75801480949620        2.92799982704367
H           -3.77015740338371       -5.33590341882649        1.05050768038288
H           -3.87829949143025       -4.51820201196987       -1.27730535758723
H           -3.99693830281387       -3.13823801961861       -3.50048737568202
H           -4.08848262601893       -1.41554342980452       -5.26809838535878
H           -4.06335629190337        0.96871775051639       -4.69237933940309
H           -3.94524831799158        1.69236165812438       -2.32898776788655
H           -6.70060878740734       -0.36804674119898       -0.14827370242541
H           -8.23509262023616        1.25348770749401        0.91968934450522
H           -7.35481775519897        3.20619930465406        2.11517496914728
H           -4.92043264148118        3.59045353165275        2.27792959191988
H            0.48491298744647        3.28501932300373       -0.54160948809194
H            2.04162193532092        5.05389963968128       -1.20973632682164
H            4.48666756914520        4.66372851306719       -1.07120659785966
H            5.33389898035777        2.46523878669542       -0.41433647588244
H            5.51403525707470       -0.87061831798064        1.96999586055614
H            7.90294169425168       -1.38987627607095        1.71829006909731

          :  Hamiltonian                  GFN2-xTB          :
         :: gradient norm              0.000124507761 Eh/a0 ::
         :: HOMO-LUMO gap              0.843391478988 eV    ::
         :: SCC energy              -117.432354902794 Eh    ::
         :: -> dispersion             -0.111215127250 Eh    ::
         :: -> Gsolv                  -0.050445902778 Eh    ::
         :: repulsion energy           2.264533457386 Eh    ::

    * Orbital Energies and Occupations

         #    Occupation            Energy/Eh            Energy/eV
      -------------------------------------------------------------
         1        2.0000           -0.6657667             -18.1164
       ...           ...                  ...                  ...
        97        2.0000           -0.4154119             -11.3039
        98        2.0000           -0.4150169             -11.2932
        99        2.0000           -0.4131373             -11.2420
       100        2.0000           -0.4063308             -11.0568
       101        2.0000           -0.4061918             -11.0530
       102        2.0000           -0.4050390             -11.0217
       103        2.0000           -0.4019643             -10.9380
       104        2.0000           -0.3978868             -10.8271
       105        2.0000           -0.3969353             -10.8012
       106        2.0000           -0.3856831             -10.4950
       107        2.0000           -0.3804072             -10.3514
       108        1.0000           -0.3555843              -9.6759
       109        1.0000           -0.2975473              -8.0967 (HOMO)
       110                         -0.2665531              -7.2533 (LUMO)
       111                         -0.2557499              -6.9593
       112                         -0.2541242              -6.9151
       113                         -0.2357944              -6.4163
       114                         -0.2334255              -6.3518
       115                         -0.2298146              -6.2536
       116                         -0.2277123              -6.1964
       117                         -0.2276680              -6.1952
       118                         -0.2268482              -6.1729
       119                         -0.2187049              -5.9513
       120                         -0.2061067              -5.6084
       ...                                ...                  ...
       215                          1.1613553              31.6021
      -------------------------------------------------------------
                  HL-Gap            0.0309942 Eh            0.8434 eV

     #   Z          covCN         q      C6AA      α(0)
     1   7 N        0.911    -0.298    27.671     7.608
     2   6 C        1.911     0.113    28.312     8.593
     3   6 C        2.972     0.005    27.900     8.664
     4   6 C        2.921    -0.023    28.570     8.765
     5   6 C        2.921    -0.030    28.756     8.794
     6   6 C        2.972     0.020    27.559     8.611
     7   6 C        2.972    -0.005    28.135     8.701
     8   6 C        2.977     0.009    27.810     8.650
     9   6 C        2.921    -0.035    28.862     8.810
    10   6 C        2.914    -0.031    28.762     8.794
    11   6 C        2.914    -0.028    28.697     8.784
    12   6 C        2.921    -0.035    28.866     8.811
    13   6 C        2.977     0.011    27.775     8.645
    14   6 C        2.972    -0.007    28.201     8.711
    15   6 C        2.975     0.014    27.684     8.631
    16   6 C        2.924    -0.035    28.865     8.811
    17   6 C        2.911    -0.034    28.857     8.809
    18   6 C        3.035     0.001    27.976     8.676
    19   6 C        3.052     0.007    27.821     8.650
    20   6 C        2.917    -0.036    28.895     8.815
    21   6 C        3.977     0.010    20.337     6.407
    22   6 C        3.056     0.005    27.846     8.654
    23   6 C        2.913    -0.034    28.837     8.806
    24   6 C        2.922    -0.032    28.803     8.801
    25   6 C        2.921    -0.033    28.817     8.803
    26   6 C        2.914    -0.034    28.850     8.808
    27   6 C        3.035     0.001    27.978     8.676
    28   6 C        3.036     0.000    27.986     8.677
    29   6 C        2.914    -0.034    28.856     8.809
    30   6 C        2.921    -0.033    28.822     8.804
    31   6 C        2.923    -0.032    28.804     8.801
    32   6 C        2.913    -0.034    28.836     8.806
    33   6 C        3.054     0.005    27.850     8.655
    34   6 C        3.055     0.006    27.822     8.650
    35   6 C        2.913    -0.033    28.822     8.803
    36   6 C        2.922    -0.031    28.780     8.797
    37   6 C        2.920    -0.032    28.807     8.802
    38   6 C        2.914    -0.034    28.851     8.808
    39   6 C        3.035     0.001    27.961     8.673
    40   6 C        2.977     0.010    27.779     8.645
    41   6 C        2.921    -0.035    28.880     8.813
    42   6 C        2.914    -0.028    28.708     8.786
    43   6 C        2.914    -0.031    28.765     8.795
    44   6 C        2.921    -0.035    28.865     8.810
    45   6 C        2.977     0.009    27.809     8.650
    46   6 C        2.921    -0.030    28.754     8.794
    47   6 C        2.921    -0.023    28.571     8.765
    48   1 H        0.926     0.036     2.502     2.474
    49   1 H        0.926     0.044     2.400     2.423
    50   1 H        0.926     0.037     2.484     2.464
    51   1 H        0.926     0.034     2.524     2.484
    52   1 H        0.926     0.035     2.519     2.482
    53   1 H        0.926     0.038     2.469     2.457
    54   1 H        0.926     0.039     2.465     2.455
    55   1 H        0.926     0.038     2.477     2.461
    56   1 H        0.926     0.032     2.552     2.498
    57   1 H        0.926     0.027     2.626     2.534
    58   1 H        0.926     0.033     2.548     2.496
    59   1 H        0.926     0.033     2.545     2.495
    60   1 H        0.926     0.034     2.534     2.489
    61   1 H        0.926     0.034     2.534     2.489
    62   1 H        0.926     0.033     2.547     2.496
    63   1 H        0.926     0.033     2.548     2.496
    64   1 H        0.926     0.028     2.616     2.529
    65   1 H        0.926     0.028     2.613     2.528
    66   1 H        0.926     0.033     2.538     2.491
    67   1 H        0.926     0.034     2.532     2.488
    68   1 H        0.926     0.035     2.510     2.478
    69   1 H        0.926     0.040     2.447     2.446
    70   1 H        0.926     0.036     2.508     2.476
    71   1 H        0.926     0.034     2.526     2.485
    72   1 H        0.926     0.037     2.485     2.465
    73   1 H        0.926     0.044     2.401     2.423
    74   1 H        0.926     0.036     2.502     2.474

molecular dipole:
                 x           y           z       tot (Debye)
 q only:       -2.952       0.612       0.312
   full:       -3.338       0.663       0.339       8.692

 projected vibrational frequencies (cm⁻¹)
eigval :       -0.00    -0.00    -0.00     0.00     0.00     0.00
eigval :       12.86    15.74    20.29    27.58    34.68    44.84
eigval :       48.02    51.00    73.01    76.21    85.18    89.30
eigval :      121.15   123.59   128.06   131.87   136.55   140.58
eigval :      157.92   179.92   182.52   221.68   226.55   233.99
eigval :      237.27   246.01   259.37   271.94   288.02   328.01
eigval :      332.88   342.23   366.07   371.20   387.11   388.74
eigval :      394.69   398.27   410.77   413.89   416.48   429.76
eigval :      440.31   453.49   457.83   470.75   471.90   480.32
eigval :      504.06   510.38   519.12   531.32   535.92   539.32
eigval :      548.97   573.15   582.59   584.51   591.71   595.07
eigval :      595.98   604.30   621.49   634.71   640.14   646.17
eigval :      675.93   683.30   683.67   689.18   692.69   705.71
eigval :      712.84   722.89   738.42   747.37   752.78   759.39
eigval :      761.36   768.96   770.89   784.22   786.02   816.10
eigval :      832.19   850.07   855.49   867.52   872.69   878.48
eigval :      879.90   885.66   888.38   892.69   894.03   897.52
eigval :      903.66   905.08   908.72   911.50   912.55   916.92
eigval :      920.80   924.88   927.03   928.21   928.68   929.58
eigval :      931.45   936.59   945.72   988.40  1007.54  1009.17
eigval :     1014.70  1072.83  1073.59  1074.94  1078.87  1102.27
eigval :     1105.08  1116.25  1122.42  1131.65  1136.30  1142.51
eigval :     1151.64  1165.28  1173.88  1177.10  1178.81  1179.38
eigval :     1180.41  1182.26  1186.91  1194.88  1207.93  1210.42
eigval :     1223.22  1229.65  1234.98  1243.34  1246.96  1253.31
eigval :     1259.41  1260.90  1265.01  1281.11  1284.15  1285.80
eigval :     1301.86  1303.36  1310.95  1321.07  1324.95  1334.17
eigval :     1349.02  1355.61  1364.09  1364.61  1379.32  1407.38
eigval :     1408.88  1416.67  1419.63  1427.79  1428.24  1430.18
eigval :     1441.36  1459.19  1460.31  1465.18  1470.14  1475.26
eigval :     1493.43  1498.88  1526.00  1526.64  1545.05  1546.06
eigval :     1561.85  1573.98  1583.69  1585.99  1594.53  1597.31
eigval :     1600.99  1602.74  2322.36  3068.37  3068.65  3070.27
eigval :     3072.06  3072.63  3073.49  3074.25  3074.90  3076.13
eigval :     3076.35  3076.73  3078.05  3079.36  3080.40  3081.46
eigval :     3084.79  3085.03  3085.82  3087.32  3087.50  3089.14
eigval :     3089.31  3089.87  3095.69  3096.27  3099.34  3100.92

   temp. (K)  partition function   enthalpy   heat capacity  entropy
                                   cal/mol     cal/K/mol   cal/K/mol   J/K/mol
 298.15  VIB  0.241E+16            20780.028    135.123    127.303
         ROT  0.686E+08              888.752      2.981     38.838
         INT  0.165E+24            21668.781    138.104    166.141
         TR   0.140E+29             1481.254      4.968     45.007
         TOT                       23150.0346   143.0725   211.1478   883.4426

       T/K    H(0)-H(T)+PV         H(T)/Eh          T*S/Eh         G(T)/Eh
   ------------------------------------------------------------------------
    298.15    0.368919E-01    0.596827E+00    0.100323E+00    0.496504E+00
   ------------------------------------------------------------------------

         :::::::::::::::::::::::::::::::::::::::::::::::::::::
         ::                  THERMODYNAMIC                  ::
         :::::::::::::::::::::::::::::::::::::::::::::::::::::
         :: total free energy        -114.671317641636 Eh   ::
         ::.................................................::
         :: total energy             -115.167821444746 Eh   ::
         :: zero point energy           0.559935030740 Eh   ::
         :: G(RRHO) w/o ZPVE           -0.063431227630 Eh   ::
         :: G(RRHO) contrib.            0.496503803111 Eh   ::
         :::::::::::::::::::::::::::::::::::::::::::::::::::::

           -------------------------------------------------
          | TOTAL ENERGY             -115.167821444746 Eh   |
          | TOTAL ENTHALPY           -114.570994485609 Eh   |
          | TOTAL FREE ENERGY        -114.671317641636 Eh   |
          | GRADIENT NORM               0.000124409506 Eh/α |
          | HOMO-LUMO GAP               0.843395827928 eV   |
           -------------------------------------------------

 * finished run on 2025/09/12 at 05:17:37.226
