   * xtb version 6.7.1 (edcfbbe) compiled by 'albert@albert-system' on 2024-07-22

   ID    Z sym.   atoms
    1    7 N      1
    2    6 C      2-47
    3    1 H      48-74

          program call               : xtb data2507/toluene/SBF-AnCN/SBF-AnCN_toluene_T1_crest.xyz --gfn 2 --uhf 2 --gbsa toluene --ohess vtight --parallel 40 --molden --ceasefiles --namespace data2507/toluene/SBF-AnCN/SBF-AnCN_toluene_T1_finalOpt
      * Solvation model:               GBSA
        Solvent                        toluene
        Solvent mass                       9.2140E+01 g/mol
          :  Hamiltonian                  GFN2-xTB          :
 * total energy  :  -115.1676328 Eh     change       -0.2275982E-08 Eh
 * total energy  :  -115.1676699 Eh     change       -0.3714110E-04 Eh
 * total energy  :  -115.1676901 Eh     change       -0.2020665E-04 Eh
 * total energy  :  -115.1677027 Eh     change       -0.1255261E-04 Eh
 * total energy  :  -115.1677171 Eh     change       -0.1449109E-04 Eh
 * total energy  :  -115.1677268 Eh     change       -0.9612894E-05 Eh
 * total energy  :  -115.1677334 Eh     change       -0.6662761E-05 Eh
 * total energy  :  -115.1677389 Eh     change       -0.5508941E-05 Eh
 * total energy  :  -115.1677428 Eh     change       -0.3909429E-05 Eh
 * total energy  :  -115.1677471 Eh     change       -0.4235548E-05 Eh
 * total energy  :  -115.1678159 Eh     change       -0.1067421E-05 Eh
 * total energy  :  -115.1678170 Eh     change       -0.1163790E-05 Eh
 * total energy  :  -115.1678182 Eh     change       -0.1224314E-05 Eh
 * total energy  :  -115.1678194 Eh     change       -0.1206090E-05 Eh
 * total energy  :  -115.1678206 Eh     change       -0.1104877E-05 Eh
 * total energy  :  -115.1678215 Eh     change       -0.9445902E-06 Eh
 * total energy  :  -115.1678223 Eh     change       -0.7683991E-06 Eh
 * total energy  :  -115.1678229 Eh     change       -0.5987751E-06 Eh
 * total energy  :  -115.1678229 Eh     change       -0.3050900E-08 Eh
   *** GEOMETRY OPTIMIZATION CONVERGED AFTER 44 ITERATIONS ***

 final structure:
================
74
 xtb: 6.7.1 (edcfbbe)
N           10.48400397573181       -1.26116033580577       -0.54326972880962
C            9.36811334619979       -1.00370693432046       -0.42631457584347
C            8.00649793556975       -0.68990080045103       -0.28323562148632
C            7.29485188264252       -0.12239307151505       -1.34962001078541
C            5.96534586105639        0.19169904278511       -1.20112303964583
C            5.28553268712191       -0.06341318626798        0.00255851273818
C            3.87817472611159        0.25945200311005        0.14994305324676
C            2.96027502475772       -0.73485504834565        0.61617719887810
C            3.35778919526264       -2.05778689756143        0.83875906661547
C            2.49074440506188       -2.99752963772024        1.38646719330677
C            1.20924901555809       -2.62264560115692        1.73688780683626
C            0.76764366432693       -1.33276578999581        1.46368362645128
C            1.59247890114314       -0.39174489260494        0.83680114140814
C            1.10910380071540        0.89733492721614        0.44908271914315
C           -0.29786790947875        1.22148444335469        0.61555304986216
C           -0.69247938286420        2.38554214552513        1.29600114294469
C           -2.02205265207277        2.69104514283391        1.50401321195149
C           -2.99606345032299        1.82888711145435        1.01581901133507
C           -2.61111141520628        0.66839176699361        0.32127324208400
C           -1.29097440771515        0.35799814992894        0.12066912218772
C           -3.82580316856088       -0.12442583225719       -0.10039040212451
C           -3.80511960549986       -1.53313638848697        0.44529477502936
C           -3.74022143611477       -1.93978559835107        1.76025809113189
C           -3.71222829567757       -3.30172826790885        2.03115288782787
C           -3.74877122566213       -4.23102026641705        1.00203960507301
C           -3.81445140943762       -3.82512780719650       -0.32176279703573
C           -3.84245510292340       -2.46799958129772       -0.59949101132348
C           -3.90731428727367       -1.74645842425568       -1.86143878905917
C           -3.97177053615344       -2.19778697845607       -3.16981117259371
C           -4.03191809048551       -1.26369182116672       -4.19218982732187
C           -4.02641856581872        0.09560680440846       -3.91623004111648
C           -3.96047421963779        0.55537288446182       -2.60727028777332
C           -3.90176360052557       -0.37046261874396       -1.58843181540474
C           -4.95054399275186        0.72661366560953        0.43780746394634
C           -6.30714331097321        0.50257454969606        0.35798894855704
C           -7.16701508630691        1.43299201292416        0.92867551815402
C           -6.67184308694274        2.56191530782759        1.56642257078051
C           -5.30845559090550        2.79092513972927        1.65136547684338
C           -4.44287392857701        1.86696703646264        1.08370717617161
C            2.01161592858267        1.86316368167509       -0.09447644061940
C            1.56314194621531        3.09331724531391       -0.58853103143682
C            2.45202555598159        4.07591542279590       -1.01084589534245
C            3.81160114353247        3.84665866028850       -0.94159151981611
C            4.28104904094313        2.60289489081185       -0.53198912541065
C            3.40667166504891        1.57203972462071       -0.17118106429256
C            6.01064670466797       -0.64182808587926        1.05882180254301
C            7.34533411614235       -0.94108880879924        0.92738404958846
H            7.80071658382561        0.05855540875763       -2.28728355648793
H            5.41708124201474        0.60245136471615       -2.03623493357045
H            4.35779578223528       -2.36448602982011        0.57358222042636
H            2.83250333808627       -4.00884364737439        1.54876046760825
H            0.53795858328648       -3.32698723112343        2.20529179486632
H           -0.23530579936990       -1.05529680834952        1.74778708826759
H            0.07241319800416        3.02807478932839        1.70773816613078
H           -2.29734715951611        3.58063257710099        2.05100033967648
H           -1.01015944651286       -0.52128879851039       -0.44107544386851
H           -3.71173581611164       -1.21637036060175        2.56282689067568
H           -3.66178996949919       -3.64057198252391        3.05585535219391
H           -3.72586047594914       -5.28569235013633        1.23647695770178
H           -3.84246085387803       -4.55309835698564       -1.11907317696164
H           -3.97737937270883       -3.25507426274787       -3.39031348127875
H           -4.08428990060049       -1.59793250197387       -5.21848230172098
H           -4.07480243639564        0.80564918717230       -4.72907493607051
H           -3.95725601381011        1.61467498600118       -2.39362122361832
H           -6.69415233204416       -0.37641788225843       -0.13740213320895
H           -8.23436362096289        1.27515559106772        0.87510187617159
H           -7.36079126855456        3.27091682878937        2.00263819591861
H           -4.92790562591047        3.67033585020201        2.14951210931446
H            0.50294619027620        3.28452927708707       -0.64846158180034
H            2.07231471507031        5.01944525016074       -1.37371209134191
H            4.51451148574747        4.61811791824482       -1.21862103504783
H            5.34633700194940        2.43734580176820       -0.48705708416270
H            5.51548106475601       -0.81284985147032        2.00342384811574
H            7.89709615118568       -1.36617439228537        1.75364177297724

          :  Hamiltonian                  GFN2-xTB          :
         :: gradient norm              0.000052109210 Eh/a0 ::
         :: HOMO-LUMO gap              0.843012016036 eV    ::
         :: SCC energy              -117.432503556354 Eh    ::
         :: -> dispersion             -0.111267381184 Eh    ::
         :: -> Gsolv                  -0.050430966796 Eh    ::
         :: repulsion energy           2.264680687858 Eh    ::

    * Orbital Energies and Occupations

         #    Occupation            Energy/Eh            Energy/eV
      -------------------------------------------------------------
         1        2.0000           -0.6657743             -18.1166
       ...           ...                  ...                  ...
        97        2.0000           -0.4154180             -11.3041
        98        2.0000           -0.4150030             -11.2928
        99        2.0000           -0.4131291             -11.2418
       100        2.0000           -0.4063439             -11.0572
       101        2.0000           -0.4062038             -11.0534
       102        2.0000           -0.4050454             -11.0218
       103        2.0000           -0.4019602             -10.9379
       104        2.0000           -0.3978902             -10.8271
       105        2.0000           -0.3969286             -10.8010
       106        2.0000           -0.3856808             -10.4949
       107        2.0000           -0.3804082             -10.3514
       108        1.0000           -0.3555942              -9.6762
       109        1.0000           -0.2975336              -8.0963 (HOMO)
       110                         -0.2665535              -7.2533 (LUMO)
       111                         -0.2557570              -6.9595
       112                         -0.2541215              -6.9150
       113                         -0.2357981              -6.4164
       114                         -0.2334074              -6.3513
       115                         -0.2298212              -6.2538
       116                         -0.2277092              -6.1963
       117                         -0.2276643              -6.1951
       118                         -0.2268376              -6.1726
       119                         -0.2187028              -5.9512
       120                         -0.2061055              -5.6084
       ...                                ...                  ...
       215                          1.1614457              31.6045
      -------------------------------------------------------------
                  HL-Gap            0.0309801 Eh            0.8430 eV

     #   Z          covCN         q      C6AA      α(0)
     1   7 N        0.911    -0.298    27.671     7.608
     2   6 C        1.911     0.113    28.311     8.593
     3   6 C        2.972     0.005    27.900     8.664
     4   6 C        2.921    -0.023    28.571     8.765
     5   6 C        2.921    -0.030    28.755     8.794
     6   6 C        2.972     0.020    27.558     8.611
     7   6 C        2.972    -0.005    28.136     8.701
     8   6 C        2.977     0.009    27.810     8.650
     9   6 C        2.921    -0.035    28.864     8.810
    10   6 C        2.914    -0.031    28.761     8.794
    11   6 C        2.914    -0.028    28.696     8.784
    12   6 C        2.921    -0.035    28.865     8.811
    13   6 C        2.977     0.011    27.776     8.645
    14   6 C        2.972    -0.007    28.201     8.711
    15   6 C        2.975     0.014    27.685     8.631
    16   6 C        2.924    -0.035    28.866     8.811
    17   6 C        2.911    -0.034    28.856     8.809
    18   6 C        3.035     0.001    27.976     8.676
    19   6 C        3.052     0.007    27.821     8.650
    20   6 C        2.917    -0.036    28.894     8.815
    21   6 C        3.977     0.010    20.337     6.407
    22   6 C        3.056     0.005    27.845     8.654
    23   6 C        2.913    -0.034    28.837     8.806
    24   6 C        2.922    -0.032    28.803     8.801
    25   6 C        2.921    -0.033    28.817     8.803
    26   6 C        2.914    -0.034    28.850     8.808
    27   6 C        3.035     0.001    27.978     8.676
    28   6 C        3.036     0.000    27.986     8.677
    29   6 C        2.914    -0.034    28.856     8.809
    30   6 C        2.921    -0.033    28.822     8.804
    31   6 C        2.923    -0.032    28.804     8.801
    32   6 C        2.913    -0.034    28.836     8.806
    33   6 C        3.054     0.005    27.850     8.655
    34   6 C        3.055     0.006    27.823     8.650
    35   6 C        2.913    -0.033    28.822     8.803
    36   6 C        2.922    -0.031    28.780     8.797
    37   6 C        2.920    -0.032    28.807     8.802
    38   6 C        2.914    -0.034    28.851     8.808
    39   6 C        3.035     0.001    27.961     8.673
    40   6 C        2.977     0.010    27.778     8.645
    41   6 C        2.921    -0.035    28.882     8.813
    42   6 C        2.914    -0.028    28.707     8.786
    43   6 C        2.914    -0.031    28.765     8.795
    44   6 C        2.921    -0.035    28.864     8.810
    45   6 C        2.977     0.009    27.809     8.650
    46   6 C        2.921    -0.030    28.755     8.794
    47   6 C        2.921    -0.023    28.571     8.765
    48   1 H        0.926     0.036     2.502     2.474
    49   1 H        0.926     0.044     2.401     2.423
    50   1 H        0.926     0.038     2.482     2.464
    51   1 H        0.926     0.034     2.524     2.484
    52   1 H        0.926     0.035     2.519     2.482
    53   1 H        0.926     0.038     2.470     2.458
    54   1 H        0.926     0.039     2.464     2.455
    55   1 H        0.926     0.038     2.477     2.461
    56   1 H        0.926     0.032     2.553     2.499
    57   1 H        0.926     0.027     2.627     2.535
    58   1 H        0.926     0.033     2.548     2.496
    59   1 H        0.926     0.033     2.545     2.495
    60   1 H        0.926     0.034     2.534     2.490
    61   1 H        0.926     0.034     2.534     2.489
    62   1 H        0.926     0.033     2.547     2.496
    63   1 H        0.926     0.033     2.548     2.496
    64   1 H        0.926     0.028     2.615     2.529
    65   1 H        0.926     0.028     2.613     2.528
    66   1 H        0.926     0.033     2.538     2.492
    67   1 H        0.926     0.034     2.532     2.488
    68   1 H        0.926     0.035     2.511     2.478
    69   1 H        0.926     0.040     2.447     2.446
    70   1 H        0.926     0.036     2.508     2.476
    71   1 H        0.926     0.034     2.526     2.486
    72   1 H        0.926     0.037     2.486     2.466
    73   1 H        0.926     0.044     2.400     2.423
    74   1 H        0.926     0.036     2.502     2.474

molecular dipole:
                 x           y           z       tot (Debye)
 q only:       -2.942       0.648       0.306
   full:       -3.327       0.703       0.333       8.685

 projected vibrational frequencies (cm⁻¹)
eigval :       -0.00    -0.00    -0.00     0.00     0.00     0.00
eigval :       10.82    14.88    19.23    25.78    34.69    44.66
eigval :       49.96    52.10    69.65    76.44    85.59    89.88
eigval :      121.73   124.03   128.33   131.83   136.01   140.68
eigval :      158.54   180.02   183.08   222.17   226.97   234.13
eigval :      237.37   246.45   259.63   271.90   288.41   328.31
eigval :      333.60   342.38   367.03   369.85   387.40   388.42
eigval :      394.80   398.53   410.76   413.91   417.40   429.89
eigval :      439.61   453.11   457.96   471.04   472.34   480.98
eigval :      504.24   510.30   518.64   530.97   535.91   538.90
eigval :      548.86   573.63   582.65   584.45   591.91   595.12
eigval :      595.95   604.27   621.65   634.83   640.13   646.34
eigval :      676.55   683.25   683.61   689.25   692.70   706.08
eigval :      712.95   723.44   738.82   749.15   752.79   759.38
eigval :      762.43   768.91   774.17   784.16   786.15   813.94
eigval :      831.71   848.64   854.91   866.01   877.94   878.92
eigval :      879.18   885.38   887.80   893.60   894.80   897.69
eigval :      905.39   907.21   911.09   912.05   912.94   917.78
eigval :      920.88   925.88   927.07   927.24   928.75   930.04
eigval :      931.57   933.98   945.92   988.50  1007.56  1008.80
eigval :     1014.70  1073.02  1073.29  1075.36  1078.53  1102.29
eigval :     1105.24  1116.16  1122.45  1132.05  1134.13  1143.13
eigval :     1151.86  1165.48  1173.98  1176.92  1178.09  1179.34
eigval :     1180.51  1181.75  1187.04  1194.63  1208.14  1210.52
eigval :     1223.32  1230.31  1235.01  1242.65  1247.27  1253.52
eigval :     1259.82  1261.23  1263.37  1281.23  1284.27  1285.84
eigval :     1301.94  1303.07  1310.88  1321.11  1325.16  1334.02
eigval :     1349.14  1355.74  1364.24  1364.78  1379.24  1406.99
eigval :     1408.73  1416.84  1419.70  1427.68  1428.30  1430.31
eigval :     1441.43  1458.51  1460.89  1465.22  1470.49  1475.35
eigval :     1493.52  1498.83  1526.04  1526.83  1545.04  1546.13
eigval :     1561.80  1574.18  1583.91  1586.07  1594.69  1597.44
eigval :     1601.10  1602.79  2322.40  3068.03  3069.35  3070.39
eigval :     3071.53  3073.04  3073.89  3074.55  3074.86  3076.38
eigval :     3076.63  3077.29  3078.51  3079.54  3080.61  3081.94
eigval :     3085.05  3085.85  3085.97  3087.33  3087.65  3089.18
eigval :     3089.44  3090.09  3096.37  3096.75  3099.73  3101.74

   temp. (K)  partition function   enthalpy   heat capacity  entropy
                                   cal/mol     cal/K/mol   cal/K/mol   J/K/mol
 298.15  VIB  0.324E+16            20779.015    135.098    127.561
         ROT  0.685E+08              888.752      2.981     38.835
         INT  0.222E+24            21667.767    138.079    166.396
         TR   0.140E+29             1481.254      4.968     45.007
         TOT                       23149.0210   143.0467   211.4033   884.5115

       T/K    H(0)-H(T)+PV         H(T)/Eh          T*S/Eh         G(T)/Eh
   ------------------------------------------------------------------------
    298.15    0.368903E-01    0.596879E+00    0.100445E+00    0.496434E+00
   ------------------------------------------------------------------------

         :::::::::::::::::::::::::::::::::::::::::::::::::::::
         ::                  THERMODYNAMIC                  ::
         :::::::::::::::::::::::::::::::::::::::::::::::::::::
         :: total free energy        -114.671388404133 Eh   ::
         ::.................................................::
         :: total energy             -115.167822868777 Eh   ::
         :: zero point energy           0.559988691633 Eh   ::
         :: G(RRHO) w/o ZPVE           -0.063554226988 Eh   ::
         :: G(RRHO) contrib.            0.496434464645 Eh   ::
         :::::::::::::::::::::::::::::::::::::::::::::::::::::

           -------------------------------------------------
          | TOTAL ENERGY             -115.167822868777 Eh   |
          | TOTAL ENTHALPY           -114.570943863937 Eh   |
          | TOTAL FREE ENERGY        -114.671388404133 Eh   |
          | GRADIENT NORM               0.000052083440 Eh/α |
          | HOMO-LUMO GAP               0.843012295703 eV   |
           -------------------------------------------------

 * finished run on 2025/09/12 at 05:21:09.421
