   * xtb version 6.7.1 (edcfbbe) compiled by 'albert@albert-system' on 2024-07-22

   ID    Z sym.   atoms
    1    7 N      1
    2    6 C      2-47
    3    1 H      48-74

          program call               : xtb data2507/toluene/SBF-AnCN/SBF-AnCN.xyz --gfn 2 --gbsa toluene --ohess vtight --parallel 40 --molden --ceasefiles --namespace data2507/toluene/SBF-AnCN/SBF-AnCN_toluene_S0_preOpt
      * Solvation model:               GBSA
        Solvent                        toluene
        Solvent mass                       9.2140E+01 g/mol
          :  Hamiltonian                  GFN2-xTB          :
 * total energy  :  -115.2176388 Eh     change       -0.1855838E-08 Eh
 * total energy  :  -115.2304143 Eh     change       -0.1277555E-01 Eh
 * total energy  :  -115.2331741 Eh     change       -0.2759786E-02 Eh
 * total energy  :  -115.2334973 Eh     change       -0.3231467E-03 Eh
 * total energy  :  -115.2336334 Eh     change       -0.1361243E-03 Eh
 * total energy  :  -115.2336499 Eh     change       -0.1649605E-04 Eh
 * total energy  :  -115.2335766 Eh     change        0.7326319E-04 Eh
 * total energy  :  -115.2336581 Eh     change       -0.8146390E-04 Eh
 * total energy  :  -115.2336712 Eh     change       -0.1313531E-04 Eh
 * total energy  :  -115.2336727 Eh     change       -0.1514222E-05 Eh
 * total energy  :  -115.2336748 Eh     change       -0.2061821E-05 Eh
 * total energy  :  -115.2336757 Eh     change       -0.9386167E-06 Eh
 * total energy  :  -115.2336765 Eh     change       -0.7853743E-06 Eh
 * total energy  :  -115.2336771 Eh     change       -0.5729325E-06 Eh
 * total energy  :  -115.2336771 Eh     change       -0.4485240E-07 Eh
 * total energy  :  -115.2336767 Eh     change        0.4796295E-06 Eh
 * total energy  :  -115.2336773 Eh     change       -0.6418339E-06 Eh
 * total energy  :  -115.2336774 Eh     change       -0.7771398E-07 Eh
   *** GEOMETRY OPTIMIZATION CONVERGED AFTER 18 ITERATIONS ***

 final structure:
================
74
 xtb: 6.7.1 (edcfbbe)
N           10.71447115959176       -0.00117043251644       -1.38529947171006
C            9.60096748085576       -0.00084565307551       -1.10487460690372
C            8.23209277980236       -0.00053605222027       -0.76010583243454
C            7.25980087787142       -0.00049779469755       -1.76288634527589
C            5.92324880895876       -0.00021136305567       -1.41884131016383
C            5.53443062755410        0.00004019961874       -0.08081450860863
C            4.09650642405138        0.00026268888214        0.27695198492948
C            3.42193821297938       -1.21624003956460        0.44072331565344
C            4.07950275526144       -2.46497535402423        0.28066080094548
C            3.40947479063847       -3.63871221596424        0.44055863521938
C            2.03788487640250       -3.63767201192243        0.76893522156159
C            1.37205665593827       -2.46256971704231        0.93539426064437
C            2.03350542044425       -1.21526191173461        0.78191274828836
C            1.35991803489450        0.00063293180477        0.95424277024511
C           -0.07228156291679        0.00074478500889        1.33511159093081
C           -0.42913840467154        0.00071666244165        2.68171057067841
C           -1.75733119304878        0.00043803910963        3.07314524788035
C           -2.73941197382911        0.00016225464450        2.09585628252081
C           -2.38089825437763        0.00034979298184        0.73949649327819
C           -1.06027605547446        0.00064630343419        0.35106267772567
C           -3.61087339013034       -0.00007521883159       -0.13599256121699
C           -3.67191354689428       -1.17220594624073       -1.08684404704137
C           -3.65028551578477       -2.51761925109538       -0.78990589758191
C           -3.72299024729859       -3.42794731725279       -1.83634079808714
C           -3.81467308001265       -2.99343474392253       -3.15039996401998
C           -3.83600791747870       -1.64093192846778       -3.45287347840007
C           -3.76349069188198       -0.72712504916597       -2.41387569404059
C           -3.76432632218757        0.72789292033169       -2.41353112412799
C           -3.83793414784002        1.64210422202827       -3.45209839253931
C           -3.81816524021886        2.99448918206401       -3.14899095196971
C           -3.72695853192321        3.42848811856923       -1.83473017201918
C           -3.65318886784696        2.51775245595354       -0.78872267180385
C           -3.67321719073624        1.17245418931175       -1.08629235016544
C           -4.71963344694814       -0.00084050960088        0.89025380120445
C           -6.08117451997823       -0.00176318721475        0.67890150473199
C           -6.92236987039582       -0.00236084687105        1.78410699355543
C           -6.40488970814139       -0.00202953985004        3.07106324860530
C           -5.03592118314878       -0.00113302309474        3.28767660499030
C           -4.19079955412238       -0.00055943844574        2.18973198994811
C            2.03385703307295        1.21633821090303        0.78201907246769
C            1.37275474161327        2.46381695565521        0.93559517999473
C            2.03891150352545        3.63874253168088        0.76920522216566
C            3.41049468663550        3.63941657522835        0.44079027497725
C            4.08019616211290        2.46550476094188        0.28080586145259
C            3.42228984987091        1.21694358800339        0.44081858132810
C            6.51007571172104        0.00001821922090        0.91364359599484
C            7.85031924084658       -0.00026717289428        0.58340569094228
H            7.56157087937796       -0.00069723747093       -2.80018402125264
H            5.16759864437357       -0.00019964137961       -2.19048036805292
H            5.12984767067750       -2.46630179236791        0.02728514685405
H            3.92240347796857       -4.58137597142177        0.31598391623656
H            1.52235499063679       -4.57963574822916        0.88713864295378
H            0.32134131624862       -2.45781541951069        1.18635275797596
H            0.35187485646192        0.00083569420910        3.42880058691497
H           -2.01842161245263        0.00034806068009        4.12103340370520
H           -0.78659705426041        0.00069374808888       -0.69464524186422
H           -3.58058903760642       -2.85755711137205        0.23347494347714
H           -3.70839098280566       -4.48710409491840       -1.62367963511846
H           -3.87100623716576       -3.71981994453709       -3.94850035268238
H           -3.90804065507733       -1.30791877538326       -4.47779168771342
H           -3.90962177341602        1.30948876737130       -4.47716997784510
H           -3.87537698787315        3.72118715290156       -3.94674433114995
H           -3.71360591399817        4.48756064201645       -1.62156691749428
H           -3.58388731471331        2.85730463640127        0.23481074057937
H           -6.48537513535982       -0.00203317336964       -0.32336128211413
H           -7.99288861026219       -0.00309454531590        1.63889289347823
H           -7.07932418882327       -0.00250511564814        3.91534601554214
H           -4.63817329098167       -0.00092582941562        4.29182868971499
H            0.32203709313207        2.45932351416082        1.18655727624505
H            1.52365624609104        4.58084499569319        0.88749711800037
H            3.92368624315137        4.58194646204344        0.31628078492823
H            5.13053525018525        2.46654962765826        0.02740093908095
H            6.21026027728383        0.00021554315976        1.95126246676848
H            8.60758443185160       -0.00028731309646        1.35382044808104

          :  Hamiltonian                  GFN2-xTB          :
         :: gradient norm              0.000042884222 Eh/a0 ::
         :: HOMO-LUMO gap              2.192862695433 eV    ::
         :: SCC energy              -117.519417075304 Eh    ::
         :: -> dispersion             -0.110101380831 Eh    ::
         :: -> Gsolv                  -0.050231168424 Eh    ::
         :: repulsion energy           2.285739688281 Eh    ::

    * Orbital Energies and Occupations

         #    Occupation            Energy/Eh            Energy/eV
      -------------------------------------------------------------
         1        2.0000           -0.6698188             -18.2267
       ...           ...                  ...                  ...
        96        2.0000           -0.4202055             -11.4344
        97        2.0000           -0.4142853             -11.2733
        98        2.0000           -0.4130331             -11.2392
        99        2.0000           -0.4098102             -11.1515
       100        2.0000           -0.4091353             -11.1331
       101        2.0000           -0.4078512             -11.0982
       102        2.0000           -0.4026652             -10.9571
       103        2.0000           -0.4020177             -10.9395
       104        2.0000           -0.3968771             -10.7996
       105        2.0000           -0.3961802             -10.7806
       106        2.0000           -0.3835361             -10.4365
       107        2.0000           -0.3780249             -10.2866
       108        2.0000           -0.3632062              -9.8833 (HOMO)
       109                         -0.2826200              -7.6905 (LUMO)
       110                         -0.2751211              -7.4864
       111                         -0.2539791              -6.9111
       112                         -0.2533646              -6.8944
       113                         -0.2430880              -6.6148
       114                         -0.2344518              -6.3798
       115                         -0.2279370              -6.2025
       116                         -0.2268098              -6.1718
       117                         -0.2265708              -6.1653
       118                         -0.2235034              -6.0818
       119                         -0.2177921              -5.9264
       ...                                ...                  ...
       215                          1.1581944              31.5161
      -------------------------------------------------------------
                  HL-Gap            0.0805862 Eh            2.1929 eV

     #   Z          covCN         q      C6AA      α(0)
     1   7 N        0.911    -0.275    27.113     7.531
     2   6 C        1.912     0.118    28.187     8.574
     3   6 C        2.973     0.014    27.701     8.633
     4   6 C        2.924    -0.018    28.468     8.750
     5   6 C        2.923    -0.027    28.669     8.781
     6   6 C        2.977     0.030    27.323     8.574
     7   6 C        2.978    -0.008    28.222     8.714
     8   6 C        2.984     0.007    27.855     8.658
     9   6 C        2.917    -0.035    28.872     8.811
    10   6 C        2.914    -0.029    28.732     8.790
    11   6 C        2.914    -0.030    28.744     8.791
    12   6 C        2.917    -0.033    28.812     8.802
    13   6 C        2.984     0.007    27.867     8.659
    14   6 C        2.978    -0.003    28.094     8.694
    15   6 C        2.980     0.014    27.702     8.634
    16   6 C        2.925    -0.036    28.896     8.815
    17   6 C        2.913    -0.035    28.866     8.810
    18   6 C        3.036    -0.002    28.039     8.685
    19   6 C        3.054     0.006    27.838     8.653
    20   6 C        2.917    -0.036    28.901     8.816
    21   6 C        3.978     0.010    20.337     6.407
    22   6 C        3.055     0.006    27.844     8.654
    23   6 C        2.914    -0.034    28.835     8.805
    24   6 C        2.922    -0.032    28.807     8.802
    25   6 C        2.921    -0.033    28.826     8.805
    26   6 C        2.914    -0.035    28.860     8.809
    27   6 C        3.035     0.000    27.988     8.677
    28   6 C        3.035     0.000    27.988     8.677
    29   6 C        2.914    -0.035    28.860     8.809
    30   6 C        2.921    -0.033    28.826     8.805
    31   6 C        2.922    -0.032    28.807     8.802
    32   6 C        2.914    -0.034    28.835     8.805
    33   6 C        3.055     0.006    27.843     8.654
    34   6 C        3.056     0.005    27.846     8.654
    35   6 C        2.913    -0.034    28.835     8.805
    36   6 C        2.923    -0.032    28.808     8.802
    37   6 C        2.921    -0.033    28.827     8.805
    38   6 C        2.914    -0.035    28.866     8.810
    39   6 C        3.035     0.000    27.986     8.677
    40   6 C        2.984     0.007    27.867     8.659
    41   6 C        2.917    -0.033    28.812     8.802
    42   6 C        2.914    -0.030    28.744     8.791
    43   6 C        2.914    -0.029    28.732     8.790
    44   6 C        2.917    -0.035    28.872     8.811
    45   6 C        2.984     0.007    27.855     8.658
    46   6 C        2.922    -0.027    28.670     8.781
    47   6 C        2.924    -0.018    28.469     8.750
    48   1 H        0.926     0.044     2.400     2.423
    49   1 H        0.926     0.046     2.370     2.407
    50   1 H        0.926     0.029     2.594     2.519
    51   1 H        0.926     0.032     2.554     2.499
    52   1 H        0.926     0.032     2.554     2.499
    53   1 H        0.926     0.032     2.557     2.500
    54   1 H        0.926     0.032     2.558     2.501
    55   1 H        0.926     0.035     2.510     2.477
    56   1 H        0.926     0.026     2.640     2.541
    57   1 H        0.926     0.027     2.628     2.535
    58   1 H        0.926     0.033     2.550     2.497
    59   1 H        0.926     0.033     2.548     2.496
    60   1 H        0.926     0.034     2.537     2.491
    61   1 H        0.926     0.034     2.537     2.491
    62   1 H        0.926     0.033     2.548     2.496
    63   1 H        0.926     0.033     2.550     2.497
    64   1 H        0.926     0.027     2.628     2.535
    65   1 H        0.926     0.027     2.632     2.537
    66   1 H        0.926     0.032     2.555     2.499
    67   1 H        0.926     0.033     2.547     2.495
    68   1 H        0.926     0.034     2.530     2.487
    69   1 H        0.926     0.032     2.557     2.500
    70   1 H        0.926     0.032     2.554     2.499
    71   1 H        0.926     0.032     2.554     2.499
    72   1 H        0.926     0.029     2.594     2.519
    73   1 H        0.926     0.047     2.364     2.404
    74   1 H        0.926     0.044     2.399     2.422

molecular dipole:
                 x           y           z       tot (Debye)
 q only:       -1.757       0.000       0.442
   full:       -2.148       0.000       0.514       5.614

 projected vibrational frequencies (cm⁻¹)
eigval :       -0.00    -0.00     0.00     0.00     0.00     0.00
eigval :      -23.69   -16.66     7.08    12.88    30.72    31.70
eigval :       36.84    44.64    55.21    64.89    76.54    82.89
eigval :       96.69   114.58   121.63   123.32   132.77   138.92
eigval :      141.01   178.02   183.15   204.07   211.49   223.20
eigval :      229.02   232.11   253.06   257.68   283.33   328.74
eigval :      332.93   342.33   362.16   379.58   388.30   391.77
eigval :      394.66   409.37   413.93   414.59   432.43   437.67
eigval :      446.16   454.47   455.23   460.44   471.31   482.29
eigval :      504.49   510.48   517.62   533.50   534.73   540.65
eigval :      555.69   579.28   583.87   586.72   595.06   598.33
eigval :      600.80   607.42   630.02   642.54   642.78   651.05
eigval :      681.90   687.43   687.81   692.39   696.80   708.59
eigval :      713.41   737.11   740.44   753.25   762.57   768.58
eigval :      771.27   771.56   774.21   786.11   790.27   813.80
eigval :      826.47   870.28   870.98   872.65   877.31   877.65
eigval :      877.81   885.62   887.19   897.12   900.14   909.33
eigval :      909.69   910.90   914.03   915.31   915.66   917.57
eigval :      924.11   926.39   926.44   926.67   928.22   928.64
eigval :      929.00   931.81   932.37   994.45  1007.78  1011.64
eigval :     1019.93  1073.14  1074.32  1075.63  1077.06  1078.01
eigval :     1079.57  1129.84  1131.59  1133.50  1135.92  1143.67
eigval :     1148.48  1166.73  1175.08  1176.71  1178.25  1179.96
eigval :     1181.48  1183.33  1190.53  1204.87  1208.18  1216.04
eigval :     1222.70  1225.70  1237.82  1242.90  1250.16  1257.40
eigval :     1258.30  1260.63  1261.31  1262.57  1281.14  1285.54
eigval :     1303.95  1316.68  1325.26  1327.84  1348.12  1356.77
eigval :     1364.82  1372.75  1383.90  1389.94  1415.71  1418.24
eigval :     1427.62  1427.75  1430.54  1433.63  1443.84  1452.77
eigval :     1460.76  1467.29  1470.20  1482.81  1493.11  1525.01
eigval :     1531.45  1542.47  1545.03  1573.28  1584.13  1586.44
eigval :     1591.86  1594.65  1597.02  1602.50  1602.61  1603.11
eigval :     1606.53  1621.22  2361.43  3068.93  3069.03  3069.40
eigval :     3069.93  3069.96  3071.32  3072.71  3073.83  3074.38
eigval :     3074.60  3074.63  3076.82  3080.01  3080.09  3080.50
eigval :     3081.26  3081.85  3082.90  3083.21  3084.71  3087.90
eigval :     3088.61  3089.59  3089.97  3091.15  3091.77  3093.74

   temp. (K)  partition function   enthalpy   heat capacity  entropy
                                   cal/mol     cal/K/mol   cal/K/mol   J/K/mol
 298.15  VIB  0.510E+16            20425.407    132.450    126.098
         ROT  0.689E+08              888.752      2.981     38.848
         INT  0.352E+24            21314.160    135.431    164.947
         TR   0.140E+29             1481.254      4.968     45.007
         TOT                       22795.4135   140.3990   209.9536   878.4459

       T/K    H(0)-H(T)+PV         H(T)/Eh          T*S/Eh         G(T)/Eh
   ------------------------------------------------------------------------
    298.15    0.363268E-01    0.597854E+00    0.997557E-01    0.498099E+00
   ------------------------------------------------------------------------

         :::::::::::::::::::::::::::::::::::::::::::::::::::::
         ::                  THERMODYNAMIC                  ::
         :::::::::::::::::::::::::::::::::::::::::::::::::::::
         :: total free energy        -114.735578772008 Eh   ::
         ::.................................................::
         :: total energy             -115.233677383025 Eh   ::
         :: zero point energy           0.561527540185 Eh   ::
         :: G(RRHO) w/o ZPVE           -0.063428929169 Eh   ::
         :: G(RRHO) contrib.            0.498098611016 Eh   ::
         :::::::::::::::::::::::::::::::::::::::::::::::::::::

           -------------------------------------------------
          | TOTAL ENERGY             -115.233677383025 Eh   |
          | TOTAL ENTHALPY           -114.635823039131 Eh   |
          | TOTAL FREE ENERGY        -114.735578772008 Eh   |
          | GRADIENT NORM               0.000042881756 Eh/α |
          | HOMO-LUMO GAP               2.192862749911 eV   |
           -------------------------------------------------

 * finished run on 2025/09/12 at 05:13:17.859
