   * xtb version 6.7.1 (edcfbbe) compiled by 'albert@albert-system' on 2024-07-22

   ID    Z sym.   atoms
    1    7 N      1
    2    6 C      2-47
    3    1 H      48-74

          program call               : xtb data2507/toluene/SBF-AnCN/SBF-AnCN_toluene_S0_crest.xyz --gfn 2 --gbsa toluene --ohess vtight --parallel 40 --molden --ceasefiles --namespace data2507/toluene/SBF-AnCN/SBF-AnCN_toluene_S0_finalOpt
      * Solvation model:               GBSA
        Solvent                        toluene
        Solvent mass                       9.2140E+01 g/mol
          :  Hamiltonian                  GFN2-xTB          :
 * total energy  :  -115.2340097 Eh     change       -0.1061920E-08 Eh
 * total energy  :  -115.2340363 Eh     change       -0.2664514E-04 Eh
 * total energy  :  -115.2340464 Eh     change       -0.1007243E-04 Eh
 * total energy  :  -115.2340479 Eh     change       -0.1579254E-05 Eh
 * total energy  :  -115.2340559 Eh     change       -0.7951444E-05 Eh
 * total energy  :  -115.2340590 Eh     change       -0.3106403E-05 Eh
 * total energy  :  -115.2340635 Eh     change       -0.4469697E-05 Eh
 * total energy  :  -115.2340659 Eh     change       -0.2446788E-05 Eh
 * total energy  :  -115.2340680 Eh     change       -0.2027086E-05 Eh
 * total energy  :  -115.2340702 Eh     change       -0.2278734E-05 Eh
 * total energy  :  -115.2340782 Eh     change       -0.1529086E-05 Eh
 * total energy  :  -115.2340795 Eh     change       -0.1254952E-05 Eh
 * total energy  :  -115.2340805 Eh     change       -0.1008648E-05 Eh
 * total energy  :  -115.2340813 Eh     change       -0.8288492E-06 Eh
 * total energy  :  -115.2340821 Eh     change       -0.7534156E-06 Eh
 * total energy  :  -115.2340828 Eh     change       -0.7058586E-06 Eh
 * total energy  :  -115.2340835 Eh     change       -0.7384996E-06 Eh
 * total energy  :  -115.2340843 Eh     change       -0.8152391E-06 Eh
 * total energy  :  -115.2340844 Eh     change       -0.7107843E-08 Eh
   *** GEOMETRY OPTIMIZATION CONVERGED AFTER 22 ITERATIONS ***

 final structure:
================
74
 xtb: 6.7.1 (edcfbbe)
N           10.49608659835908       -1.11777876072233       -0.69931178929928
C            9.38096752641615       -0.88777536526840       -0.54997456522400
C            8.01039127849791       -0.60617459544489       -0.36550106458695
C            7.15046384795726       -0.56771466194220       -1.46566095237334
C            5.81157794396103       -0.29151393865969       -1.27778481823815
C            5.30634179534278       -0.05479658789136       -0.00004619585133
C            3.86951338161461        0.23378345892391        0.19613922720402
C            3.04480291556880       -0.72514873182608        0.80191947147135
C            3.54161379745983       -1.99564181906352        1.19784377696422
C            2.73807301424024       -2.91113773613114        1.80488675383179
C            1.38678419888534       -2.60720673290585        2.06515034554316
C            0.86775319738937       -1.40768381699516        1.68542442526012
C            1.66087787161731       -0.43666985062793        1.01807634487755
C            1.12765000317782        0.78868411611911        0.58796953834086
C           -0.30269187986630        1.08342476217979        0.81161780186731
C           -0.67882787459885        2.10743348648528        1.68051698567285
C           -2.01130692769391        2.39194565653114        1.92597849821454
C           -2.98300016451400        1.63465654222292        1.29124316231384
C           -2.60731052826864        0.60454890261159        0.41625434354137
C           -1.28322087207631        0.32486572431718        0.16929952113967
C           -3.82590586057144       -0.09925186680018       -0.13193980451047
C           -3.83562599834498       -1.57405300028525        0.19797499193149
C           -3.79499687861759       -2.17377624678877        1.43791093229970
C           -3.80099883792205       -3.56112008051803        1.50264946047708
C           -3.84839154215325       -4.32549134253649        0.34620052684839
C           -3.89172736696944       -3.72531118120971       -0.90244355567482
C           -3.88477015878297       -2.34166622664641       -0.97466917164690
C           -3.92336308350653       -1.43905449039690       -2.11520958336974
C           -3.98676218400744       -1.68962250130392       -3.47637376618047
C           -4.01909495917695       -0.61306854830414       -4.34882952378248
C           -3.98754402950823        0.68967055392399       -3.87370395248106
C           -3.92272951703113        0.94834843252733       -2.51058899061491
C           -3.89163954119233       -0.11943625724349       -1.64008031548950
C           -4.94734070268302        0.67231008411557        0.52188955875820
C           -6.30602601009136        0.48476305908395        0.38993236792753
C           -7.16132689920360        1.31912217081181        1.09812866449540
C           -6.66033050054954        2.31720916794080        1.92091261800437
C           -5.29437493434714        2.50866433600729        2.05682915610631
C           -4.43509533947834        1.68062184382155        1.35257059695310
C            1.94825643486889        1.73371506297864       -0.04655827930766
C            1.43222940649898        2.96043509767003       -0.54258257623847
C            2.24306214596418        3.88516013009468       -1.12558101023708
C            3.62630004553362        3.64247088875947       -1.24600903115126
C            4.15595712308692        2.46557261007921       -0.81400830505642
C            3.34110378925350        1.46258351460728       -0.22438164111994
C            6.17180065663878       -0.09615118013613        1.09229467074281
C            7.51367183633426       -0.36611382876638        0.91789488598548
H            7.54064413373566       -0.75533479205863       -2.45545415102557
H            5.14239722935074       -0.26301112948771       -2.12512903559925
H            4.57837885560618       -2.22887319759433        1.00494867100419
H            3.13115041364066       -3.87407241523003        2.09718420469445
H            0.76595699176657       -3.33550832737204        2.56632525918811
H           -0.16720362396410       -1.17801271219613        1.88791656931667
H            0.09252641695618        2.67860098901242        2.17755620060539
H           -2.28411904600366        3.18639782817499        2.60474224903903
H           -0.99976609875550       -0.46604224602006       -0.51077043512796
H           -3.75962101846490       -1.57891991521198        2.33963809274630
H           -3.76925249471248       -4.05027370949797        2.46549483148611
H           -3.85222014312285       -5.40352819674357        0.42057205938635
H           -3.92958540326433       -4.32543242894181       -1.79963590878431
H           -4.01196624660948       -2.70224394975209       -3.85120267022960
H           -4.07009167288837       -0.79016894855566       -5.41362761942838
H           -4.01453353591695        1.51343502719891       -4.57220857541174
H           -3.89974254875763        1.96393826746736       -2.14201006471873
H           -6.69733429527865       -0.29345730006992       -0.24971542588108
H           -8.22981911765375        1.18808339398879        1.00713124768727
H           -7.34522743964406        2.95366337535663        2.46272306425889
H           -4.90957110086166        3.28747122421848        2.69860654151495
H            0.37271661189044        3.14742619226819       -0.45181414676033
H            1.83400535216087        4.81317118754352       -1.49776780741518
H            4.25993325424185        4.39576156356619       -1.69132872997463
H            5.21500187214679        2.27877814905677       -0.91395624227561
H            5.78320233247799        0.08995822126109        2.08273633836110
H            8.18447482681174       -0.39549627627892        1.76419032840502

          :  Hamiltonian                  GFN2-xTB          :
         :: gradient norm              0.000111398678 Eh/a0 ::
         :: HOMO-LUMO gap              2.057211825931 eV    ::
         :: SCC energy              -117.518418039840 Eh    ::
         :: -> dispersion             -0.110728292246 Eh    ::
         :: -> Gsolv                  -0.049807014331 Eh    ::
         :: repulsion energy           2.284333685879 Eh    ::

    * Orbital Energies and Occupations

         #    Occupation            Energy/Eh            Energy/eV
      -------------------------------------------------------------
         1        2.0000           -0.6694037             -18.2154
       ...           ...                  ...                  ...
        96        2.0000           -0.4195697             -11.4171
        97        2.0000           -0.4144050             -11.2765
        98        2.0000           -0.4131550             -11.2425
        99        2.0000           -0.4100468             -11.1579
       100        2.0000           -0.4097036             -11.1486
       101        2.0000           -0.4063156             -11.0564
       102        2.0000           -0.4024019             -10.9499
       103        2.0000           -0.4017330             -10.9317
       104        2.0000           -0.3967125             -10.7951
       105        2.0000           -0.3961507             -10.7798
       106        2.0000           -0.3841182             -10.4524
       107        2.0000           -0.3789255             -10.3111
       108        2.0000           -0.3615526              -9.8383 (HOMO)
       109                         -0.2859514              -7.7811 (LUMO)
       110                         -0.2726102              -7.4181
       111                         -0.2536227              -6.9014
       112                         -0.2532750              -6.8920
       113                         -0.2425859              -6.6011
       114                         -0.2343287              -6.3764
       115                         -0.2281119              -6.2072
       116                         -0.2268828              -6.1738
       117                         -0.2265201              -6.1639
       118                         -0.2230838              -6.0704
       119                         -0.2178107              -5.9269
       ...                                ...                  ...
       215                          1.1585417              31.5255
      -------------------------------------------------------------
                  HL-Gap            0.0756011 Eh            2.0572 eV

     #   Z          covCN         q      C6AA      α(0)
     1   7 N        0.911    -0.276    27.134     7.534
     2   6 C        1.912     0.118    28.190     8.575
     3   6 C        2.973     0.014    27.708     8.634
     4   6 C        2.924    -0.019    28.477     8.751
     5   6 C        2.922    -0.027    28.672     8.781
     6   6 C        2.976     0.029    27.340     8.577
     7   6 C        2.977    -0.009    28.226     8.715
     8   6 C        2.983     0.007    27.852     8.657
     9   6 C        2.917    -0.036    28.894     8.815
    10   6 C        2.914    -0.029    28.735     8.790
    11   6 C        2.914    -0.030    28.751     8.793
    12   6 C        2.917    -0.033    28.834     8.806
    13   6 C        2.983     0.007    27.864     8.659
    14   6 C        2.976    -0.003    28.095     8.695
    15   6 C        2.979     0.013    27.722     8.637
    16   6 C        2.925    -0.036    28.890     8.815
    17   6 C        2.913    -0.035    28.874     8.811
    18   6 C        3.035    -0.001    28.029     8.684
    19   6 C        3.054     0.006    27.843     8.654
    20   6 C        2.918    -0.036    28.895     8.815
    21   6 C        3.978     0.010    20.337     6.407
    22   6 C        3.056     0.006    27.840     8.653
    23   6 C        2.914    -0.034    28.837     8.806
    24   6 C        2.923    -0.032    28.805     8.801
    25   6 C        2.921    -0.033    28.824     8.804
    26   6 C        2.914    -0.034    28.857     8.809
    27   6 C        3.035     0.000    27.985     8.677
    28   6 C        3.036     0.000    27.989     8.678
    29   6 C        2.914    -0.035    28.861     8.809
    30   6 C        2.921    -0.033    28.826     8.805
    31   6 C        2.922    -0.032    28.808     8.802
    32   6 C        2.913    -0.034    28.835     8.805
    33   6 C        3.054     0.005    27.849     8.655
    34   6 C        3.055     0.005    27.847     8.654
    35   6 C        2.913    -0.033    28.834     8.805
    36   6 C        2.923    -0.032    28.805     8.801
    37   6 C        2.921    -0.033    28.826     8.804
    38   6 C        2.914    -0.035    28.865     8.810
    39   6 C        3.036     0.000    27.984     8.677
    40   6 C        2.983     0.007    27.866     8.659
    41   6 C        2.917    -0.034    28.840     8.806
    42   6 C        2.914    -0.030    28.756     8.793
    43   6 C        2.914    -0.030    28.738     8.791
    44   6 C        2.917    -0.036    28.891     8.814
    45   6 C        2.983     0.007    27.852     8.657
    46   6 C        2.923    -0.027    28.672     8.781
    47   6 C        2.924    -0.019    28.478     8.751
    48   1 H        0.926     0.043     2.407     2.426
    49   1 H        0.926     0.047     2.361     2.403
    50   1 H        0.926     0.030     2.579     2.511
    51   1 H        0.926     0.032     2.559     2.502
    52   1 H        0.926     0.032     2.564     2.504
    53   1 H        0.926     0.033     2.539     2.492
    54   1 H        0.926     0.034     2.532     2.488
    55   1 H        0.926     0.035     2.510     2.477
    56   1 H        0.926     0.028     2.617     2.530
    57   1 H        0.926     0.027     2.634     2.538
    58   1 H        0.926     0.033     2.551     2.498
    59   1 H        0.926     0.033     2.547     2.496
    60   1 H        0.926     0.034     2.537     2.491
    61   1 H        0.926     0.033     2.537     2.491
    62   1 H        0.926     0.033     2.549     2.497
    63   1 H        0.926     0.032     2.551     2.498
    64   1 H        0.926     0.027     2.623     2.533
    65   1 H        0.926     0.027     2.630     2.536
    66   1 H        0.926     0.032     2.554     2.499
    67   1 H        0.926     0.033     2.546     2.495
    68   1 H        0.926     0.034     2.529     2.487
    69   1 H        0.926     0.035     2.522     2.483
    70   1 H        0.926     0.032     2.557     2.501
    71   1 H        0.926     0.032     2.560     2.502
    72   1 H        0.926     0.030     2.580     2.512
    73   1 H        0.926     0.047     2.359     2.402
    74   1 H        0.926     0.043     2.406     2.425

molecular dipole:
                 x           y           z       tot (Debye)
 q only:       -1.823       0.374       0.248
   full:       -2.215       0.428       0.286       5.780

 projected vibrational frequencies (cm⁻¹)
eigval :       -0.00    -0.00    -0.00    -0.00    -0.00     0.00
eigval :      -10.04     8.08    12.52    27.69    29.58    33.73
eigval :       42.04    45.42    54.79    67.05    80.16    84.02
eigval :      107.74   119.03   122.93   128.76   130.52   139.23
eigval :      142.82   178.85   184.35   209.75   213.84   231.12
eigval :      231.42   233.84   256.52   262.24   283.73   328.92
eigval :      334.33   344.33   363.09   383.85   387.77   394.46
eigval :      394.96   411.29   413.65   415.27   427.89   445.12
eigval :      448.42   453.89   456.50   460.45   472.32   483.44
eigval :      504.45   511.52   518.85   532.88   535.66   538.98
eigval :      555.91   581.89   584.19   587.07   594.93   598.33
eigval :      601.23   606.59   630.03   640.85   644.77   650.68
eigval :      681.44   688.25   691.21   691.83   696.28   707.99
eigval :      713.75   739.24   740.47   753.01   762.31   769.51
eigval :      772.82   773.25   773.67   786.38   789.88   813.71
eigval :      831.68   867.95   871.42   873.95   874.08   878.49
eigval :      881.35   887.30   889.54   897.30   901.06   908.69
eigval :      911.09   913.77   914.94   916.10   918.50   921.61
eigval :      924.06   926.57   926.89   927.33   927.79   928.48
eigval :      928.61   931.51   932.87   993.50  1007.62  1011.58
eigval :     1019.55  1073.16  1073.22  1076.19  1078.00  1080.55
eigval :     1082.15  1128.71  1131.63  1133.79  1134.90  1143.60
eigval :     1152.77  1168.22  1175.18  1176.67  1179.90  1181.36
eigval :     1181.77  1184.12  1190.39  1205.43  1208.09  1215.27
eigval :     1222.70  1227.25  1237.45  1242.74  1250.46  1257.93
eigval :     1258.96  1259.31  1261.71  1263.71  1281.92  1285.94
eigval :     1306.28  1317.65  1325.24  1325.45  1347.99  1357.20
eigval :     1364.76  1372.29  1382.53  1390.51  1414.72  1418.14
eigval :     1426.77  1427.52  1430.33  1433.34  1442.09  1451.38
eigval :     1461.08  1466.98  1470.59  1479.32  1489.98  1524.78
eigval :     1526.47  1539.40  1544.36  1571.81  1584.04  1584.31
eigval :     1591.43  1594.38  1595.97  1601.72  1602.74  1603.01
eigval :     1606.67  1620.83  2360.61  3067.59  3069.32  3069.45
eigval :     3070.29  3071.63  3071.99  3072.23  3072.77  3072.83
eigval :     3074.93  3076.86  3078.56  3078.88  3079.93  3080.02
eigval :     3080.28  3081.50  3084.98  3085.98  3087.44  3088.86
eigval :     3089.70  3090.07  3091.16  3092.64  3093.18  3096.85

   temp. (K)  partition function   enthalpy   heat capacity  entropy
                                   cal/mol     cal/K/mol   cal/K/mol   J/K/mol
 298.15  VIB  0.374E+17            20896.333    133.557    129.926
         ROT  0.686E+08              888.752      2.981     38.838
         INT  0.257E+25            21785.086    136.538    168.764
         TR   0.140E+29             1481.254      4.968     45.007
         TOT                       23266.3397   141.5059   213.7711   894.4183

       T/K    H(0)-H(T)+PV         H(T)/Eh          T*S/Eh         G(T)/Eh
   ------------------------------------------------------------------------
    298.15    0.370773E-01    0.598943E+00    0.101570E+00    0.497373E+00
   ------------------------------------------------------------------------

         :::::::::::::::::::::::::::::::::::::::::::::::::::::
         ::                  THERMODYNAMIC                  ::
         :::::::::::::::::::::::::::::::::::::::::::::::::::::
         :: total free energy        -114.736711126544 Eh   ::
         ::.................................................::
         :: total energy             -115.234084355552 Eh   ::
         :: zero point energy           0.561865509246 Eh   ::
         :: G(RRHO) w/o ZPVE           -0.064492280238 Eh   ::
         :: G(RRHO) contrib.            0.497373229008 Eh   ::
         :::::::::::::::::::::::::::::::::::::::::::::::::::::

           -------------------------------------------------
          | TOTAL ENERGY             -115.234084355552 Eh   |
          | TOTAL ENTHALPY           -114.635141573861 Eh   |
          | TOTAL FREE ENERGY        -114.736711126544 Eh   |
          | GRADIENT NORM               0.000111391900 Eh/α |
          | HOMO-LUMO GAP               2.057211900927 eV   |
           -------------------------------------------------

 * finished run on 2025/09/12 at 05:17:30.134
