   * xtb version 6.7.1 (edcfbbe) compiled by 'albert@albert-system' on 2024-07-22

   ID    Z sym.   atoms
    1    6 C      1-22, 24-26, 28-32, 34, 35, 37-41, 43-45, 47-72
    2    7 N      23, 27, 33, 36, 42, 46
    3    1 H      73-112

          program call               : xtb data2507/toluene/DDPhCz-DPPZ/DDPhCz-DPPZ_toluene_T1_crest.xyz --gfn 2 --uhf 2 --gbsa toluene --ohess vtight --parallel 40 --molden --ceasefiles --namespace data2507/toluene/DDPhCz-DPPZ/DDPhCz-DPPZ_toluene_T1_finalOpt
      * Solvation model:               GBSA
        Solvent                        toluene
        Solvent mass                       9.2140E+01 g/mol
          :  Hamiltonian                  GFN2-xTB          :
 * total energy  :  -179.4004387 Eh     change        0.1630866E-08 Eh
 * total energy  :  -179.4005456 Eh     change       -0.1068609E-03 Eh
 * total energy  :  -179.4006389 Eh     change       -0.9329731E-04 Eh
 * total energy  :  -179.4006774 Eh     change       -0.3855556E-04 Eh
 * total energy  :  -179.4007267 Eh     change       -0.4927594E-04 Eh
 * total energy  :  -179.4007819 Eh     change       -0.5516630E-04 Eh
 * total energy  :  -179.4008286 Eh     change       -0.4669577E-04 Eh
 * total energy  :  -179.4008657 Eh     change       -0.3719297E-04 Eh
 * total energy  :  -179.4008910 Eh     change       -0.2529607E-04 Eh
 * total energy  :  -179.4009105 Eh     change       -0.1941346E-04 Eh
 * total energy  :  -179.4010357 Eh     change       -0.1341528E-05 Eh
 * total energy  :  -179.4010368 Eh     change       -0.1169419E-05 Eh
 * total energy  :  -179.4010379 Eh     change       -0.1106701E-05 Eh
 * total energy  :  -179.4010391 Eh     change       -0.1178175E-05 Eh
 * total energy  :  -179.4010403 Eh     change       -0.1208407E-05 Eh
 * total energy  :  -179.4010415 Eh     change       -0.1155172E-05 Eh
 * total energy  :  -179.4010425 Eh     change       -0.1028837E-05 Eh
 * total energy  :  -179.4010434 Eh     change       -0.8776357E-06 Eh
 * total energy  :  -179.4010434 Eh     change       -0.8451423E-08 Eh
   *** GEOMETRY OPTIMIZATION CONVERGED AFTER 44 ITERATIONS ***

 final structure:
================
112
 xtb: 6.7.1 (edcfbbe)
C            5.91491770614996        5.01788210714493       -2.30282259792015
C            4.77151742122099        5.17373667571406       -3.06849681171078
C            3.73493126645145        4.26513137600130       -2.96482801473215
C            3.82819118719024        3.17746694701248       -2.09917654054939
C            2.72186276551886        2.21994443723801       -1.95870498647191
C            1.40364554056602        2.68977124666559       -1.90526577490677
C            0.33656423267572        1.84524247589094       -1.68186975723724
C            0.60413140789027        0.49366977697686       -1.52349183369140
C            1.91382279988106       -0.01594614002861       -1.66082435693073
C            2.97296091711638        0.85346168388095       -1.85972652014406
C            1.80277704691679       -1.44394206999177       -1.50637288332015
C            2.72602474707129       -2.47294562464272       -1.49145427839473
C            2.29364951186197       -3.77409386766964       -1.24955974996040
C            3.27035667618953       -4.86773527376835       -1.16149297974397
C            4.34399391006392       -4.94208954280277       -2.04730918403107
C            5.26647484155015       -5.96698356528640       -1.95214929410043
C            5.13851013284921       -6.93071050216910       -0.96533300018221
C            4.07815434628468       -6.86468610873113       -0.07670785269482
C            3.15056878027315       -5.84551125012118       -0.17576920338083
C            0.92695736386567       -4.02851350365018       -1.07003011738886
C           -0.01331152512819       -3.01856995713388       -1.08542740076949
C            0.43339210042994       -1.71890604339848       -1.27677526934346
N           -0.27826563116818       -0.53713127908355       -1.26892135270017
C           -1.52305927009105       -0.31882625633515       -0.63442773403216
C           -2.71724145388009       -0.66276598137918       -1.24713260978600
C           -3.93823177017709       -0.37860665825558       -0.63357044790526
N           -5.10035153793533       -0.69991276807642       -1.20927518283933
C           -6.25670027285510       -0.40391501391965       -0.61973514535576
C           -7.49585003051710       -0.74442721941204       -1.23919455389301
C           -7.53237658400714       -1.39409778061425       -2.48488636770086
C           -8.74479781717641       -1.70406903735320       -3.04757676106557
C           -9.90928331626374       -1.35580144032745       -2.34935110372549
N           -9.90230563575098       -0.74954321732695       -1.18974548156851
C           -8.73491519770393       -0.43759975274684       -0.62130553019448
C           -8.74003164008834        0.22921173043335        0.65608424173160
N           -9.91199316457685        0.51020892425180        1.23128859580153
C           -9.92827344139879        1.11545831631735        2.39133017390733
C           -8.76935737750399        1.49381234213263        3.08317513029813
C           -7.55241719603017        1.21563929374727        2.51365004476427
C           -7.50596679021602        0.56750619816780        1.26750616077788
C           -6.26181090549520        0.25884324471429        0.64142730256748
N           -5.11036004868638        0.58433388046187        1.22493775017466
C           -3.94340200774421        0.29270759082785        0.64320310608772
C           -2.72680496038191        0.60700286191523        1.25076925432542
C           -1.52752049941295        0.29170487259209        0.63266740716862
N           -0.28561938953405        0.53781239516635        1.26262335396320
C            0.61921541274493       -0.47351966883867        1.51598237213674
C            0.38136846101141       -1.83071136178336        1.67382513492350
C            1.46690911099737       -2.65193459920466        1.89488750391482
C            2.77473835115684       -2.15356922996208        1.94670226923095
C            3.90149308947710       -3.08756651850816        2.08303588818932
C            5.05690059778196       -2.90934078974322        1.32492338228795
C            6.10641109759565       -3.80340218379556        1.41632454416835
C            6.02495335553299       -4.88688251473633        2.27483968067054
C            4.88695919671672       -5.06800822684412        3.04300183679796
C            3.83232576875176       -4.17977631394079        2.94525666872787
C            2.99576704937642       -0.78180927318147        1.84879198436808
C            1.91764989307398        0.06445519030186        1.65195556845308
C            1.77527933548235        1.48971050753823        1.49797206132186
C            2.67580582094929        2.53865500041278        1.48280820469077
C            2.21492992138235        3.82995766797409        1.24098304667818
C            3.16734703577810        4.94486243983330        1.15302364879051
C            4.23701721825156        5.04458928348883        2.04111367515774
C            5.13614410435002        6.09010094602248        1.94664099439734
C            4.98867168461881        7.04928850686498        0.95811228718237
C            3.93224018935559        6.95795309156894        0.06703618729329
C            3.02776778612484        5.91812964854262        0.16548518255629
C            0.84300003700861        4.05451421501490        1.06181572038563
C           -0.07508906785249        3.02436043795238        1.07823959288253
C            0.40000367322821        1.73479810487980        1.26960623476341
C            4.98843978334139        3.02539196933640       -1.34282052006499
C            6.01981899749740        3.93968092123421       -1.44018888371158
H            6.72119711984349        5.73249897704732       -2.37915560250744
H            4.68767669417465        6.00792516137284       -3.75039546253167
H            2.85238780957541        4.38507067356581       -3.57676196996550
H            1.22182821488896        3.74847620744204       -2.00550530057888
H           -0.67424815955611        2.22128830598794       -1.62616898751938
H            3.98036922357508        0.47695085144762       -1.94944731008807
H            3.77520180278868       -2.26601024050923       -1.63209446667843
H            4.44014205682390       -4.20374873615126       -2.83022010298205
H            6.08844479093134       -6.01622995235758       -2.65204303141368
H            5.86152394718546       -7.72967680114900       -0.88931116822400
H            3.97523267995283       -7.61056638613636        0.69807074178180
H            2.33634821279313       -5.79075050043888        0.53123533477024
H            0.60124711551918       -5.04792592396711       -0.92599229429841
H           -1.06257195132120       -3.22927112874124       -0.94100815363806
H           -2.71791220668323       -1.13669774656218       -2.21609503203250
H           -6.59453905857653       -1.63217399925210       -2.96570504912390
H           -8.81060184706169       -2.20243047120715       -4.00183042554397
H          -10.88771739125604       -1.58073041058201       -2.75363852952368
H          -10.90999133444377        1.31450017840806        2.80119082897575
H           -8.84282020775100        1.98999233549595        4.03800657493565
H           -6.61842888952263        1.47773777151461        2.98945161601943
H           -2.73442111364018        1.08078202688816        2.21977869476004
H           -0.62112391416246       -2.22855237157994        1.61924968447895
H            1.30833648799936       -3.71443145854654        1.99435000645627
H            5.11873130510537       -2.07334892041418        0.64423458302508
H            6.99097627533819       -3.65813392568754        0.81297391127212
H            6.84500096234221       -5.58615275599075        2.34602903273599
H            4.82141494997317       -5.90620476154767        3.72197284340780
H            2.95395281592448       -4.31950548673621        3.55897211663414
H            3.99478599369310       -0.38337660938865        1.93748510070060
H            3.72930252934725        2.35483966325644        1.62333951904862
H            4.34811897229260        4.30954373492524        2.82515443922312
H            5.95519862206314        6.15897717221302        2.64829581231970
H            5.69373304103995        7.86418127000162        0.88266073954981
H            3.81432937456419        7.70010404094246       -0.70918363551187
H            2.21663354833220        5.84379741433742       -0.54327594140176
H            0.49524805860482        5.06657231282858        0.91742461471106
H           -1.12882507548316        3.21214377026791        0.93468793315477
H            5.06825986942416        2.19337398913393       -0.65915302761834
H            6.90852395864892        3.81429765163970       -0.83845921776072

          :  Hamiltonian                  GFN2-xTB          :
         :: gradient norm              0.000059265035 Eh/a0 ::
         :: HOMO-LUMO gap              0.861412945227 eV    ::
         :: SCC energy              -182.748317695578 Eh    ::
         :: -> dispersion             -0.197293277980 Eh    ::
         :: -> Gsolv                  -0.066247777039 Eh    ::
         :: repulsion energy           3.347274292493 Eh    ::

    * Orbital Energies and Occupations

         #    Occupation            Energy/Eh            Energy/eV
      -------------------------------------------------------------
         1        2.0000           -0.6913936             -18.8138
       ...           ...                  ...                  ...
       156        2.0000           -0.4038409             -10.9891
       157        2.0000           -0.4019151             -10.9367
       158        2.0000           -0.3999719             -10.8838
       159        2.0000           -0.3988554             -10.8534
       160        2.0000           -0.3950909             -10.7510
       161        2.0000           -0.3865860             -10.5195
       162        2.0000           -0.3814150             -10.3788
       163        1.9994           -0.3726434             -10.1401
       164        1.9976           -0.3713250             -10.1043
       165        1.9950           -0.3706270             -10.0853
       166        1.6677           -0.3662564              -9.9663
       167        1.3403           -0.3649648              -9.9312
       168        1.0000           -0.3146867              -8.5631 (HOMO)
       169                         -0.2830305              -7.7017 (LUMO)
       170                         -0.2748315              -7.4785
       171                         -0.2586206              -7.0374
       172                         -0.2516375              -6.8474
       173                         -0.2494005              -6.7865
       174                         -0.2491579              -6.7799
       175                         -0.2420291              -6.5859
       176                         -0.2401377              -6.5345
       177                         -0.2369135              -6.4467
       178                         -0.2328282              -6.3356
       179                         -0.2237570              -6.0887
       ...                                ...                  ...
       328                          0.7411715              20.1683
      -------------------------------------------------------------
                  HL-Gap            0.0316562 Eh            0.8614 eV

     #   Z          covCN         q      C6AA      α(0)
     1   6 C        2.920    -0.031    28.765     8.795
     2   6 C        2.918    -0.029    28.732     8.790
     3   6 C        2.925    -0.034    28.841     8.807
     4   6 C        2.977     0.011    27.762     8.643
     5   6 C        2.977     0.005    27.908     8.666
     6   6 C        2.930    -0.036    28.886     8.814
     7   6 C        2.908    -0.047    29.156     8.854
     8   6 C        3.092     0.049    26.788     8.483
     9   6 C        3.058    -0.016    28.343     8.731
    10   6 C        2.918    -0.035    28.882     8.813
    11   6 C        3.067    -0.015    28.308     8.724
    12   6 C        2.918    -0.034    28.853     8.808
    13   6 C        2.977     0.006    27.883     8.662
    14   6 C        2.977     0.012    27.752     8.641
    15   6 C        2.925    -0.034    28.845     8.808
    16   6 C        2.918    -0.030    28.743     8.792
    17   6 C        2.920    -0.030    28.761     8.795
    18   6 C        2.918    -0.029    28.728     8.789
    19   6 C        2.926    -0.032    28.804     8.801
    20   6 C        2.928    -0.036    28.893     8.815
    21   6 C        2.908    -0.046    29.150     8.853
    22   6 C        3.079     0.051    26.782     8.484
    23   7 N        2.798    -0.049    22.179     6.995
    24   6 C        2.913     0.046    26.959     8.514
    25   6 C        2.919    -0.073    29.812     8.954
    26   6 C        2.943     0.085    26.105     8.380
    27   7 N        1.848    -0.250    27.369     7.754
    28   6 C        2.941     0.078    26.266     8.405
    29   6 C        2.982    -0.020    28.504     8.758
    30   6 C        2.927    -0.014    28.359     8.733
    31   6 C        2.911    -0.043    29.068     8.841
    32   6 C        2.903     0.060    26.650     8.465
    33   7 N        1.840    -0.220    26.629     7.647
    34   6 C        2.968     0.078    26.246     8.403
    35   6 C        2.968     0.078    26.247     8.403
    36   7 N        1.840    -0.220    26.629     7.648
    37   6 C        2.903     0.060    26.650     8.465
    38   6 C        2.911    -0.043    29.068     8.841
    39   6 C        2.927    -0.014    28.359     8.733
    40   6 C        2.982    -0.020    28.503     8.758
    41   6 C        2.941     0.078    26.266     8.405
    42   7 N        1.848    -0.250    27.369     7.753
    43   6 C        2.943     0.085    26.105     8.380
    44   6 C        2.919    -0.073    29.812     8.954
    45   6 C        2.913     0.046    26.960     8.514
    46   7 N        2.798    -0.049    22.176     6.994
    47   6 C        3.092     0.049    26.787     8.483
    48   6 C        2.908    -0.047    29.156     8.854
    49   6 C        2.930    -0.036    28.886     8.814
    50   6 C        2.977     0.005    27.907     8.665
    51   6 C        2.977     0.011    27.762     8.643
    52   6 C        2.926    -0.033    28.825     8.805
    53   6 C        2.918    -0.029    28.733     8.790
    54   6 C        2.920    -0.031    28.765     8.795
    55   6 C        2.918    -0.029    28.732     8.790
    56   6 C        2.925    -0.034    28.841     8.807
    57   6 C        2.918    -0.035    28.881     8.813
    58   6 C        3.058    -0.016    28.343     8.731
    59   6 C        3.067    -0.015    28.308     8.724
    60   6 C        2.918    -0.034    28.853     8.808
    61   6 C        2.977     0.006    27.883     8.662
    62   6 C        2.977     0.012    27.752     8.641
    63   6 C        2.925    -0.034    28.845     8.808
    64   6 C        2.918    -0.030    28.743     8.792
    65   6 C        2.920    -0.031    28.762     8.795
    66   6 C        2.918    -0.029    28.728     8.789
    67   6 C        2.926    -0.032    28.804     8.801
    68   6 C        2.928    -0.036    28.893     8.815
    69   6 C        2.908    -0.046    29.149     8.853
    70   6 C        3.079     0.051    26.782     8.485
    71   6 C        2.926    -0.033    28.825     8.805
    72   6 C        2.918    -0.029    28.733     8.790
    73   1 H        0.926     0.032     2.559     2.502
    74   1 H        0.926     0.032     2.552     2.498
    75   1 H        0.926     0.032     2.551     2.498
    76   1 H        0.926     0.038     2.476     2.461
    77   1 H        0.926     0.027     2.630     2.536
    78   1 H        0.926     0.043     2.414     2.430
    79   1 H        0.926     0.044     2.400     2.423
    80   1 H        0.926     0.035     2.516     2.481
    81   1 H        0.926     0.034     2.533     2.489
    82   1 H        0.926     0.033     2.543     2.494
    83   1 H        0.926     0.032     2.557     2.500
    84   1 H        0.926     0.031     2.577     2.510
    85   1 H        0.926     0.041     2.435     2.440
    86   1 H        0.926     0.033     2.550     2.497
    87   1 H        0.926     0.057     2.235     2.338
    88   1 H        0.926     0.055     2.261     2.351
    89   1 H        0.926     0.052     2.296     2.369
    90   1 H        0.925     0.047     2.355     2.400
    91   1 H        0.925     0.047     2.355     2.400
    92   1 H        0.926     0.052     2.296     2.369
    93   1 H        0.926     0.055     2.261     2.351
    94   1 H        0.926     0.057     2.235     2.338
    95   1 H        0.926     0.027     2.631     2.536
    96   1 H        0.926     0.038     2.476     2.460
    97   1 H        0.926     0.033     2.539     2.492
    98   1 H        0.926     0.032     2.557     2.500
    99   1 H        0.926     0.032     2.559     2.501
   100   1 H        0.926     0.032     2.552     2.498
   101   1 H        0.926     0.033     2.551     2.498
   102   1 H        0.926     0.043     2.413     2.429
   103   1 H        0.926     0.044     2.400     2.423
   104   1 H        0.926     0.035     2.516     2.481
   105   1 H        0.926     0.034     2.533     2.489
   106   1 H        0.926     0.033     2.543     2.494
   107   1 H        0.926     0.032     2.557     2.500
   108   1 H        0.926     0.031     2.577     2.510
   109   1 H        0.926     0.041     2.435     2.440
   110   1 H        0.926     0.033     2.550     2.497
   111   1 H        0.926     0.033     2.539     2.492
   112   1 H        0.926     0.032     2.557     2.501

molecular dipole:
                 x           y           z       tot (Debye)
 q only:        3.489       0.038      -0.006
   full:        3.817       0.043      -0.007       9.702

 projected vibrational frequencies (cm⁻¹)
eigval :       -0.00    -0.00     0.00     0.00     0.00     0.00
eigval :        5.38    11.68    13.45    18.33    23.67    27.22
eigval :       37.28    38.65    39.42    40.65    47.19    49.39
eigval :       56.00    58.05    60.95    67.91    79.53    80.73
eigval :       85.30    87.73    94.81    97.95    98.24   113.57
eigval :      124.55   129.44   137.26   140.46   140.70   147.39
eigval :      170.47   180.18   189.22   191.06   212.98   214.15
eigval :      224.69   226.57   253.00   254.64   257.39   259.52
eigval :      276.18   276.35   289.80   303.75   310.33   312.16
eigval :      319.04   331.96   341.23   348.68   370.83   371.89
eigval :      374.27   375.04   387.16   388.16   389.45   393.28
eigval :      395.87   396.01   401.78   424.95   425.55   428.03
eigval :      434.74   441.03   442.21   445.49   452.31   474.22
eigval :      475.20   482.33   487.92   498.97   499.85   519.63
eigval :      520.61   529.17   541.49   555.53   558.11   559.67
eigval :      566.62   574.31   579.15   583.14   586.36   586.68
eigval :      587.77   591.42   596.13   596.52   601.77   608.44
eigval :      620.25   624.19   626.75   639.10   639.17   649.61
eigval :      664.44   667.35   670.93   671.36   671.80   683.58
eigval :      685.29   688.65   693.54   693.92   700.47   704.04
eigval :      705.59   726.24   728.62   736.30   739.83   743.04
eigval :      755.44   756.37   758.74   759.77   781.81   786.43
eigval :      794.48   816.42   817.30   822.09   823.67   828.42
eigval :      829.34   838.50   841.81   862.73   866.60   867.01
eigval :      871.24   872.38   876.29   877.29   877.70   879.24
eigval :      879.32   899.49   901.12   902.23   903.34   903.67
eigval :      903.81   904.25   904.83   910.06   910.30   914.34
eigval :      914.83   916.34   918.38   923.59   926.64   927.38
eigval :      927.93   928.81   933.44   933.80   934.28   934.35
eigval :      953.78   970.22   970.53   978.79   981.32  1024.83
eigval :     1025.06  1031.65  1055.22  1064.77  1067.79  1068.73
eigval :     1069.17  1082.06  1083.08  1084.75  1085.30  1085.39
eigval :     1086.76  1094.01  1117.63  1120.69  1121.22  1121.56
eigval :     1121.99  1124.96  1134.03  1147.35  1148.39  1167.70
eigval :     1177.85  1180.92  1181.45  1182.01  1183.24  1183.56
eigval :     1184.06  1196.98  1197.93  1199.76  1200.62  1207.48
eigval :     1212.07  1212.60  1217.22  1218.10  1231.02  1232.23
eigval :     1242.01  1249.23  1261.43  1274.77  1275.58  1276.30
eigval :     1278.49  1279.10  1279.70  1280.24  1280.53  1285.11
eigval :     1294.11  1295.45  1296.29  1297.73  1314.34  1314.88
eigval :     1320.01  1320.13  1321.05  1322.09  1331.05  1335.65
eigval :     1347.48  1349.51  1350.20  1352.86  1359.28  1377.45
eigval :     1383.81  1401.60  1408.16  1408.32  1413.43  1427.11
eigval :     1428.79  1430.25  1430.87  1431.35  1432.54  1440.43
eigval :     1450.50  1451.79  1456.41  1465.03  1465.55  1479.29
eigval :     1485.85  1488.10  1488.30  1491.21  1492.09  1501.58
eigval :     1503.07  1534.12  1552.63  1555.42  1556.73  1567.04
eigval :     1571.66  1571.86  1574.01  1578.06  1579.57  1579.86
eigval :     1581.89  1582.32  1586.56  1594.55  1599.69  1599.96
eigval :     1604.43  1609.14  3053.82  3054.22  3066.94  3067.22
eigval :     3068.17  3068.28  3070.28  3070.41  3071.58  3071.61
eigval :     3077.45  3077.63  3077.73  3077.85  3077.90  3078.21
eigval :     3079.01  3079.11  3081.10  3081.30  3083.04  3083.40
eigval :     3083.86  3083.91  3090.23  3090.46  3090.50  3090.65
eigval :     3091.35  3091.85  3091.98  3092.29  3097.38  3097.73
eigval :     3099.05  3099.35  3099.44  3100.36  3101.39  3101.61

   temp. (K)  partition function   enthalpy   heat capacity  entropy
                                   cal/mol     cal/K/mol   cal/K/mol   J/K/mol
 298.15  VIB  0.402E+26            32857.775    208.910    204.971
         ROT  0.122E+09              888.752      2.981     39.989
         INT  0.492E+34            33746.527    211.891    244.959
         TR   0.269E+29             1481.254      4.968     46.302
         TOT                       35227.7813   216.8592   291.2618  1218.6394

       T/K    H(0)-H(T)+PV         H(T)/Eh          T*S/Eh         G(T)/Eh
   ------------------------------------------------------------------------
    298.15    0.561390E-01    0.899247E+00    0.138388E+00    0.760859E+00
   ------------------------------------------------------------------------

         :::::::::::::::::::::::::::::::::::::::::::::::::::::
         ::                  THERMODYNAMIC                  ::
         :::::::::::::::::::::::::::::::::::::::::::::::::::::
         :: total free energy        -178.640184741841 Eh   ::
         ::.................................................::
         :: total energy             -179.401043401296 Eh   ::
         :: zero point energy           0.843107503446 Eh   ::
         :: G(RRHO) w/o ZPVE           -0.082248843991 Eh   ::
         :: G(RRHO) contrib.            0.760858659455 Eh   ::
         :::::::::::::::::::::::::::::::::::::::::::::::::::::

           -------------------------------------------------
          | TOTAL ENERGY             -179.401043401296 Eh   |
          | TOTAL ENTHALPY           -178.501796854894 Eh   |
          | TOTAL FREE ENERGY        -178.640184741841 Eh   |
          | GRADIENT NORM               0.000062906695 Eh/α |
          | HOMO-LUMO GAP               0.861409263373 eV   |
           -------------------------------------------------

 * finished run on 2025/08/22 at 13:50:42.720
