   * xtb version 6.7.1 (edcfbbe) compiled by 'albert@albert-system' on 2024-07-22

   ID    Z sym.   atoms
    1    6 C      1-22, 24-26, 28-32, 34, 35, 37-41, 43-45, 47-72
    2    7 N      23, 27, 33, 36, 42, 46
    3    1 H      73-112

          program call               : xtb data2507/toluene/DDPhCz-DPPZ/DDPhCz-DPPZ_toluene_S0_finalOpt.xtbopt.xyz --gfn 2 --uhf 2 --gbsa toluene --ohess vtight --parallel 40 --molden --ceasefiles --namespace data2507/toluene/DDPhCz-DPPZ/DDPhCz-DPPZ_toluene_T1_preOpt
      * Solvation model:               GBSA
        Solvent                        toluene
        Solvent mass                       9.2140E+01 g/mol
          :  Hamiltonian                  GFN2-xTB          :
 * total energy  :  -179.3979535 Eh     change       -0.9931568E-08 Eh
 * total energy  :  -179.4004557 Eh     change       -0.2502168E-02 Eh
 * total energy  :  -179.4012813 Eh     change       -0.8256400E-03 Eh
 * total energy  :  -179.4013717 Eh     change       -0.9039445E-04 Eh
 * total energy  :  -179.4014316 Eh     change       -0.5995587E-04 Eh
 * total energy  :  -179.4014454 Eh     change       -0.1375546E-04 Eh
 * total energy  :  -179.4014631 Eh     change       -0.1765614E-04 Eh
 * total energy  :  -179.4014753 Eh     change       -0.1221815E-04 Eh
 * total energy  :  -179.4014872 Eh     change       -0.1196398E-04 Eh
 * total energy  :  -179.4014932 Eh     change       -0.5972682E-05 Eh
 * total energy  :  -179.4015189 Eh     change       -0.2811005E-06 Eh
 * total energy  :  -179.4015191 Eh     change       -0.2236750E-06 Eh
 * total energy  :  -179.4015193 Eh     change       -0.1818279E-06 Eh
 * total energy  :  -179.4015195 Eh     change       -0.1954050E-06 Eh
 * total energy  :  -179.4015197 Eh     change       -0.2144587E-06 Eh
 * total energy  :  -179.4015199 Eh     change       -0.1994761E-06 Eh
 * total energy  :  -179.4015200 Eh     change       -0.1610932E-06 Eh
 * total energy  :  -179.4015202 Eh     change       -0.1223129E-06 Eh
 * total energy  :  -179.4015203 Eh     change       -0.9728527E-07 Eh
   *** GEOMETRY OPTIMIZATION CONVERGED AFTER 36 ITERATIONS ***

 final structure:
================
112
 xtb: 6.7.1 (edcfbbe)
C            6.21579083834557        4.52607588239553       -2.43583690021663
C            5.07201378885772        4.72948984021524       -3.19020952108352
C            3.99281123654767        3.87484150456141       -3.06234047397621
C            4.04247193868747        2.79495846254684       -2.18331695943098
C            2.88421384019839        1.90705801558629       -2.00359197090933
C            1.60125714821857        2.46037312603382       -1.90871696280648
C            0.49018242917299        1.68412507914505       -1.65279824944865
C            0.67683215983325        0.31920505305686       -1.49344320740161
C            1.94716301568497       -0.27174950546502       -1.66565559609829
C            3.05193229670522        0.52823801098410       -1.90563594614862
C            1.75064288481679       -1.69030756447779       -1.51046731347516
C            2.60839845214993       -2.77469901603738       -1.52700055752879
C            2.10113204625375       -4.05126767955275       -1.29769872780141
C            3.00610571574718       -5.20822251727213       -1.26941165199151
C            4.08321690484132       -5.29479562284498       -2.15107418601452
C            4.94636377180182       -6.37340753171151       -2.10824601559475
C            4.75456072962113       -7.38445577209866       -1.18074554701644
C            3.68750586271467       -7.31148372688388       -0.30047143430776
C            2.82016077179495       -6.23644820832747       -0.34614825914202
C            0.72625604753631       -4.21893576263705       -1.07710694297961
C           -0.14741079812108       -3.15147763510434       -1.04973490938472
C            0.37255145231681       -1.88042776682484       -1.24922380099647
N           -0.26208864873265       -0.65595823539890       -1.21793003528872
C           -1.49637207223863       -0.36471238007324       -0.60217939273000
C           -2.69616092501733       -0.76480113126859       -1.17091698631920
C           -3.91419177989157       -0.40252648586078       -0.59622935168349
N           -5.07979193618818       -0.78521514951797       -1.12474498918074
C           -6.23330663358184       -0.39968190061527       -0.58462320430738
C           -7.47564186491361       -0.81361021133759       -1.14992691615925
C           -7.51836040279579       -1.64291848493651       -2.28384685839625
C           -8.73358669398222       -2.02125079613009       -2.79628152827317
C           -9.89495652796965       -1.56148249874417       -2.15986446843244
N           -9.88194682173747       -0.78809184799137       -1.10447036784290
C           -8.71187455074529       -0.40391893666059       -0.58837407584901
C           -8.71051827087867        0.45134987474413        0.57129781672705
N           -9.87935698376838        0.84126233301141        1.08588484516305
C           -9.88992746854811        1.61468181616284        2.14128489388676
C           -8.72713501925928        2.06876224565812        2.77918619941991
C           -7.51311577438397        1.68452446658717        2.26828446488769
C           -7.47301159518123        0.85498804836297        1.13443538698638
C           -6.23199898066861        0.43473120534299        0.57090546579545
N           -5.07730775689872        0.81399167545927        1.11295181244558
C           -3.91292545698333        0.42469911571953        0.58656475280446
C           -2.69388790602360        0.78000966227805        1.16346798977597
C           -1.49537946124585        0.37303945737365        0.59693870145033
N           -0.26062067007557        0.65721496141484        1.21501292825808
C            0.67219380546670       -0.32331958063450        1.49217828117255
C            0.47738191550285       -1.68712491921654        1.65130722449282
C            1.58350009564985       -2.46975250182287        1.90924863539819
C            2.86947152132283       -1.92385278865386        2.00627778597466
C            4.02228750688823       -2.81834363600458        2.18829741618515
C            5.18793959146460       -2.61985722651683        1.45113363955723
C            6.25684362128625       -3.48763507823281        1.57365772355563
C            6.18545309376067       -4.56146188577640        2.44558721994618
C            5.03894692339132       -4.75846287090614        3.19752051421755
C            3.96476890693466       -3.89786883732632        3.06728771209779
C            3.04531406278172       -0.54602646727645        1.90850688264522
C            1.94559368611955        0.26031736269926        1.66661802078328
C            1.75747113157068        1.67999061770819        1.51117949870898
C            2.62140013645790        2.75943765459597        1.52934588755177
C            2.12184391703123        4.03892960117036        1.29939737076064
C            3.03347726246561        5.19068275055412        1.27278948115967
C            4.10977624743798        5.27082465299151        2.15605735974454
C            4.97921543636049        6.34442600523923        2.11473330500536
C            4.79459662113068        7.35681008950600        1.18723226539419
C            3.72839525200858        7.29025522785229        0.30542181402265
C            2.85481323665235        6.22021218040497        0.34953884673726
C            0.74830965992018        4.21450358391883        1.07658616434692
C           -0.13142863245040        3.15208348386815        1.04749969602588
C            0.38094016004492        1.87803761168275        1.24757917880130
C            5.20547313613381        2.58986179751131       -1.44378471374340
C            6.27942100705048        3.45172023853559       -1.56395486459286
H            7.05415968826161        5.20081614929330       -2.52850689451666
H            5.02029989356221        5.55982739022931       -3.87986345570614
H            3.10759459806368        4.03373813357722       -3.66125562114180
H            1.48444077356078        3.52858135907027       -2.00546253696979
H           -0.49337280464163        2.12338392543658       -1.57675597387978
H            4.02950574683412        0.08858440925459       -2.03093464371244
H            3.66546281785457       -2.62813306376926       -1.68340024035088
H            4.22981222160991       -4.52146426458129       -2.89093990145200
H            5.77196376561290       -6.42770984589907       -2.80344281100939
H            5.43170706398385       -8.22534445874669       -1.14542161319847
H            3.53301440235095       -8.09505215162254        0.42746869431592
H            2.00335838210986       -6.17962268936630        0.35817981425483
H            0.33762470282261       -5.21656055719133       -0.93738134029924
H           -1.20191252915608       -3.29936594774364       -0.87008737442333
H           -2.70190270768874       -1.33933460546487       -2.08378872622087
H           -6.58261458366249       -1.96072655364573       -2.72070358049662
H           -8.80380141901292       -2.65675749984510       -3.66491422044013
H          -10.87544513674310       -1.83656863097187       -2.52629760619878
H          -10.86951634025681        1.89463330736868        2.50644139357471
H           -8.79537723715370        2.70458402743873        3.64774708363494
H           -6.57639541203711        1.99781576786833        2.70631212915573
H           -2.69797051513065        1.35448988451016        2.07638119567314
H           -0.50857150172180       -2.12067520215596        1.57360297569051
H            1.46031449669495       -3.53724915334536        2.00592672787200
H            5.24165595698823       -1.79263452683252        0.75890723721379
H            7.14892006085292       -3.32891651244306        0.98473391932219
H            7.01983676807635       -5.24085958189983        2.54014834551216
H            4.98119106133954       -5.58840663830125        3.88717424121299
H            3.07742809704097       -4.05180110405048        3.66435068817796
H            4.02519543803539       -0.11202042745511        2.03545052291133
H            3.67733521199819        2.60676873561965        1.68751392735861
H            4.25082542185929        4.49647756376794        2.89593770811279
H            5.80415243397744        6.39378263622500        2.81108384525411
H            5.47674076260440        8.19368985034258        1.15306469670695
H            3.57946280049834        8.07492262436131       -0.42249443342742
H            2.03872992970050        6.16828630611969       -0.35600248175584
H            0.36564336626914        5.21438332452113        0.93653213741379
H           -1.18479192783507        3.30605166385344        0.86619328443974
H            5.25315642403122        1.76226949943776       -0.75155974827640
H            7.16936554552354        3.28797994086353       -0.97318384079057

          :  Hamiltonian                  GFN2-xTB          :
         :: gradient norm              0.000033828363 Eh/a0 ::
         :: HOMO-LUMO gap              0.857262565631 eV    ::
         :: SCC energy              -182.747118473269 Eh    ::
         :: -> dispersion             -0.187499765414 Eh    ::
         :: -> Gsolv                  -0.071486586450 Eh    ::
         :: repulsion energy           3.345598204573 Eh    ::

    * Orbital Energies and Occupations

         #    Occupation            Energy/Eh            Energy/eV
      -------------------------------------------------------------
         1        2.0000           -0.6912558             -18.8100
       ...           ...                  ...                  ...
       156        2.0000           -0.4049171             -11.0184
       157        2.0000           -0.4030495             -10.9675
       158        2.0000           -0.3997772             -10.8785
       159        2.0000           -0.3973426             -10.8122
       160        2.0000           -0.3968128             -10.7978
       161        2.0000           -0.3844274             -10.4608
       162        2.0000           -0.3830724             -10.4239
       163        1.9992           -0.3729862             -10.1495
       164        1.9972           -0.3717505             -10.1158
       165        1.9686           -0.3694105             -10.0522
       166        1.7228           -0.3670639              -9.9883
       167        1.3122           -0.3654030              -9.9431
       168        1.0000           -0.3148659              -8.5679 (HOMO)
       169                         -0.2833624              -7.7107 (LUMO)
       170                         -0.2751694              -7.4877
       171                         -0.2571993              -6.9987
       172                         -0.2532142              -6.8903
       173                         -0.2507891              -6.8243
       174                         -0.2483248              -6.7573
       175                         -0.2429899              -6.6121
       176                         -0.2411787              -6.5628
       177                         -0.2368341              -6.4446
       178                         -0.2315336              -6.3003
       179                         -0.2232993              -6.0763
       ...                                ...                  ...
       328                          0.7408163              20.1586
      -------------------------------------------------------------
                  HL-Gap            0.0315035 Eh            0.8573 eV

     #   Z          covCN         q      C6AA      α(0)
     1   6 C        2.920    -0.031    28.780     8.797
     2   6 C        2.918    -0.030    28.743     8.792
     3   6 C        2.925    -0.034    28.851     8.808
     4   6 C        2.977     0.011    27.768     8.644
     5   6 C        2.977     0.005    27.913     8.666
     6   6 C        2.930    -0.036    28.898     8.816
     7   6 C        2.908    -0.046    29.149     8.853
     8   6 C        3.090     0.049    26.810     8.487
     9   6 C        3.058    -0.016    28.342     8.730
    10   6 C        2.918    -0.035    28.883     8.813
    11   6 C        3.067    -0.014    28.300     8.723
    12   6 C        2.918    -0.035    28.865     8.810
    13   6 C        2.976     0.006    27.892     8.663
    14   6 C        2.976     0.011    27.759     8.642
    15   6 C        2.925    -0.034    28.849     8.808
    16   6 C        2.918    -0.030    28.744     8.792
    17   6 C        2.920    -0.031    28.767     8.795
    18   6 C        2.918    -0.030    28.745     8.792
    19   6 C        2.925    -0.033    28.834     8.806
    20   6 C        2.928    -0.036    28.896     8.816
    21   6 C        2.908    -0.047    29.159     8.854
    22   6 C        3.077     0.050    26.793     8.486
    23   7 N        2.798    -0.045    22.105     6.983
    24   6 C        2.912     0.046    26.964     8.515
    25   6 C        2.919    -0.073    29.828     8.956
    26   6 C        2.942     0.085    26.109     8.380
    27   7 N        1.848    -0.248    27.319     7.746
    28   6 C        2.941     0.078    26.267     8.406
    29   6 C        2.982    -0.020    28.499     8.757
    30   6 C        2.927    -0.014    28.357     8.733
    31   6 C        2.911    -0.043    29.064     8.840
    32   6 C        2.903     0.060    26.650     8.465
    33   7 N        1.840    -0.219    26.610     7.645
    34   6 C        2.968     0.078    26.248     8.404
    35   6 C        2.968     0.078    26.248     8.404
    36   7 N        1.840    -0.219    26.610     7.645
    37   6 C        2.903     0.060    26.650     8.465
    38   6 C        2.911    -0.043    29.064     8.840
    39   6 C        2.927    -0.014    28.357     8.733
    40   6 C        2.982    -0.020    28.499     8.757
    41   6 C        2.941     0.078    26.267     8.406
    42   7 N        1.848    -0.248    27.319     7.746
    43   6 C        2.942     0.085    26.109     8.380
    44   6 C        2.919    -0.073    29.829     8.956
    45   6 C        2.912     0.046    26.964     8.515
    46   7 N        2.798    -0.045    22.105     6.983
    47   6 C        3.090     0.049    26.810     8.487
    48   6 C        2.908    -0.046    29.149     8.853
    49   6 C        2.930    -0.036    28.898     8.816
    50   6 C        2.977     0.005    27.913     8.666
    51   6 C        2.977     0.011    27.768     8.644
    52   6 C        2.926    -0.033    28.833     8.806
    53   6 C        2.918    -0.030    28.745     8.792
    54   6 C        2.920    -0.031    28.780     8.797
    55   6 C        2.918    -0.030    28.743     8.792
    56   6 C        2.925    -0.034    28.851     8.808
    57   6 C        2.918    -0.035    28.883     8.813
    58   6 C        3.058    -0.016    28.342     8.730
    59   6 C        3.067    -0.014    28.300     8.723
    60   6 C        2.918    -0.035    28.865     8.810
    61   6 C        2.976     0.006    27.892     8.663
    62   6 C        2.976     0.011    27.759     8.642
    63   6 C        2.925    -0.034    28.849     8.808
    64   6 C        2.918    -0.030    28.744     8.792
    65   6 C        2.920    -0.031    28.767     8.795
    66   6 C        2.918    -0.030    28.745     8.792
    67   6 C        2.925    -0.033    28.834     8.806
    68   6 C        2.928    -0.036    28.896     8.816
    69   6 C        2.908    -0.047    29.159     8.854
    70   6 C        3.077     0.050    26.793     8.486
    71   6 C        2.926    -0.033    28.833     8.806
    72   6 C        2.918    -0.030    28.745     8.792
    73   1 H        0.926     0.032     2.560     2.502
    74   1 H        0.926     0.032     2.557     2.500
    75   1 H        0.926     0.032     2.555     2.500
    76   1 H        0.926     0.038     2.481     2.463
    77   1 H        0.926     0.027     2.636     2.539
    78   1 H        0.926     0.042     2.419     2.432
    79   1 H        0.926     0.043     2.404     2.424
    80   1 H        0.926     0.035     2.516     2.480
    81   1 H        0.926     0.033     2.539     2.492
    82   1 H        0.926     0.033     2.547     2.496
    83   1 H        0.926     0.032     2.552     2.498
    84   1 H        0.926     0.032     2.557     2.501
    85   1 H        0.926     0.042     2.429     2.437
    86   1 H        0.926     0.033     2.542     2.493
    87   1 H        0.926     0.057     2.232     2.336
    88   1 H        0.926     0.055     2.258     2.350
    89   1 H        0.926     0.052     2.291     2.367
    90   1 H        0.925     0.048     2.351     2.398
    91   1 H        0.925     0.048     2.351     2.398
    92   1 H        0.926     0.052     2.291     2.367
    93   1 H        0.926     0.055     2.258     2.350
    94   1 H        0.926     0.057     2.232     2.336
    95   1 H        0.926     0.027     2.636     2.539
    96   1 H        0.926     0.038     2.481     2.463
    97   1 H        0.926     0.033     2.539     2.492
    98   1 H        0.926     0.033     2.546     2.495
    99   1 H        0.926     0.032     2.560     2.502
   100   1 H        0.926     0.032     2.557     2.500
   101   1 H        0.926     0.032     2.555     2.500
   102   1 H        0.926     0.042     2.419     2.432
   103   1 H        0.926     0.043     2.403     2.424
   104   1 H        0.926     0.035     2.516     2.480
   105   1 H        0.926     0.033     2.539     2.492
   106   1 H        0.926     0.033     2.547     2.496
   107   1 H        0.926     0.032     2.552     2.498
   108   1 H        0.926     0.032     2.557     2.501
   109   1 H        0.926     0.042     2.429     2.437
   110   1 H        0.926     0.033     2.542     2.493
   111   1 H        0.926     0.033     2.539     2.492
   112   1 H        0.926     0.033     2.546     2.495

molecular dipole:
                 x           y           z       tot (Debye)
 q only:        3.264      -0.009       0.003
   full:        3.599      -0.010       0.003       9.147

 projected vibrational frequencies (cm⁻¹)
eigval :       -0.00    -0.00    -0.00     0.00     0.00     0.00
eigval :       13.21    15.98    18.69    22.74    24.51    26.62
eigval :       35.12    40.56    41.51    47.45    50.89    51.77
eigval :       58.50    64.11    64.48    67.82    73.38    80.19
eigval :       88.47    89.52    93.40   101.10   101.45   111.05
eigval :      124.26   129.96   132.64   141.08   143.41   148.01
eigval :      166.60   181.34   188.06   188.41   214.57   215.41
eigval :      227.29   228.06   252.62   253.20   256.63   260.25
eigval :      277.45   278.42   292.69   305.60   311.01   312.65
eigval :      319.51   331.72   342.25   346.05   373.18   373.83
eigval :      375.51   375.94   388.05   389.27   392.52   393.01
eigval :      396.41   396.86   401.67   428.28   428.50   431.25
eigval :      435.55   441.06   442.94   445.55   452.20   475.19
eigval :      476.38   483.31   487.32   499.76   500.34   520.20
eigval :      521.56   527.91   543.38   555.61   558.63   559.87
eigval :      566.15   573.16   577.97   582.83   586.19   586.52
eigval :      587.84   590.93   594.43   596.54   601.98   609.15
eigval :      621.44   624.75   627.23   639.00   639.20   647.39
eigval :      663.84   668.29   670.30   672.53   672.77   683.85
eigval :      686.47   688.06   692.73   695.46   699.91   704.90
eigval :      706.58   725.64   727.56   737.70   739.36   745.99
eigval :      755.51   755.90   757.31   758.13   781.11   790.18
eigval :      797.54   810.14   815.66   822.87   824.73   827.24
eigval :      828.16   838.14   841.69   862.38   868.41   868.94
eigval :      871.19   872.73   876.25   879.51   879.68   879.96
eigval :      880.14   900.34   901.13   901.86   902.23   902.92
eigval :      903.53   903.99   904.40   910.54   910.66   913.54
eigval :      914.03   921.89   922.13   923.20   928.72   929.02
eigval :      929.74   930.20   930.54   930.81   935.22   935.31
eigval :      955.45   970.36   970.49   978.65   981.19  1025.04
eigval :     1025.17  1031.60  1055.75  1064.65  1067.88  1068.86
eigval :     1068.98  1082.85  1083.54  1085.37  1086.00  1086.07
eigval :     1088.63  1094.62  1119.26  1120.43  1120.82  1121.42
eigval :     1121.66  1126.68  1135.03  1147.82  1149.43  1169.11
eigval :     1178.29  1178.45  1178.65  1179.88  1179.90  1183.14
eigval :     1187.45  1198.98  1200.13  1201.72  1202.56  1207.93
eigval :     1213.26  1213.33  1217.87  1218.55  1231.67  1233.08
eigval :     1241.59  1248.26  1262.38  1271.97  1274.50  1276.48
eigval :     1278.23  1279.98  1280.47  1281.35  1281.61  1285.72
eigval :     1294.42  1295.03  1295.48  1297.63  1313.83  1314.54
eigval :     1318.29  1318.37  1319.65  1320.95  1331.22  1335.92
eigval :     1345.38  1349.02  1349.31  1351.93  1359.29  1377.50
eigval :     1384.67  1402.35  1407.49  1408.05  1413.65  1426.77
eigval :     1426.93  1428.48  1428.63  1430.43  1432.43  1438.82
eigval :     1451.25  1451.29  1457.24  1464.96  1465.52  1478.40
eigval :     1484.62  1487.79  1487.85  1490.96  1491.79  1500.74
eigval :     1502.37  1532.94  1552.42  1556.36  1556.59  1566.92
eigval :     1570.84  1571.00  1575.63  1575.85  1578.24  1578.41
eigval :     1580.56  1581.26  1585.06  1592.22  1599.09  1599.14
eigval :     1603.60  1607.65  3053.53  3053.78  3067.67  3067.77
eigval :     3068.10  3068.12  3069.72  3069.91  3070.14  3070.23
eigval :     3076.82  3077.06  3077.80  3077.94  3078.78  3078.94
eigval :     3079.09  3079.15  3080.27  3080.50  3082.66  3083.01
eigval :     3083.18  3083.35  3089.39  3089.87  3090.01  3090.21
eigval :     3091.43  3091.82  3091.85  3092.28  3096.96  3097.21
eigval :     3098.83  3099.14  3099.31  3099.92  3100.89  3101.17

   temp. (K)  partition function   enthalpy   heat capacity  entropy
                                   cal/mol     cal/K/mol   cal/K/mol   J/K/mol
 298.15  VIB  0.451E+25            32768.272    209.303    203.003
         ROT  0.125E+09              888.752      2.981     40.030
         INT  0.564E+33            33657.024    212.284    243.033
         TR   0.269E+29             1481.254      4.968     46.302
         TOT                       35138.2781   217.2525   289.3359  1210.5815

       T/K    H(0)-H(T)+PV         H(T)/Eh          T*S/Eh         G(T)/Eh
   ------------------------------------------------------------------------
    298.15    0.559964E-01    0.899260E+00    0.137473E+00    0.761787E+00
   ------------------------------------------------------------------------

         :::::::::::::::::::::::::::::::::::::::::::::::::::::
         ::                  THERMODYNAMIC                  ::
         :::::::::::::::::::::::::::::::::::::::::::::::::::::
         :: total free energy        -178.639733317389 Eh   ::
         ::.................................................::
         :: total energy             -179.401520265508 Eh   ::
         :: zero point energy           0.843263365456 Eh   ::
         :: G(RRHO) w/o ZPVE           -0.081476417337 Eh   ::
         :: G(RRHO) contrib.            0.761786948119 Eh   ::
         :::::::::::::::::::::::::::::::::::::::::::::::::::::

           -------------------------------------------------
          | TOTAL ENERGY             -179.401520265508 Eh   |
          | TOTAL ENTHALPY           -178.502260489615 Eh   |
          | TOTAL FREE ENERGY        -178.639733317389 Eh   |
          | GRADIENT NORM               0.000027053496 Eh/α |
          | HOMO-LUMO GAP               0.857255057155 eV   |
           -------------------------------------------------

 * finished run on 2025/08/22 at 13:39:04.596
