   * xtb version 6.7.1 (edcfbbe) compiled by 'albert@albert-system' on 2024-07-22

   ID    Z sym.   atoms
    1    6 C      1-22, 24-26, 28-32, 34, 35, 37-41, 43-45, 47-72
    2    7 N      23, 27, 33, 36, 42, 46
    3    1 H      73-112

          program call               : xtb data2507/toluene/DDPhCz-DPPZ/DDPhCz-DPPZ.xyz --gfn 2 --gbsa toluene --ohess vtight --parallel 40 --molden --ceasefiles --namespace data2507/toluene/DDPhCz-DPPZ/DDPhCz-DPPZ_toluene_S0_preOpt
      * Solvation model:               GBSA
        Solvent                        toluene
        Solvent mass                       9.2140E+01 g/mol
          :  Hamiltonian                  GFN2-xTB          :
 * total energy  :  -179.4094134 Eh     change       -0.1638426E-08 Eh
 * total energy  :  -179.4357462 Eh     change       -0.2633280E-01 Eh
 * total energy  :  -179.4429393 Eh     change       -0.7193118E-02 Eh
 * total energy  :  -179.4450891 Eh     change       -0.2149828E-02 Eh
 * total energy  :  -179.4464807 Eh     change       -0.1391628E-02 Eh
 * total energy  :  -179.4470005 Eh     change       -0.5197720E-03 Eh
 * total energy  :  -179.4473911 Eh     change       -0.3905938E-03 Eh
 * total energy  :  -179.4477905 Eh     change       -0.3994242E-03 Eh
 * total energy  :  -179.4481471 Eh     change       -0.3565682E-03 Eh
 * total energy  :  -179.4484094 Eh     change       -0.2622744E-03 Eh
 * total energy  :  -179.4503505 Eh     change       -0.3831510E-06 Eh
 * total energy  :  -179.4503509 Eh     change       -0.3643871E-06 Eh
 * total energy  :  -179.4503512 Eh     change       -0.3572134E-06 Eh
 * total energy  :  -179.4503515 Eh     change       -0.3051429E-06 Eh
 * total energy  :  -179.4503518 Eh     change       -0.2966823E-06 Eh
 * total energy  :  -179.4503521 Eh     change       -0.2797959E-06 Eh
 * total energy  :  -179.4503524 Eh     change       -0.3313667E-06 Eh
 * total energy  :  -179.4503528 Eh     change       -0.3330201E-06 Eh
 * total energy  :  -179.4503528 Eh     change       -0.4324079E-08 Eh
   *** GEOMETRY OPTIMIZATION CONVERGED AFTER 122 ITERATIONS ***

 final structure:
================
112
 xtb: 6.7.1 (edcfbbe)
C            6.47927200893002        1.90018715831142       -4.10656149114820
C            5.29049344423237        2.12215297032198       -4.78207910940462
C            4.09850249691817        1.64564791440555       -4.26756948756585
C            4.07761864996370        0.93274734724782       -3.07118019775460
C            2.81564536121584        0.41242030539380       -2.52067256068579
C            1.66903126718159        1.21557768444076       -2.50760914716019
C            0.47726846871321        0.77877900651724       -1.96478650910036
C            0.44266547258653       -0.49160590572868       -1.41134652562588
C            1.56307441046644       -1.34585288597768       -1.48810778704064
C            2.75341598797207       -0.88485651578571       -2.02584434796777
C            1.14972138019758       -2.61159885620799       -0.94348595141020
C            1.80281009503954       -3.81886631338041       -0.75417702070354
C            1.11466406474642       -4.88141401785423       -0.18053246208866
C            1.78035366771006       -6.17824453591561        0.02346908232471
C            1.11171871399052       -7.37157768429718       -0.24220915016031
C            1.73872189799349       -8.58896375452896       -0.05010379930676
C            3.04209492292409       -8.63631117303630        0.41654129986991
C            3.71699205143974       -7.45663046304770        0.68388768220808
C            3.09335624484752       -6.23867558473950        0.48582170206772
C           -0.21898068149963       -4.70858482781848        0.21216248633571
C           -0.88623152967798       -3.51209632843158        0.03825526422288
C           -0.20013904497965       -2.46455231034617       -0.55683559910899
N           -0.61368202120447       -1.16771776350927       -0.82289015778468
C           -1.81609143493254       -0.59744509227359       -0.40483904971290
C           -3.00977188413679       -1.19066228472157       -0.73279399151916
C           -4.23324706471104       -0.61381249284213       -0.34378219667636
N           -5.38749453234047       -1.21271144977011       -0.66774488524602
C           -6.51298745896978       -0.62339216170149       -0.30328699515871
C           -7.77146325620325       -1.25171406019352       -0.63408401467746
C           -7.82227537919839       -2.46938640202054       -1.32216320073697
C           -9.04965976100304       -3.02510318576767       -1.60902901444788
C          -10.19432446748226       -2.34081966808246       -1.19687915759803
N          -10.16786172109383       -1.19812645722007       -0.55010910345653
C           -8.98881337976250       -0.64600177435454       -0.26356559759147
C           -8.98128447865531        0.61956422568277        0.45409292549266
N          -10.15393574008421        1.16189306887553        0.78242123983039
C          -10.16690990477938        2.30394958096318        1.43070947149108
C           -9.01404442525688        2.99735337258652        1.80269536204774
C           -7.79299633534885        2.45195598839524        1.47224242421719
C           -7.75653076101932        1.23490696936820        0.78208233837475
C           -6.50541667955459        0.61574062249040        0.40857302745452
N           -5.37239108585886        1.21251727963835        0.73558026879180
C           -4.22554478411875        0.62004988160218        0.37549797599983
C           -2.99374983333763        1.20115135560285        0.73025272191223
C           -1.80772278464674        0.60916715659947        0.37382051116573
N           -0.59673075642535        1.17745583541699        0.76949472238950
C            0.46266381370966        0.50085970916986        1.35023850772988
C            0.49986093531978       -0.77124364346021        1.89959749400353
C            1.69483170291514       -1.21054276508576        2.43153941800253
C            2.83906105520053       -0.40265984426450        2.45468423700453
C            4.09458627553817       -0.92954429032944        3.01279494187517
C            4.89786809455877       -0.14444561298767        3.83704522548126
C            6.07365123031085       -0.64862066494003        4.36229218059745
C            6.47040867723438       -1.94275368367859        4.06819724178955
C            5.68145722379694       -2.73150059279214        3.24679557269070
C            4.50308639965055       -2.23040892919725        2.72531508379493
C            2.77225134845884        0.89769750878214        1.96821499911377
C            1.58308370906337        1.35540551720536        1.42405096191368
C            1.16677397023303        2.62176711517941        0.88238808476202
C            1.81590539246907        3.83146415092814        0.69501349267593
C            1.12330588896642        4.89314511787302        0.12490837229861
C            1.78356933250814        6.19381242688675       -0.07140486833453
C            2.60669723193175        6.72554489725937        0.91937877599613
C            3.22070759501768        7.95188230104619        0.74340514391295
C            3.02700084484325        8.66676223763571       -0.42717302883482
C            2.21458411420459        8.14617180380281       -1.42099721358674
C            1.59661105196598        6.92170776825665       -1.24468670700760
C           -0.21192681702345        4.71952608770112       -0.26146472454123
C           -0.87828202711076        3.52352604455702       -0.08104401844596
C           -0.18591932348992        2.47507243063690        0.50481954754059
C            5.27904843258591        0.71441735658228       -2.40025255074013
C            6.46913736481804        1.19719497187035       -2.91289287479399
H            7.40965887078876        2.27426708107701       -4.50849243249142
H            5.29308762706441        2.66723092476909       -5.71531918985223
H            3.17602906135233        1.80768261899489       -4.80662027694323
H            1.72411518795410        2.21299981378046       -2.91742770406235
H           -0.39765877307439        1.41111229730777       -1.98073153221478
H            3.61515734711649       -1.53240470807582       -2.08112187716376
H            2.82951516287024       -3.93490721536552       -1.06628610836090
H            0.10031966216875       -7.34249942592894       -0.62144447965461
H            1.20890985265797       -9.50568262643648       -0.26679808170720
H            3.52966199366123       -9.58802288371757        0.56988228501447
H            4.73332404851311       -7.48675593054262        1.05019262333586
H            3.62215254587609       -5.32317855757256        0.70722834817817
H           -0.73443125436876       -5.53113141094982        0.68537738773926
H           -1.90854929153220       -3.40149137821284        0.36849855455250
H           -3.03324676925299       -2.09216762341838       -1.32496676398184
H           -6.89532671881751       -2.94161708986180       -1.61020739066057
H           -9.13073940408415       -3.96197940690982       -2.13708273344574
H          -11.18201840218729       -2.73501734117726       -1.39864071948624
H          -11.15002593755751        2.68994883796639        1.66765864771593
H           -9.08407053222211        3.93321521482143        2.33412903735622
H           -6.86050024278925        2.93172155910815        1.72812675475153
H           -3.00355362999106        2.10258063784678        1.32298410230622
H           -0.37711353114739       -1.40035281937812        1.92652393946470
H            1.74185341590847       -2.19797187654489        2.86595855979656
H            4.58578916622499        0.85989112525888        4.08490951001503
H            6.68219502032299       -0.03032472789142        5.00684291287887
H            7.38950231234190       -2.33534881227734        4.47832221687353
H            5.98778622099729       -3.74115101898134        3.01256257009264
H            3.89492322191293       -2.84283499229546        2.07567379017339
H            3.63969453831555        1.53918538304123        1.99670606597427
H            2.85476545114015        3.93889715080115        0.96695326084950
H            2.74744849789961        6.18101323755425        1.84207720268976
H            3.85059329629808        8.35392693399047        1.52419228121389
H            3.50670559013130        9.62499356968664       -0.56417824168779
H            2.06300848222101        8.69697269704532       -2.33849000484128
H            0.97713917369988        6.51534337757697       -2.03133317388124
H           -0.74259678401260        5.55400222217498       -0.69533308740059
H           -1.90644743802980        3.41574845932766       -0.39353329357918
H            5.27277813179668        0.17806736046088       -1.46181217320039
H            7.39300689147406        1.02530215002190       -2.37907507664172

          :  Hamiltonian                  GFN2-xTB          :
         :: gradient norm              0.000048410535 Eh/a0 ::
         :: HOMO-LUMO gap              1.273152868309 eV    ::
         :: SCC energy              -182.794415721302 Eh    ::
         :: -> dispersion             -0.174726646899 Eh    ::
         :: -> Gsolv                  -0.073717004298 Eh    ::
         :: repulsion energy           3.344062950942 Eh    ::

    * Orbital Energies and Occupations

         #    Occupation            Energy/Eh            Energy/eV
      -------------------------------------------------------------
         1        2.0000           -0.6971628             -18.9708
       ...           ...                  ...                  ...
       155        2.0000           -0.4038889             -10.9904
       156        2.0000           -0.4032514             -10.9730
       157        2.0000           -0.4021868             -10.9441
       158        2.0000           -0.4013924             -10.9224
       159        2.0000           -0.3953520             -10.7581
       160        2.0000           -0.3949101             -10.7461
       161        2.0000           -0.3849776             -10.4758
       162        2.0000           -0.3804118             -10.3515
       163        2.0000           -0.3776554             -10.2765
       164        2.0000           -0.3766383             -10.2489
       165        2.0000           -0.3705588             -10.0834
       166        2.0000           -0.3681580             -10.0181
       167        2.0000           -0.3678442             -10.0095 (HOMO)
       168                         -0.3210567              -8.7364 (LUMO)
       169                         -0.2897334              -7.8840
       170                         -0.2824756              -7.6866
       171                         -0.2552480              -6.9457
       172                         -0.2526932              -6.8761
       173                         -0.2493715              -6.7857
       174                         -0.2481728              -6.7531
       175                         -0.2459470              -6.6926
       176                         -0.2455165              -6.6808
       177                         -0.2353316              -6.4037
       178                         -0.2319157              -6.3107
       ...                                ...                  ...
       328                          0.7421394              20.1946
      -------------------------------------------------------------
                  HL-Gap            0.0467875 Eh            1.2732 eV

     #   Z          covCN         q      C6AA      α(0)
     1   6 C        2.920    -0.033    28.811     8.802
     2   6 C        2.918    -0.031    28.766     8.795
     3   6 C        2.924    -0.035    28.872     8.812
     4   6 C        2.977     0.010    27.786     8.647
     5   6 C        2.977     0.002    27.972     8.675
     6   6 C        2.929    -0.036    28.906     8.817
     7   6 C        2.909    -0.049    29.207     8.862
     8   6 C        3.073     0.047    26.873     8.500
     9   6 C        3.063    -0.016    28.336     8.729
    10   6 C        2.919    -0.037    28.927     8.820
    11   6 C        3.065    -0.014    28.301     8.724
    12   6 C        2.918    -0.037    28.916     8.818
    13   6 C        2.976     0.002    27.980     8.677
    14   6 C        2.977     0.010    27.796     8.648
    15   6 C        2.925    -0.035    28.882     8.813
    16   6 C        2.918    -0.031    28.767     8.795
    17   6 C        2.920    -0.033    28.811     8.802
    18   6 C        2.918    -0.031    28.763     8.795
    19   6 C        2.925    -0.035    28.861     8.810
    20   6 C        2.929    -0.037    28.921     8.819
    21   6 C        2.908    -0.051    29.266     8.871
    22   6 C        3.070     0.047    26.886     8.502
    23   7 N        2.800    -0.043    22.068     6.977
    24   6 C        2.907     0.059    26.678     8.469
    25   6 C        2.921    -0.062    29.537     8.912
    26   6 C        2.965     0.080    26.203     8.396
    27   7 N        1.848    -0.254    27.462     7.767
    28   6 C        2.959     0.082    26.179     8.392
    29   6 C        2.982    -0.017    28.424     8.745
    30   6 C        2.928    -0.012    28.316     8.727
    31   6 C        2.912    -0.038    28.937     8.821
    32   6 C        2.905     0.064    26.565     8.451
    33   7 N        1.841    -0.218    26.599     7.643
    34   6 C        2.970     0.085    26.104     8.381
    35   6 C        2.970     0.085    26.104     8.381
    36   7 N        1.841    -0.218    26.599     7.643
    37   6 C        2.905     0.064    26.565     8.451
    38   6 C        2.912    -0.038    28.936     8.821
    39   6 C        2.928    -0.012    28.316     8.727
    40   6 C        2.982    -0.017    28.424     8.745
    41   6 C        2.959     0.082    26.179     8.392
    42   7 N        1.848    -0.254    27.462     7.767
    43   6 C        2.965     0.080    26.203     8.396
    44   6 C        2.921    -0.062    29.534     8.912
    45   6 C        2.908     0.059    26.680     8.470
    46   7 N        2.801    -0.043    22.064     6.976
    47   6 C        3.074     0.047    26.868     8.499
    48   6 C        2.909    -0.049    29.208     8.862
    49   6 C        2.930    -0.037    28.913     8.818
    50   6 C        2.977     0.002    27.980     8.677
    51   6 C        2.977     0.010    27.793     8.648
    52   6 C        2.925    -0.035    28.873     8.812
    53   6 C        2.918    -0.031    28.765     8.795
    54   6 C        2.920    -0.033    28.813     8.802
    55   6 C        2.918    -0.030    28.758     8.794
    56   6 C        2.925    -0.034    28.850     8.808
    57   6 C        2.918    -0.037    28.930     8.820
    58   6 C        3.063    -0.016    28.341     8.730
    59   6 C        3.065    -0.014    28.302     8.724
    60   6 C        2.918    -0.037    28.910     8.817
    61   6 C        2.976     0.002    27.978     8.676
    62   6 C        2.977     0.010    27.793     8.648
    63   6 C        2.925    -0.035    28.875     8.812
    64   6 C        2.918    -0.031    28.765     8.795
    65   6 C        2.920    -0.033    28.811     8.802
    66   6 C        2.918    -0.031    28.769     8.796
    67   6 C        2.925    -0.035    28.878     8.813
    68   6 C        2.929    -0.037    28.920     8.819
    69   6 C        2.908    -0.051    29.271     8.871
    70   6 C        3.071     0.046    26.888     8.502
    71   6 C        2.925    -0.034    28.855     8.809
    72   6 C        2.918    -0.030    28.760     8.794
    73   1 H        0.926     0.031     2.575     2.509
    74   1 H        0.926     0.031     2.573     2.509
    75   1 H        0.926     0.031     2.574     2.509
    76   1 H        0.926     0.036     2.503     2.474
    77   1 H        0.926     0.023     2.681     2.561
    78   1 H        0.926     0.040     2.455     2.450
    79   1 H        0.926     0.040     2.453     2.449
    80   1 H        0.926     0.032     2.562     2.503
    81   1 H        0.926     0.031     2.579     2.511
    82   1 H        0.926     0.030     2.583     2.513
    83   1 H        0.926     0.031     2.572     2.508
    84   1 H        0.926     0.032     2.562     2.503
    85   1 H        0.926     0.038     2.471     2.458
    86   1 H        0.926     0.029     2.598     2.520
    87   1 H        0.926     0.067     2.113     2.273
    88   1 H        0.926     0.065     2.145     2.290
    89   1 H        0.926     0.058     2.226     2.333
    90   1 H        0.925     0.054     2.274     2.358
    91   1 H        0.925     0.054     2.274     2.358
    92   1 H        0.926     0.058     2.226     2.333
    93   1 H        0.926     0.065     2.146     2.291
    94   1 H        0.926     0.067     2.115     2.274
    95   1 H        0.926     0.023     2.687     2.563
    96   1 H        0.926     0.036     2.504     2.474
    97   1 H        0.926     0.032     2.558     2.501
    98   1 H        0.926     0.031     2.571     2.508
    99   1 H        0.926     0.031     2.577     2.510
   100   1 H        0.926     0.031     2.571     2.508
   101   1 H        0.926     0.030     2.582     2.513
   102   1 H        0.926     0.040     2.449     2.447
   103   1 H        0.926     0.040     2.455     2.450
   104   1 H        0.926     0.032     2.554     2.499
   105   1 H        0.926     0.031     2.571     2.508
   106   1 H        0.926     0.030     2.580     2.512
   107   1 H        0.926     0.031     2.577     2.511
   108   1 H        0.926     0.031     2.569     2.506
   109   1 H        0.926     0.039     2.468     2.457
   110   1 H        0.926     0.029     2.594     2.519
   111   1 H        0.926     0.032     2.559     2.502
   112   1 H        0.926     0.031     2.567     2.505

molecular dipole:
                 x           y           z       tot (Debye)
 q only:        0.919       0.015      -0.001
   full:        1.299       0.022      -0.011       3.303

 projected vibrational frequencies (cm⁻¹)
eigval :       -0.00    -0.00    -0.00     0.00     0.00     0.00
eigval :      -10.81     6.32    11.31    14.19    18.42    19.75
eigval :       34.66    35.67    37.04    39.60    41.95    48.35
eigval :       49.86    55.83    63.13    65.91    67.83    72.22
eigval :       82.05    86.17    91.89    97.31   104.11   111.57
eigval :      122.93   124.21   132.62   142.59   143.80   154.18
eigval :      167.12   172.56   176.20   192.73   213.48   228.19
eigval :      229.21   242.94   247.27   249.37   263.55   271.69
eigval :      277.15   279.49   287.28   302.07   308.22   316.41
eigval :      331.04   335.35   355.61   361.99   370.15   371.26
eigval :      372.09   372.83   378.97   380.29   383.92   395.57
eigval :      400.43   401.95   406.61   419.53   432.95   434.29
eigval :      439.96   440.98   447.12   451.23   457.15   475.24
eigval :      476.85   483.32   487.49   496.92   504.14   519.74
eigval :      527.77   532.34   551.15   556.19   563.89   570.68
eigval :      571.14   576.66   584.43   586.24   586.35   591.73
eigval :      592.17   594.12   596.73   600.36   605.02   613.26
eigval :      623.40   626.10   631.48   640.51   645.27   665.98
eigval :      667.28   667.73   673.30   674.27   684.47   685.95
eigval :      691.86   700.12   704.04   706.65   706.88   707.98
eigval :      727.32   735.98   742.01   745.40   748.59   755.26
eigval :      756.95   758.75   759.13   775.33   786.65   793.19
eigval :      809.22   823.55   827.71   831.52   832.63   843.72
eigval :      845.81   854.63   863.83   870.91   871.92   873.59
eigval :      875.01   876.57   878.27   881.12   882.56   883.42
eigval :      888.90   899.68   901.47   902.35   902.72   904.16
eigval :      906.68   913.72   914.57   915.72   918.65   920.18
eigval :      920.62   924.54   925.66   927.58   928.33   929.29
eigval :      930.19   931.15   931.85   932.33   933.19   953.02
eigval :      960.43   971.66   971.81   981.00   981.75  1027.53
eigval :     1028.16  1047.06  1068.85  1069.18  1071.81  1072.14
eigval :     1072.61  1084.23  1084.84  1085.37  1085.87  1090.71
eigval :     1096.34  1102.19  1119.27  1119.89  1120.58  1121.05
eigval :     1121.91  1132.49  1134.86  1157.36  1158.36  1174.56
eigval :     1179.87  1180.39  1181.63  1181.90  1183.26  1186.09
eigval :     1193.78  1197.77  1198.34  1200.64  1200.74  1216.11
eigval :     1217.98  1219.25  1219.97  1220.39  1234.97  1239.40
eigval :     1249.81  1270.02  1270.93  1278.26  1279.38  1279.93
eigval :     1280.42  1280.64  1281.01  1283.52  1294.76  1298.03
eigval :     1302.78  1303.14  1305.94  1315.03  1316.11  1316.53
eigval :     1316.75  1317.77  1321.86  1343.78  1344.16  1347.03
eigval :     1350.33  1356.54  1357.22  1379.88  1387.35  1399.42
eigval :     1407.19  1407.59  1423.71  1425.86  1428.93  1429.07
eigval :     1431.72  1431.89  1435.37  1441.35  1448.70  1458.31
eigval :     1458.80  1463.38  1465.96  1467.30  1467.43  1491.61
eigval :     1492.07  1492.30  1494.87  1495.07  1517.60  1539.35
eigval :     1548.98  1560.02  1563.55  1565.01  1573.20  1575.17
eigval :     1575.47  1579.98  1581.30  1581.57  1583.44  1583.59
eigval :     1592.84  1593.57  1596.26  1596.73  1601.69  1602.04
eigval :     1612.52  1613.26  3055.79  3056.00  3065.01  3065.13
eigval :     3065.72  3066.37  3066.65  3067.22  3067.61  3068.19
eigval :     3074.18  3075.66  3075.75  3076.40  3076.51  3077.19
eigval :     3077.62  3078.61  3079.07  3080.54  3081.72  3081.90
eigval :     3087.37  3087.82  3087.89  3088.75  3089.01  3089.42
eigval :     3090.65  3091.03  3091.99  3092.29  3092.38  3092.84
eigval :     3094.77  3094.85  3102.26  3102.75  3103.65  3104.20

   temp. (K)  partition function   enthalpy   heat capacity  entropy
                                   cal/mol     cal/K/mol   cal/K/mol   J/K/mol
 298.15  VIB  0.172E+27            32742.906    206.674    205.222
         ROT  0.271E+09              888.752      2.981     41.567
         INT  0.466E+35            33631.658    209.655    246.788
         TR   0.269E+29             1481.254      4.968     46.302
         TOT                       35112.9122   214.6231   293.0907  1226.2916

       T/K    H(0)-H(T)+PV         H(T)/Eh          T*S/Eh         G(T)/Eh
   ------------------------------------------------------------------------
    298.15    0.559560E-01    0.902341E+00    0.139257E+00    0.763084E+00
   ------------------------------------------------------------------------

         :::::::::::::::::::::::::::::::::::::::::::::::::::::
         ::                  THERMODYNAMIC                  ::
         :::::::::::::::::::::::::::::::::::::::::::::::::::::
         :: total free energy        -178.687269118525 Eh   ::
         ::.................................................::
         :: total energy             -179.450352771217 Eh   ::
         :: zero point energy           0.846384528567 Eh   ::
         :: G(RRHO) w/o ZPVE           -0.083300875876 Eh   ::
         :: G(RRHO) contrib.            0.763083652691 Eh   ::
         :::::::::::::::::::::::::::::::::::::::::::::::::::::

           -------------------------------------------------
          | TOTAL ENERGY             -179.450352771217 Eh   |
          | TOTAL ENTHALPY           -178.548012255335 Eh   |
          | TOTAL FREE ENERGY        -178.687269118525 Eh   |
          | GRADIENT NORM               0.000048411022 Eh/α |
          | HOMO-LUMO GAP               1.273152117362 eV   |
           -------------------------------------------------

 * finished run on 2025/08/22 at 13:30:49.901
