   * xtb version 6.7.1 (edcfbbe) compiled by 'albert@albert-system' on 2024-07-22

   ID    Z sym.   atoms
    1    6 C      1-22, 24-26, 28-32, 34, 35, 37-41, 43-45, 47-72
    2    7 N      23, 27, 33, 36, 42, 46
    3    1 H      73-112

          program call               : xtb data2507/toluene/DDPhCz-DPPZ/DDPhCz-DPPZ_toluene_S0_crest.xyz --gfn 2 --gbsa toluene --ohess vtight --parallel 40 --molden --ceasefiles --namespace data2507/toluene/DDPhCz-DPPZ/DDPhCz-DPPZ_toluene_S0_finalOpt
      * Solvation model:               GBSA
        Solvent                        toluene
        Solvent mass                       9.2140E+01 g/mol
          :  Hamiltonian                  GFN2-xTB          :
 * total energy  :  -179.4477946 Eh     change       -0.2063928E-08 Eh
 * total energy  :  -179.4478671 Eh     change       -0.7255147E-04 Eh
 * total energy  :  -179.4479598 Eh     change       -0.9271137E-04 Eh
 * total energy  :  -179.4480229 Eh     change       -0.6305197E-04 Eh
 * total energy  :  -179.4481053 Eh     change       -0.8244043E-04 Eh
 * total energy  :  -179.4482086 Eh     change       -0.1032263E-03 Eh
 * total energy  :  -179.4482900 Eh     change       -0.8145906E-04 Eh
 * total energy  :  -179.4483642 Eh     change       -0.7416811E-04 Eh
 * total energy  :  -179.4484116 Eh     change       -0.4738971E-04 Eh
 * total energy  :  -179.4484612 Eh     change       -0.4962886E-04 Eh
 * total energy  :  -179.4496316 Eh     change       -0.2930614E-06 Eh
 * total energy  :  -179.4496318 Eh     change       -0.2000945E-06 Eh
 * total energy  :  -179.4496320 Eh     change       -0.1683601E-06 Eh
 * total energy  :  -179.4496322 Eh     change       -0.1742166E-06 Eh
 * total energy  :  -179.4496323 Eh     change       -0.1836611E-06 Eh
 * total energy  :  -179.4496325 Eh     change       -0.1611153E-06 Eh
 * total energy  :  -179.4496326 Eh     change       -0.1241287E-06 Eh
 * total energy  :  -179.4496327 Eh     change       -0.1021799E-06 Eh
 * total energy  :  -179.4496327 Eh     change       -0.1765045E-08 Eh
   *** GEOMETRY OPTIMIZATION CONVERGED AFTER 68 ITERATIONS ***

 final structure:
================
112
 xtb: 6.7.1 (edcfbbe)
C            6.20359585009611        4.50143431806074       -2.43338204373297
C            5.05800000936722        4.70221535102978       -3.18532708349917
C            3.98071362686355        3.84528414755919       -3.05480302280123
C            4.03353882578331        2.76724139410085       -2.17448992340807
C            2.87567001237617        1.87779585093142       -1.99029329209936
C            1.59512673668813        2.43338047956922       -1.88220165603203
C            0.48421961221948        1.65732893690036       -1.62386216097140
C            0.67048458004728        0.29334740516069       -1.46986110979894
C            1.93527921173747       -0.29974820112024       -1.65751815669901
C            3.04068565511559        0.50007813993437       -1.90312914094710
C            1.73591510892490       -1.71916235274226       -1.52081314244626
C            2.59702781462122       -2.80286404128926       -1.54861984653595
C            2.09340819361797       -4.08049601544738       -1.33369938243729
C            3.00284272217145       -5.23656812771666       -1.31014455476429
C            4.06972998918199       -5.32462298285720       -2.20243548138778
C            4.93796186989928       -6.39970278592352       -2.16176816562318
C            4.75961722830840       -7.40559945557437       -1.22647389973951
C            3.70207557343399       -7.33069690787171       -0.33543525632066
C            2.83075293384699       -6.25834723956052       -0.37846398459124
C            0.71981458046649       -4.25329374920663       -1.11851427273860
C           -0.15719068958878       -3.18711311796825       -1.08204874667721
C            0.35999328958145       -1.91524544605940       -1.26563031705067
N           -0.27573894426508       -0.68474047665227       -1.20815631742890
C           -1.50403042201057       -0.39634465161516       -0.60029190970119
C           -2.68681825757112       -0.82411471920384       -1.14034967856979
C           -3.91365305610440       -0.42748326063783       -0.56899057782087
N           -5.06523942493457       -0.84422421586847       -1.11181285802356
C           -6.19466714911981       -0.41974091989270       -0.57206399013150
C           -7.45001468037476       -0.85067202561506       -1.14307819260771
C           -7.49482069978435       -1.69922731022649       -2.25524042539471
C           -8.71995762831060       -2.07777942387960       -2.75857933977831
C           -9.86829482728390       -1.59437643944925       -2.12907696902551
N           -9.84717915875579       -0.79756258965331       -1.08535131987073
C           -8.67058898401813       -0.41916158117809       -0.58594841305479
C           -8.66914184246458        0.46565634138285        0.56907762821697
N           -9.84447459338205        0.85030949076858        1.06666780557083
C           -9.86295568932163        1.64716376722571        2.11041261671816
C           -8.71303305386636        2.12426352243125        2.74184046990711
C           -7.48915182714271        1.73934011129470        2.24029015303437
C           -7.44716048944136        0.89075086050192        1.12804450319139
C           -6.19323965352411        0.45333553422488        0.55885397477260
N           -5.06244323402105        0.87178667725106        1.10043928864001
C           -3.91221666791698        0.44891587112884        0.55948172884953
C           -2.68419803332289        0.83898729240540        1.13282766510661
C           -1.50283871710644        0.40500946639127        0.59460924417861
N           -0.27397543048347        0.68654522176572        1.20457098662969
C            0.66605318630890       -0.29704355099492        1.46800974845857
C            0.47156033784997       -1.65990604167697        1.62176287163503
C            1.57743456352592       -2.44240631973802        1.88224185994402
C            2.86100999716361       -1.89431731827498        1.99270448495253
C            4.01339493306917       -2.79028598593162        2.17964050361494
C            5.18052008676429       -2.59467884186716        1.44512621471460
C            6.24862256336796       -3.46311881910020        1.57211853390555
C            6.17355335952346       -4.53594665833099        2.44466102670786
C            5.02463253705322       -4.73086147702072        3.19307308880478
C            3.95228666984325       -3.86822180919104        3.05956089120447
C            3.03419275743356       -0.51758542456589        1.90570242415253
C            1.93393419219253        0.28865071848882        1.65797469359659
C            1.74309079796709        1.70919748848552        1.52097137046788
C            2.61052046977475        2.78779503317310        1.55051094486989
C            2.11481872109100        4.06841273347925        1.33496317787324
C            3.03107427558417        5.21911738590546        1.31318514395007
C            4.09728703816880        5.30047502338558        2.20692583893395
C            4.97199368100212        6.37034644968365        2.16779426441829
C            4.80088528263474        7.37766802799414        1.23268073622416
C            3.74404115934092        7.30946863803858        0.34028298051967
C            2.86629354866593        6.24230442353857        0.38172510056872
C            0.74263370061103        4.24927523771483        1.11742945265720
C           -0.14056616201847        3.18827675699006        1.07908613404454
C            0.36879395549379        1.91333690547567        1.26330300632914
C            5.19747951214943        2.56548628884620       -1.43660818686632
C            6.27048701158794        3.42830222430561       -1.56054530209941
H            7.04074904934106        5.17747298388920       -2.52834122645875
H            5.00320087901368        5.53211699625018       -3.87540992495473
H            3.09347414143445        4.00266439331244       -3.65134285769032
H            1.47949366115762        3.50240307345672       -1.97238398650210
H           -0.49731052768179        2.10055868632148       -1.53978653675810
H            4.01543087232730        0.05797437230561       -2.04230453396310
H            3.65404582884368       -2.65111796296348       -1.70159555897216
H            4.20648612270849       -4.55343272596888       -2.94670636240027
H            5.75724006527457       -6.45460502813306       -2.86455923632346
H            5.44040018746376       -8.24375602845950       -1.19298733452065
H            3.55782564358249       -8.11029613204755        0.39902282094843
H            2.02034117549464       -6.19981889640840        0.33339996826626
H            0.33322721208241       -5.25316218816869       -0.98770167153959
H           -1.21064171264788       -3.34271624436234       -0.90169697655943
H           -2.70308869637727       -1.43512392139162       -2.02964780244777
H           -6.56539214259096       -2.03434045859393       -2.69001627838049
H           -8.79642408342265       -2.72911869190146       -3.61478910442118
H          -10.85428691008885       -1.86380452210168       -2.48519540520667
H          -10.84803251648621        1.92188849069255        2.46501393138105
H           -8.78735435431758        2.77574241704358        3.59813646575423
H           -6.55860280774475        2.06941016009761        2.67653274826647
H           -2.69862658577957        1.44991764655462        2.02221049495751
H           -0.51239463324731       -2.09738796345160        1.53594170188966
H            1.45532512200179       -3.51071253565169        1.97232389264870
H            5.23702460811757       -1.76782856227215        0.75250515260692
H            7.14267576761247       -3.30554180117123        0.98571665573463
H            7.00684432711704       -5.21638940799336        2.54208287405229
H            4.96340525322456       -5.56058081450288        3.88283991556013
H            3.06250668264093       -4.02102582580838        3.65349633519893
H            4.01121413251769       -0.08112721431547        2.04670927629351
H            3.66634477957026        2.62975280482175        1.70533012402152
H            4.22843347226545        4.52823311551581        2.95111552773291
H            5.79070176253837        6.42006448353090        2.87163545343277
H            5.48683436003727        8.21164097801208        1.20034355160097
H            3.60537354949712        8.09023908183052       -0.39400714512651
H            2.05649172689120        6.18890033179043       -0.33123851001394
H            0.36213790642324        5.25143419998708        0.98630318339650
H           -1.19274343501643        3.35020772703781        0.89686753673635
H            5.24757602590927        1.73841365596232       -0.74376061799501
H            7.16195022307242        3.26614295345101       -0.97145740740960

          :  Hamiltonian                  GFN2-xTB          :
         :: gradient norm              0.000028627329 Eh/a0 ::
         :: HOMO-LUMO gap              1.183336727938 eV    ::
         :: SCC energy              -182.795350431438 Eh    ::
         :: -> dispersion             -0.187262705769 Eh    ::
         :: -> Gsolv                  -0.069995883237 Eh    ::
         :: repulsion energy           3.345717695640 Eh    ::

    * Orbital Energies and Occupations

         #    Occupation            Energy/Eh            Energy/eV
      -------------------------------------------------------------
         1        2.0000           -0.6978419             -18.9892
       ...           ...                  ...                  ...
       155        2.0000           -0.4028435             -10.9619
       156        2.0000           -0.4028184             -10.9612
       157        2.0000           -0.4026029             -10.9554
       158        2.0000           -0.4017712             -10.9328
       159        2.0000           -0.3945323             -10.7358
       160        2.0000           -0.3939031             -10.7186
       161        2.0000           -0.3825619             -10.4100
       162        2.0000           -0.3797680             -10.3340
       163        2.0000           -0.3784058             -10.2969
       164        2.0000           -0.3773256             -10.2676
       165        2.0000           -0.3721176             -10.1258
       166        2.0000           -0.3680787             -10.0159
       167        2.0000           -0.3658710              -9.9559 (HOMO)
       168                         -0.3223842              -8.7725 (LUMO)
       169                         -0.2912617              -7.9256
       170                         -0.2832511              -7.7077
       171                         -0.2552048              -6.9445
       172                         -0.2521038              -6.8601
       173                         -0.2498014              -6.7974
       174                         -0.2482573              -6.7554
       175                         -0.2458213              -6.6891
       176                         -0.2446276              -6.6567
       177                         -0.2360115              -6.4222
       178                         -0.2330704              -6.3422
       ...                                ...                  ...
       328                          0.7433953              20.2288
      -------------------------------------------------------------
                  HL-Gap            0.0434868 Eh            1.1833 eV

     #   Z          covCN         q      C6AA      α(0)
     1   6 C        2.920    -0.032    28.807     8.802
     2   6 C        2.918    -0.030    28.758     8.794
     3   6 C        2.925    -0.035    28.869     8.811
     4   6 C        2.977     0.010    27.785     8.646
     5   6 C        2.977     0.002    27.974     8.676
     6   6 C        2.931    -0.036    28.906     8.817
     7   6 C        2.909    -0.049    29.212     8.863
     8   6 C        3.086     0.048    26.820     8.489
     9   6 C        3.057    -0.016    28.345     8.731
    10   6 C        2.918    -0.037    28.930     8.820
    11   6 C        3.068    -0.015    28.319     8.726
    12   6 C        2.919    -0.036    28.904     8.816
    13   6 C        2.976     0.002    27.987     8.678
    14   6 C        2.977     0.010    27.792     8.647
    15   6 C        2.925    -0.035    28.876     8.812
    16   6 C        2.918    -0.031    28.766     8.795
    17   6 C        2.920    -0.033    28.813     8.802
    18   6 C        2.918    -0.031    28.767     8.795
    19   6 C        2.925    -0.035    28.862     8.810
    20   6 C        2.929    -0.037    28.913     8.818
    21   6 C        2.908    -0.051    29.254     8.869
    22   6 C        3.071     0.049    26.840     8.495
    23   7 N        2.797    -0.054    22.287     7.012
    24   6 C        2.911     0.062    26.616     8.460
    25   6 C        2.918    -0.059    29.477     8.903
    26   6 C        2.965     0.081    26.187     8.394
    27   7 N        1.848    -0.251    27.396     7.757
    28   6 C        2.958     0.082    26.173     8.391
    29   6 C        2.982    -0.017    28.420     8.745
    30   6 C        2.928    -0.012    28.310     8.726
    31   6 C        2.912    -0.037    28.928     8.819
    32   6 C        2.905     0.064    26.560     8.450
    33   7 N        1.841    -0.217    26.573     7.639
    34   6 C        2.969     0.085    26.103     8.380
    35   6 C        2.969     0.085    26.103     8.380
    36   7 N        1.841    -0.217    26.573     7.639
    37   6 C        2.905     0.064    26.560     8.450
    38   6 C        2.912    -0.037    28.928     8.819
    39   6 C        2.928    -0.012    28.310     8.726
    40   6 C        2.982    -0.017    28.420     8.745
    41   6 C        2.958     0.082    26.173     8.391
    42   7 N        1.848    -0.251    27.396     7.757
    43   6 C        2.965     0.081    26.187     8.394
    44   6 C        2.918    -0.059    29.477     8.903
    45   6 C        2.911     0.062    26.616     8.460
    46   7 N        2.797    -0.054    22.287     7.012
    47   6 C        3.086     0.048    26.820     8.489
    48   6 C        2.909    -0.049    29.212     8.863
    49   6 C        2.931    -0.036    28.906     8.817
    50   6 C        2.977     0.002    27.974     8.676
    51   6 C        2.977     0.010    27.786     8.646
    52   6 C        2.926    -0.034    28.841     8.807
    53   6 C        2.918    -0.030    28.758     8.794
    54   6 C        2.920    -0.032    28.807     8.802
    55   6 C        2.918    -0.030    28.758     8.794
    56   6 C        2.925    -0.035    28.869     8.811
    57   6 C        2.918    -0.037    28.930     8.820
    58   6 C        3.057    -0.016    28.345     8.731
    59   6 C        3.068    -0.015    28.319     8.726
    60   6 C        2.919    -0.036    28.904     8.816
    61   6 C        2.976     0.002    27.988     8.678
    62   6 C        2.977     0.010    27.792     8.647
    63   6 C        2.925    -0.035    28.876     8.812
    64   6 C        2.918    -0.031    28.766     8.795
    65   6 C        2.920    -0.033    28.813     8.802
    66   6 C        2.918    -0.031    28.767     8.795
    67   6 C        2.925    -0.035    28.862     8.810
    68   6 C        2.929    -0.037    28.913     8.818
    69   6 C        2.908    -0.051    29.254     8.869
    70   6 C        3.071     0.049    26.840     8.495
    71   6 C        2.926    -0.034    28.841     8.807
    72   6 C        2.918    -0.030    28.758     8.794
    73   1 H        0.926     0.031     2.578     2.511
    74   1 H        0.926     0.031     2.573     2.509
    75   1 H        0.926     0.031     2.577     2.510
    76   1 H        0.926     0.035     2.520     2.482
    77   1 H        0.926     0.021     2.717     2.577
    78   1 H        0.926     0.038     2.471     2.458
    79   1 H        0.926     0.039     2.463     2.454
    80   1 H        0.926     0.032     2.553     2.498
    81   1 H        0.926     0.031     2.570     2.507
    82   1 H        0.926     0.031     2.578     2.511
    83   1 H        0.926     0.030     2.581     2.512
    84   1 H        0.926     0.029     2.594     2.519
    85   1 H        0.926     0.038     2.470     2.457
    86   1 H        0.926     0.029     2.599     2.521
    87   1 H        0.926     0.069     2.100     2.266
    88   1 H        0.926     0.065     2.138     2.287
    89   1 H        0.926     0.058     2.217     2.329
    90   1 H        0.925     0.054     2.265     2.353
    91   1 H        0.925     0.054     2.265     2.353
    92   1 H        0.926     0.058     2.217     2.329
    93   1 H        0.926     0.065     2.138     2.287
    94   1 H        0.926     0.069     2.100     2.266
    95   1 H        0.926     0.021     2.717     2.578
    96   1 H        0.926     0.035     2.520     2.482
    97   1 H        0.926     0.031     2.570     2.507
    98   1 H        0.926     0.031     2.570     2.507
    99   1 H        0.926     0.031     2.578     2.511
   100   1 H        0.926     0.031     2.573     2.509
   101   1 H        0.926     0.031     2.577     2.510
   102   1 H        0.926     0.038     2.471     2.458
   103   1 H        0.926     0.039     2.462     2.454
   104   1 H        0.926     0.032     2.553     2.498
   105   1 H        0.926     0.031     2.570     2.507
   106   1 H        0.926     0.031     2.578     2.511
   107   1 H        0.926     0.030     2.581     2.512
   108   1 H        0.926     0.029     2.594     2.519
   109   1 H        0.926     0.038     2.470     2.457
   110   1 H        0.926     0.029     2.599     2.521
   111   1 H        0.926     0.031     2.570     2.507
   112   1 H        0.926     0.031     2.570     2.507

molecular dipole:
                 x           y           z       tot (Debye)
 q only:        0.660      -0.002       0.001
   full:        1.054      -0.003       0.001       2.678

 projected vibrational frequencies (cm⁻¹)
eigval :       -0.00    -0.00    -0.00     0.00     0.00     0.00
eigval :       13.01    14.89    18.91    19.96    21.14    21.43
eigval :       34.29    36.82    41.58    44.60    50.04    50.51
eigval :       59.21    65.38    66.41    67.79    75.53    79.52
eigval :       81.15    86.97    92.44    97.11   101.86   112.64
eigval :      124.86   129.98   131.73   140.65   141.10   149.35
eigval :      168.39   180.96   188.41   192.10   213.87   219.12
eigval :      227.26   243.81   255.19   255.28   258.88   260.67
eigval :      277.23   280.58   302.13   307.91   312.62   317.80
eigval :      321.54   333.23   342.91   362.19   373.29   373.74
eigval :      376.34   376.52   379.99   390.84   391.58   394.62
eigval :      397.30   398.59   403.68   422.48   432.80   435.17
eigval :      440.51   443.18   443.33   448.22   450.28   475.51
eigval :      476.68   485.20   488.09   500.82   501.85   522.11
eigval :      525.62   533.31   547.88   556.35   561.93   571.06
eigval :      572.46   577.80   585.41   586.52   586.89   589.41
eigval :      592.00   593.90   598.60   600.33   604.40   612.42
eigval :      623.65   626.17   629.21   640.03   648.06   666.35
eigval :      668.79   670.81   673.03   673.30   683.96   685.86
eigval :      693.72   700.42   705.15   706.39   706.61   709.09
eigval :      729.60   736.46   742.82   743.55   748.34   756.27
eigval :      756.56   757.58   757.83   775.16   785.72   789.59
eigval :      806.45   821.90   823.41   826.61   827.23   841.85
eigval :      844.81   854.46   863.23   870.95   871.20   873.48
eigval :      874.80   878.54   878.73   880.78   881.33   881.59
eigval :      882.60   898.69   898.83   901.44   901.89   904.85
eigval :      905.20   910.38   910.47   912.63   913.41   913.47
eigval :      913.80   922.98   923.26   929.08   929.17   929.97
eigval :      930.17   930.33   930.58   933.09   933.15   948.07
eigval :      959.86   971.44   971.64   980.39   981.85  1026.98
eigval :     1027.06  1047.05  1067.71  1068.08  1070.75  1071.16
eigval :     1071.41  1084.68  1085.95  1086.54  1086.63  1089.47
eigval :     1092.01  1100.84  1116.29  1120.28  1120.80  1121.17
eigval :     1121.48  1132.37  1134.67  1154.23  1155.60  1171.46
eigval :     1178.60  1178.88  1179.52  1179.85  1180.47  1182.48
eigval :     1188.21  1200.31  1200.87  1202.50  1202.79  1213.99
eigval :     1215.79  1216.91  1218.58  1219.00  1231.95  1236.86
eigval :     1244.62  1269.76  1270.25  1276.96  1278.75  1280.43
eigval :     1280.88  1281.70  1281.96  1283.13  1291.81  1295.81
eigval :     1303.30  1304.21  1306.32  1314.57  1316.60  1318.12
eigval :     1318.16  1318.92  1321.72  1343.38  1343.69  1347.83
eigval :     1347.90  1356.40  1357.70  1371.81  1385.81  1399.28
eigval :     1407.79  1407.86  1424.30  1425.27  1428.66  1428.74
eigval :     1431.31  1431.77  1433.69  1437.88  1442.23  1458.91
eigval :     1458.94  1465.35  1466.37  1468.00  1468.26  1492.60
eigval :     1492.71  1492.93  1495.28  1495.56  1521.47  1540.59
eigval :     1549.00  1559.73  1564.19  1565.05  1573.05  1576.72
eigval :     1576.98  1581.79  1581.84  1584.42  1584.69  1587.16
eigval :     1593.94  1594.71  1597.56  1597.70  1602.85  1603.08
eigval :     1613.40  1613.96  3055.56  3055.77  3065.81  3065.94
eigval :     3066.25  3066.32  3067.75  3067.93  3068.18  3068.51
eigval :     3073.84  3073.96  3074.95  3076.28  3076.35  3076.53
eigval :     3076.66  3077.03  3080.23  3080.36  3081.09  3082.21
eigval :     3087.52  3087.79  3088.45  3088.87  3089.06  3089.22
eigval :     3089.95  3090.69  3091.68  3091.71  3096.90  3097.14
eigval :     3097.98  3098.25  3101.30  3101.72  3102.00  3102.49

   temp. (K)  partition function   enthalpy   heat capacity  entropy
                                   cal/mol     cal/K/mol   cal/K/mol   J/K/mol
 298.15  VIB  0.805E+25            32612.782    207.709    202.532
         ROT  0.125E+09              888.752      2.981     40.028
         INT  0.100E+34            33501.534    210.690    242.560
         TR   0.269E+29             1481.254      4.968     46.302
         TOT                       34982.7884   215.6578   288.8627  1208.6013

       T/K    H(0)-H(T)+PV         H(T)/Eh          T*S/Eh         G(T)/Eh
   ------------------------------------------------------------------------
    298.15    0.557486E-01    0.902153E+00    0.137248E+00    0.764905E+00
   ------------------------------------------------------------------------

         :::::::::::::::::::::::::::::::::::::::::::::::::::::
         ::                  THERMODYNAMIC                  ::
         :::::::::::::::::::::::::::::::::::::::::::::::::::::
         :: total free energy        -178.684727729888 Eh   ::
         ::.................................................::
         :: total energy             -179.449632733201 Eh   ::
         :: zero point energy           0.846404349099 Eh   ::
         :: G(RRHO) w/o ZPVE           -0.081499345786 Eh   ::
         :: G(RRHO) contrib.            0.764905003313 Eh   ::
         :::::::::::::::::::::::::::::::::::::::::::::::::::::

           -------------------------------------------------
          | TOTAL ENERGY             -179.449632733201 Eh   |
          | TOTAL ENTHALPY           -178.547479762275 Eh   |
          | TOTAL FREE ENERGY        -178.684727729888 Eh   |
          | GRADIENT NORM               0.000028635339 Eh/α |
          | HOMO-LUMO GAP               1.183336231712 eV   |
           -------------------------------------------------

 * finished run on 2025/08/22 at 13:38:47.798
