   * xtb version 6.7.1 (edcfbbe) compiled by 'albert@albert-system' on 2024-07-22

   ID    Z sym.   atoms
    1    6 C      1-20
    2    1 H      21-32

          program call               : xtb data2507/gas/Perylene/Perylene.xyz --gfn 2 --ohess vtight --parallel 40 --molden --ceasefiles --namespace data2507/gas/Perylene/Perylene_gas_S0_preOpt
          :  Hamiltonian                  GFN2-xTB          :
 * total energy  :   -48.9607429 Eh     change       -0.5551613E-09 Eh
 * total energy  :   -48.9665822 Eh     change       -0.5839235E-02 Eh
 * total energy  :   -48.9678453 Eh     change       -0.1263170E-02 Eh
 * total energy  :   -48.9678808 Eh     change       -0.3548323E-04 Eh
 * total energy  :   -48.9678897 Eh     change       -0.8935303E-05 Eh
 * total energy  :   -48.9678901 Eh     change       -0.3865245E-06 Eh
 * total energy  :   -48.9678902 Eh     change       -0.2347097E-07 Eh
   *** GEOMETRY OPTIMIZATION CONVERGED AFTER 7 ITERATIONS ***

 final structure:
================
32
 xtb: 6.7.1 (edcfbbe)
C            2.86073277793056        2.40662909085204       -0.00000048040330
C            3.54354753729911        1.22259134878768       -0.00000012318169
C            2.84411043773552        0.00001640151872        0.00000014028928
C            3.54356163143333       -1.22255045905988        0.00000043463297
C            2.86076052445469       -2.40659609567996        0.00000041066296
C            1.46635245816272       -2.41316907340799        0.00000003387684
C            0.72932987538962       -1.24103572169588        0.00000009369537
C           -0.72931561120164       -1.24104417806990        0.00000016892004
C           -1.46632459025123       -2.41318594519623       -0.00000004079302
C           -2.86073272818079       -2.40662918309034        0.00000017417629
C           -3.54354760748719       -1.22259126182074       -0.00000005425898
C           -2.84411055324130       -0.00001640324468       -0.00000011356193
C           -3.54356170845751        1.22255037369251        0.00000031579542
C           -2.86076048531464        2.40659618570546        0.00000077476461
C           -1.46635243650861        2.41316902985785        0.00000052467256
C           -0.72932993313507        1.24103576389977       -0.00000011716225
C            0.72931555485606        1.24104414283866       -0.00000027118985
C            1.46632461707723        2.41318598644715       -0.00000062663209
C            1.42265676626803        0.00000820535447        0.00000004386919
C           -1.42265682166798       -0.00000820692117        0.00000012724803
H            3.39330118681621        3.34665198132367       -0.00000088630509
H            4.62378119582179        1.20428048958796        0.00000010928269
H            4.62379507987266       -1.20422718916039        0.00000072939906
H            3.39333981219797       -3.34661282333703        0.00000060919264
H            0.97260302230744       -3.37138877549548        0.00000042280896
H           -0.97256403296528       -3.37139999903522       -0.00000050591990
H           -3.39330110880283       -3.34665199582616       -0.00000100140913
H           -4.62378124853990       -1.20428044497382       -0.00000073696356
H           -4.62379513751462        1.20422711934360        0.00000076705876
H           -3.39333971237062        3.34661285247786        0.00000131337694
H           -0.97260292163398        3.37138877444093        0.00000073995745
H            0.97256415965023        3.37140000988652       -0.00000097589929

          :  Hamiltonian                  GFN2-xTB          :
         :: gradient norm              0.000044452430 Eh/a0 ::
         :: HOMO-LUMO gap              1.888485970127 eV    ::
         :: SCC energy               -49.938895311437 Eh    ::
         :: -> dispersion             -0.041729844771 Eh    ::
         :: repulsion energy           0.971005153238 Eh    ::

    * Orbital Energies and Occupations

         #    Occupation            Energy/Eh            Energy/eV
      -------------------------------------------------------------
         1        2.0000           -0.6525439             -17.7566
       ...           ...                  ...                  ...
        34        2.0000           -0.4457406             -12.1292
        35        2.0000           -0.4438218             -12.0770
        36        2.0000           -0.4433692             -12.0647
        37        2.0000           -0.4431152             -12.0578
        38        2.0000           -0.4329982             -11.7825
        39        2.0000           -0.4254629             -11.5774
        40        2.0000           -0.4027814             -10.9602
        41        2.0000           -0.4027258             -10.9587
        42        2.0000           -0.4027204             -10.9586
        43        2.0000           -0.4012175             -10.9177
        44        2.0000           -0.4008297             -10.9071
        45        2.0000           -0.3990712             -10.8593
        46        2.0000           -0.3549660              -9.6591 (HOMO)
        47                         -0.2855654              -7.7706 (LUMO)
        48                         -0.2277096              -6.1963
        49                         -0.2242765              -6.1029
        50                         -0.2237344              -6.0881
        51                         -0.2226700              -6.0592
        52                         -0.1554637              -4.2304
        53                         -0.1541453              -4.1945
        54                         -0.1149967              -3.1292
        55                         -0.0724641              -1.9718
        56                         -0.0202548              -0.5512
        57                          0.0852488               2.3197
       ...                                ...                  ...
        92                          0.7378013              20.0766
      -------------------------------------------------------------
                  HL-Gap            0.0694006 Eh            1.8885 eV

     #   Z          covCN         q      C6AA      α(0)
     1   6 C        2.913    -0.031    28.774     8.796
     2   6 C        2.922    -0.037    28.920     8.819
     3   6 C        2.987     0.012    27.741     8.640
     4   6 C        2.922    -0.037    28.920     8.819
     5   6 C        2.913    -0.031    28.774     8.796
     6   6 C        2.923    -0.037    28.919     8.819
     7   6 C        2.973     0.006    27.890     8.663
     8   6 C        2.973     0.006    27.890     8.663
     9   6 C        2.923    -0.037    28.919     8.819
    10   6 C        2.913    -0.031    28.774     8.796
    11   6 C        2.922    -0.037    28.920     8.819
    12   6 C        2.987     0.012    27.741     8.640
    13   6 C        2.922    -0.037    28.920     8.819
    14   6 C        2.913    -0.031    28.774     8.796
    15   6 C        2.923    -0.037    28.919     8.819
    16   6 C        2.973     0.006    27.890     8.663
    17   6 C        2.973     0.006    27.890     8.663
    18   6 C        2.923    -0.037    28.919     8.819
    19   6 C        2.994     0.004    27.933     8.670
    20   6 C        2.994     0.004    27.933     8.670
    21   1 H        0.926     0.029     2.600     2.522
    22   1 H        0.926     0.031     2.579     2.511
    23   1 H        0.926     0.031     2.579     2.511
    24   1 H        0.926     0.029     2.600     2.522
    25   1 H        0.926     0.032     2.559     2.502
    26   1 H        0.926     0.032     2.559     2.502
    27   1 H        0.926     0.029     2.600     2.522
    28   1 H        0.926     0.031     2.579     2.511
    29   1 H        0.926     0.031     2.579     2.511
    30   1 H        0.926     0.029     2.600     2.522
    31   1 H        0.926     0.032     2.559     2.502
    32   1 H        0.926     0.032     2.559     2.502

molecular dipole:
                 x           y           z       tot (Debye)
 q only:       -0.000      -0.000      -0.000
   full:       -0.000       0.000      -0.000       0.000

 projected vibrational frequencies (cm⁻¹)
eigval :       -0.00    -0.00     0.00     0.00     0.00     0.00
eigval :      -31.21    92.94   108.65   167.14   186.64   222.96
eigval :      254.52   301.72   351.49   353.64   388.65   415.40
eigval :      418.50   427.41   457.54   497.27   503.18   504.67
eigval :      538.15   566.26   568.69   588.43   589.30   622.15
eigval :      642.52   713.70   746.21   748.06   755.28   773.66
eigval :      777.03   778.21   797.23   803.64   850.68   860.02
eigval :      871.50   879.10   884.57   905.62   916.68   919.62
eigval :      922.72   924.89  1007.56  1054.14  1108.22  1122.22
eigval :     1151.49  1156.40  1161.54  1176.14  1191.00  1202.83
eigval :     1217.41  1219.13  1231.26  1239.97  1296.64  1302.74
eigval :     1344.23  1348.08  1348.83  1363.34  1385.33  1388.46
eigval :     1418.23  1425.37  1442.83  1462.66  1496.03  1518.77
eigval :     1536.16  1569.71  1589.82  1592.81  1593.22  1593.75
eigval :     3070.42  3070.63  3072.65  3073.07  3082.01  3082.87
eigval :     3084.46  3086.40  3100.36  3100.82  3113.01  3113.88

   temp. (K)  partition function   enthalpy   heat capacity  entropy
                                   cal/mol     cal/K/mol   cal/K/mol   J/K/mol
 298.15  VIB   551.                 6192.436     50.824     33.240
         ROT  0.101E+07              888.752      2.981     30.449
         INT  0.554E+09             7081.188     53.805     63.688
         TR   0.388E+28             1481.254      4.968     42.457
         TOT                        8562.4422    58.7727   106.1456   444.1133

       T/K    H(0)-H(T)+PV         H(T)/Eh          T*S/Eh         G(T)/Eh
   ------------------------------------------------------------------------
    298.15    0.136451E-01    0.259467E+00    0.504332E-01    0.209033E+00
   ------------------------------------------------------------------------

         :::::::::::::::::::::::::::::::::::::::::::::::::::::
         ::                  THERMODYNAMIC                  ::
         :::::::::::::::::::::::::::::::::::::::::::::::::::::
         :: total free energy         -48.758856839195 Eh   ::
         ::.................................................::
         :: total energy              -48.967890158199 Eh   ::
         :: zero point energy           0.245821411836 Eh   ::
         :: G(RRHO) w/o ZPVE           -0.036788092832 Eh   ::
         :: G(RRHO) contrib.            0.209033319004 Eh   ::
         :::::::::::::::::::::::::::::::::::::::::::::::::::::

           -------------------------------------------------
          | TOTAL ENERGY              -48.967890158199 Eh   |
          | TOTAL ENTHALPY            -48.708423626127 Eh   |
          | TOTAL FREE ENERGY         -48.758856839195 Eh   |
          | GRADIENT NORM               0.000044425808 Eh/α |
          | HOMO-LUMO GAP               1.888485969618 eV   |
           -------------------------------------------------

 * finished run on 2025/09/04 at 12:40:27.546
