   * xtb version 6.7.1 (edcfbbe) compiled by 'albert@albert-system' on 2024-07-22

   ID    Z sym.   atoms
    1    6 C      1-20
    2    1 H      21-32

          program call               : xtb data2507/gas/Perylene/Perylene_gas_S0_finalOpt.xtbopt.xyz --gfn 2 --spinpol --tblite --uhf 2 --ohess vtight --parallel 40 --molden --ceasefiles --namespace data2507/gas/Perylene/Perylene_gas_T1_preOpt
 * total energy  :   -48.9027712 Eh     change       -0.3175280E-08 Eh
 * total energy  :   -48.9088387 Eh     change       -0.6067467E-02 Eh
 * total energy  :   -48.9102448 Eh     change       -0.1406134E-02 Eh
 * total energy  :   -48.9102901 Eh     change       -0.4529128E-04 Eh
 * total energy  :   -48.9103004 Eh     change       -0.1027076E-04 Eh
 * total energy  :   -48.9103026 Eh     change       -0.2148187E-05 Eh
 * total energy  :   -48.9103031 Eh     change       -0.5613940E-06 Eh
 * total energy  :   -48.9103036 Eh     change       -0.4818837E-06 Eh
 * total energy  :   -48.9103041 Eh     change       -0.4516409E-06 Eh
 * total energy  :   -48.9103045 Eh     change       -0.4664032E-06 Eh
 * total energy  :   -48.9103063 Eh     change       -0.3999768E-06 Eh
 * total energy  :   -48.9103067 Eh     change       -0.3886658E-06 Eh
 * total energy  :   -48.9103071 Eh     change       -0.3419732E-06 Eh
 * total energy  :   -48.9103074 Eh     change       -0.3565527E-06 Eh
 * total energy  :   -48.9103077 Eh     change       -0.3103076E-06 Eh
 * total energy  :   -48.9103081 Eh     change       -0.3308756E-06 Eh
 * total energy  :   -48.9103083 Eh     change       -0.2865270E-06 Eh
 * total energy  :   -48.9103087 Eh     change       -0.3092698E-06 Eh
 * total energy  :   -48.9103087 Eh     change       -0.1008502E-07 Eh
   *** GEOMETRY OPTIMIZATION CONVERGED AFTER 22 ITERATIONS ***

 final structure:
================
32
 xtb: 6.7.1 (edcfbbe)
C            2.84116164054500        2.42384812259301        0.04290359334215
C            3.53247617354625        1.22018981718817        0.02114088295327
C            2.83601762427622       -0.00001552420432       -0.00025164777109
C            3.53245107938877       -1.22023704810558       -0.02162362829145
C            2.84110686653938       -2.42387796395274       -0.04348085858032
C            1.46981151699736       -2.43923112871802       -0.03642337165136
C            0.71121446026011       -1.23521297747053       -0.00908853684445
C           -0.71123786679327       -1.23519165334416        0.00891682168498
C           -1.46986581947584       -2.43918092978489        0.03666275742316
C           -2.84116078279370       -2.42379019960581        0.04371326500708
C           -3.53247410813026       -1.22013912150526        0.02144375232301
C           -2.83600935606095        0.00005716135844       -0.00034418743872
C           -3.53243661198620        1.22027298633525       -0.02215453037642
C           -2.84109119826053        2.42390608138521       -0.04432764758023
C           -1.46979679200165        2.43925827662241       -0.03721424682083
C           -0.71120519060602        1.23524813122630       -0.00951496322015
C            0.71124513134285        1.23523296150822        0.00849895077816
C            1.46986762226569        2.43923304015754        0.03578643467299
C            1.41048292804269        0.00000201400881       -0.00028019913271
C           -1.41047466100266        0.00003818215564       -0.00031417005174
H            3.38914676810381        3.35490651304832        0.06527044917793
H            4.61220250268694        1.20842942052950        0.02355498087213
H            4.61217875628817       -1.20850394512799       -0.02397108835957
H            3.38907030729261       -3.35494915789791       -0.06588050452444
H            0.96616462775963       -3.39095364911646       -0.05725965238713
H           -0.96624334500770       -3.39090917613217        0.05782522122722
H           -3.38914811170573       -3.35483965071821        0.06643037033722
H           -4.61220150388268       -1.20837754394455        0.02378560863974
H           -4.61216322281755        1.20853942132285       -0.02456601254223
H           -3.38905243324236        3.35497081302394       -0.06701327716577
H           -0.96615241330421        3.39097512586773       -0.05827116810607
H            0.96624764517722        3.39096993047591        0.05651888987754

 projected vibrational frequencies (cm⁻¹)
eigval :       -0.00    -0.00    -0.00    -0.00     0.00     0.00
eigval :       25.76    73.89   119.37   164.05   167.25   191.68
eigval :      252.50   262.98   352.34   353.06   354.44   418.14
eigval :      433.28   442.49   443.68   450.26   489.68   495.71
eigval :      503.16   554.69   562.80   567.18   578.85   605.76
eigval :      610.94   708.26   727.60   730.89   738.53   739.35
eigval :      750.11   765.91   771.82   775.61   822.69   832.35
eigval :      837.33   838.25   841.63   897.35   905.55   908.57
eigval :      908.61   911.72  1008.79  1009.27  1106.51  1114.00
eigval :     1140.57  1142.45  1147.79  1160.15  1178.04  1200.12
eigval :     1207.10  1222.26  1223.56  1231.18  1288.29  1297.89
eigval :     1303.40  1343.95  1350.12  1367.69  1383.27  1384.89
eigval :     1393.96  1403.63  1404.17  1444.67  1467.73  1472.36
eigval :     1495.21  1499.02  1510.21  1530.58  1531.49  1569.33
eigval :     3071.72  3072.05  3072.87  3073.48  3084.25  3084.58
eigval :     3088.32  3089.48  3108.45  3109.02  3121.62  3122.96

   temp. (K)  partition function   enthalpy   heat capacity  entropy
                                   cal/mol     cal/K/mol   cal/K/mol   J/K/mol
 298.15  VIB  0.776E+04             7029.110     53.349     39.405
         ROT  0.101E+07              888.752      2.981     30.452
         INT  0.782E+10             7917.863     56.330     69.857
         TR   0.388E+28             1481.254      4.968     42.457
         TOT                        9399.1164    61.2985   112.3141   469.9220

       T/K    H(0)-H(T)+PV         H(T)/Eh          T*S/Eh         G(T)/Eh
   ------------------------------------------------------------------------
    298.15    0.149784E-01    0.257646E+00    0.533640E-01    0.204281E+00
   ------------------------------------------------------------------------

         :::::::::::::::::::::::::::::::::::::::::::::::::::::
         ::                  THERMODYNAMIC                  ::
         :::::::::::::::::::::::::::::::::::::::::::::::::::::
         :: total free energy         -48.706027199278 Eh   ::
         ::.................................................::
         :: total energy              -48.910308668517 Eh   ::
         :: zero point energy           0.242667056233 Eh   ::
         :: G(RRHO) w/o ZPVE           -0.038385586994 Eh   ::
         :: G(RRHO) contrib.            0.204281469239 Eh   ::
         :::::::::::::::::::::::::::::::::::::::::::::::::::::

           -------------------------------------------------
          | TOTAL ENERGY              -48.910308668517 Eh   |
          | TOTAL ENTHALPY            -48.652663166839 Eh   |
          | TOTAL FREE ENERGY         -48.706027199278 Eh   |
          | GRADIENT NORM               0.000043371190 Eh/α |
           -------------------------------------------------

 * finished run on 2025/09/04 at 12:41:09.077
