   * xtb version 6.7.1 (edcfbbe) compiled by 'albert@albert-system' on 2024-07-22

   ID    Z sym.   atoms
    1    6 C      1-20
    2    1 H      21-32

          program call               : xtb data2507/gas/Perylene/Perylene_gas_S0_crest.xyz --gfn 2 --ohess vtight --parallel 40 --molden --ceasefiles --namespace data2507/gas/Perylene/Perylene_gas_S0_finalOpt
          :  Hamiltonian                  GFN2-xTB          :
 * total energy  :   -48.9678844 Eh     change       -0.3534879E-09 Eh
 * total energy  :   -48.9678858 Eh     change       -0.1416703E-05 Eh
 * total energy  :   -48.9678865 Eh     change       -0.7392788E-06 Eh
 * total energy  :   -48.9678867 Eh     change       -0.1801577E-06 Eh
 * total energy  :   -48.9678869 Eh     change       -0.2001679E-06 Eh
 * total energy  :   -48.9678871 Eh     change       -0.1591460E-06 Eh
 * total energy  :   -48.9678872 Eh     change       -0.9868771E-07 Eh
   *** GEOMETRY OPTIMIZATION CONVERGED AFTER 7 ITERATIONS ***

 final structure:
================
32
 xtb: 6.7.1 (edcfbbe)
C            2.86013703783003        2.40589012831578        0.06200846888945
C            3.54317101257203        1.22233372216381        0.03127283196337
C            2.84398447841644       -0.00000698936903       -0.00019783884233
C            3.54314337957852       -1.22236977240175       -0.03161102911233
C            2.86008582405690       -2.40590002783997       -0.06267152149023
C            1.46567563750346       -2.41262323994578       -0.05166114867608
C            0.72916291099909       -1.24082688301882       -0.01361341208878
C           -0.72917496235996       -1.24080791460131        0.01329158488264
C           -1.46570497353816       -2.41258313720135        0.05186696721744
C           -2.86010632049490       -2.40582774424822        0.06300987439740
C           -3.54314866023030       -1.22229578975142        0.03139146738288
C           -2.84397631669039        0.00003681488594       -0.00058201041773
C           -3.54314805723792        1.22238300230265       -0.03247847675577
C           -2.86009713578592        2.40591769970636       -0.06340093283245
C           -1.46568953148396        2.41266018623426       -0.05201812432620
C           -0.72915730075142        1.24087692438317       -0.01396623188511
C            0.72918466229522        1.24086630260947        0.01291426906240
C            1.46573476570209        2.41265331174380        0.05071671434252
C            1.42261346407950        0.00001326045652       -0.00027159042497
C           -1.42260514140546        0.00003176611459       -0.00047276399097
H            3.39259870490977        3.34549702367527        0.09220892015938
H            4.62341275944823        1.20420831727060        0.03270838557434
H            4.62338630550122       -1.20426254223713       -0.03284889876473
H            3.39251823195663       -3.34552142700957       -0.09291728074611
H            0.97135316336912       -3.37027912555258       -0.07563408793931
H           -0.97138077728045       -3.37022828331233        0.07621972388942
H           -3.39257206349221       -3.34541334273308        0.09377472950512
H           -4.62339183791503       -1.20419522197156        0.03267536417854
H           -4.62338932973373        1.20423916950177       -0.03407896384558
H           -3.39253212163526        3.34553279476332       -0.09380960923972
H           -0.97139427311881        3.37033723881002       -0.07568371096134
H            0.97143872813561        3.37033212475654        0.07433061999484

          :  Hamiltonian                  GFN2-xTB          :
         :: gradient norm              0.000025599499 Eh/a0 ::
         :: HOMO-LUMO gap              1.888895306463 eV    ::
         :: SCC energy               -49.938886090852 Eh    ::
         :: -> dispersion             -0.041731208325 Eh    ::
         :: repulsion energy           0.970998922152 Eh    ::

    * Orbital Energies and Occupations

         #    Occupation            Energy/Eh            Energy/eV
      -------------------------------------------------------------
         1        2.0000           -0.6525605             -17.7571
       ...           ...                  ...                  ...
        34        2.0000           -0.4457410             -12.1292
        35        2.0000           -0.4439781             -12.0813
        36        2.0000           -0.4432196             -12.0606
        37        2.0000           -0.4431030             -12.0574
        38        2.0000           -0.4330121             -11.7829
        39        2.0000           -0.4254536             -11.5772
        40        2.0000           -0.4027465             -10.9593
        41        2.0000           -0.4027133             -10.9584
        42        2.0000           -0.4027040             -10.9581
        43        2.0000           -0.4016832             -10.9304
        44        2.0000           -0.4003872             -10.8951
        45        2.0000           -0.3990617             -10.8590
        46        2.0000           -0.3549733              -9.6593 (HOMO)
        47                         -0.2855577              -7.7704 (LUMO)
        48                         -0.2277005              -6.1960
        49                         -0.2242882              -6.1032
        50                         -0.2237691              -6.0891
        51                         -0.2226464              -6.0585
        52                         -0.1554912              -4.2311
        53                         -0.1541596              -4.1949
        54                         -0.1150588              -3.1309
        55                         -0.0724790              -1.9723
        56                         -0.0203879              -0.5548
        57                          0.0855091               2.3268
       ...                                ...                  ...
        92                          0.7378074              20.0768
      -------------------------------------------------------------
                  HL-Gap            0.0694156 Eh            1.8889 eV

     #   Z          covCN         q      C6AA      α(0)
     1   6 C        2.913    -0.031    28.773     8.796
     2   6 C        2.921    -0.037    28.920     8.819
     3   6 C        2.986     0.012    27.741     8.640
     4   6 C        2.921    -0.037    28.920     8.819
     5   6 C        2.913    -0.031    28.773     8.796
     6   6 C        2.923    -0.037    28.919     8.819
     7   6 C        2.973     0.006    27.890     8.663
     8   6 C        2.973     0.006    27.890     8.663
     9   6 C        2.923    -0.037    28.919     8.819
    10   6 C        2.913    -0.031    28.773     8.796
    11   6 C        2.921    -0.037    28.920     8.819
    12   6 C        2.986     0.012    27.741     8.640
    13   6 C        2.921    -0.037    28.920     8.819
    14   6 C        2.913    -0.031    28.773     8.796
    15   6 C        2.923    -0.037    28.919     8.819
    16   6 C        2.973     0.006    27.890     8.663
    17   6 C        2.973     0.006    27.890     8.663
    18   6 C        2.923    -0.037    28.919     8.819
    19   6 C        2.994     0.004    27.933     8.670
    20   6 C        2.994     0.004    27.933     8.670
    21   1 H        0.926     0.029     2.600     2.522
    22   1 H        0.926     0.031     2.579     2.511
    23   1 H        0.926     0.031     2.579     2.511
    24   1 H        0.926     0.029     2.600     2.522
    25   1 H        0.926     0.032     2.559     2.502
    26   1 H        0.926     0.032     2.559     2.502
    27   1 H        0.926     0.029     2.600     2.522
    28   1 H        0.926     0.031     2.579     2.511
    29   1 H        0.926     0.031     2.579     2.511
    30   1 H        0.926     0.029     2.600     2.522
    31   1 H        0.926     0.032     2.559     2.502
    32   1 H        0.926     0.032     2.559     2.502

molecular dipole:
                 x           y           z       tot (Debye)
 q only:        0.000       0.000       0.000
   full:       -0.000      -0.000       0.000       0.000

 projected vibrational frequencies (cm⁻¹)
eigval :       -0.00    -0.00    -0.00     0.00     0.00     0.00
eigval :       14.12    82.32   110.24   163.51   180.69   210.33
eigval :      253.81   283.99   351.65   353.42   381.00   418.37
eigval :      419.93   430.06   457.48   496.99   502.56   504.65
eigval :      512.76   566.07   568.74   587.51   589.31   625.52
eigval :      629.38   728.75   748.03   753.43   758.56   773.69
eigval :      777.92   779.85   801.88   804.80   850.75   866.33
eigval :      876.50   879.42   886.91   905.64   917.63   919.71
eigval :      922.94   924.95  1007.61  1054.16  1108.15  1122.14
eigval :     1151.23  1156.32  1161.50  1176.15  1191.05  1202.84
eigval :     1217.20  1219.08  1231.26  1239.50  1296.42  1302.33
eigval :     1344.29  1348.10  1348.84  1363.37  1385.40  1388.54
eigval :     1418.22  1425.33  1442.84  1462.63  1495.93  1518.70
eigval :     1536.21  1569.69  1589.75  1592.72  1593.08  1593.74
eigval :     3070.36  3070.57  3072.58  3073.00  3081.93  3082.80
eigval :     3084.39  3086.33  3100.14  3100.60  3112.65  3113.52

   temp. (K)  partition function   enthalpy   heat capacity  entropy
                                   cal/mol     cal/K/mol   cal/K/mol   J/K/mol
 298.15  VIB  0.101E+05             6818.989     51.853     38.578
         ROT  0.101E+07              888.752      2.981     30.448
         INT  0.102E+11             7707.741     54.834     69.026
         TR   0.388E+28             1481.254      4.968     42.457
         TOT                        9188.9950    59.8018   111.4833   466.4460

       T/K    H(0)-H(T)+PV         H(T)/Eh          T*S/Eh         G(T)/Eh
   ------------------------------------------------------------------------
    298.15    0.146436E-01    0.260402E+00    0.529693E-01    0.207432E+00
   ------------------------------------------------------------------------

         :::::::::::::::::::::::::::::::::::::::::::::::::::::
         ::                  THERMODYNAMIC                  ::
         :::::::::::::::::::::::::::::::::::::::::::::::::::::
         :: total free energy         -48.760454837845 Eh   ::
         ::.................................................::
         :: total energy              -48.967887168700 Eh   ::
         :: zero point energy           0.245758034090 Eh   ::
         :: G(RRHO) w/o ZPVE           -0.038325703235 Eh   ::
         :: G(RRHO) contrib.            0.207432330855 Eh   ::
         :::::::::::::::::::::::::::::::::::::::::::::::::::::

           -------------------------------------------------
          | TOTAL ENERGY              -48.967887168700 Eh   |
          | TOTAL ENTHALPY            -48.707485538942 Eh   |
          | TOTAL FREE ENERGY         -48.760454837845 Eh   |
          | GRADIENT NORM               0.000025600526 Eh/α |
          | HOMO-LUMO GAP               1.888895308119 eV   |
           -------------------------------------------------

 * finished run on 2025/09/04 at 12:41:07.833
