   * xtb version 6.7.1 (edcfbbe) compiled by 'albert@albert-system' on 2024-07-22

   ID    Z sym.   atoms
    1    6 C      1-20
    2    1 H      21-32

          program call               : xtb data2507/gas/Perylene/Perylene_gas_T1_crest.xyz --gfn 2 --spinpol --tblite --uhf 2 --ohess vtight --parallel 40 --molden --ceasefiles --namespace data2507/gas/Perylene/Perylene_gas_T1_finalOpt
 * total energy  :   -48.9103081 Eh     change        0.1318790E-07 Eh
 * total energy  :   -48.9103149 Eh     change       -0.6795766E-05 Eh
 * total energy  :   -48.9103161 Eh     change       -0.1242626E-05 Eh
 * total energy  :   -48.9103165 Eh     change       -0.3174058E-06 Eh
 * total energy  :   -48.9103163 Eh     change        0.2025641E-06 Eh
 * total energy  :   -48.9103165 Eh     change       -0.2480996E-06 Eh
 * total energy  :   -48.9103163 Eh     change        0.1801626E-06 Eh
 * total energy  :   -48.9103165 Eh     change       -0.2144949E-06 Eh
 * total energy  :   -48.9103164 Eh     change        0.1470863E-06 Eh
 * total energy  :   -48.9103166 Eh     change       -0.1819298E-06 Eh
 * total energy  :   -48.9103165 Eh     change        0.1224515E-06 Eh
 * total energy  :   -48.9103166 Eh     change       -0.1474544E-06 Eh
 * total energy  :   -48.9103165 Eh     change        0.8901530E-07 Eh
 * total energy  :   -48.9103166 Eh     change       -0.1205855E-06 Eh
 * total energy  :   -48.9103166 Eh     change        0.6016364E-08 Eh
 * total energy  :   -48.9103167 Eh     change       -0.5286167E-07 Eh
   *** GEOMETRY OPTIMIZATION CONVERGED AFTER 16 ITERATIONS ***

 final structure:
================
32
 xtb: 6.7.1 (edcfbbe)
C            2.84145441112792        2.42416719007467        0.01177698480167
C            3.53266377617132        1.22028980038024        0.00605820689497
C            2.83607128949548       -0.00000511329421        0.00032808645002
C            3.53263653122820       -1.22031142550297       -0.00525087149471
C            2.84141074357728       -2.42417436503382       -0.01116486010337
C            1.47011461906436       -2.43946857237221       -0.00947209752785
C            0.71126914192448       -1.23528379374747       -0.00224711855791
C           -0.71129680127801       -1.23527538867494        0.00244113815932
C           -1.47015583870022       -2.43945090720724        0.00975718718780
C           -2.84145166208553       -2.42414074725502        0.01155334487082
C           -3.53266414224439       -1.22027018304613        0.00563713534305
C           -2.83608551653497        0.00002763904599       -0.00009252552669
C           -3.53266413632105        1.22033009372559       -0.00586759104682
C           -2.84144117985077        2.42419886611899       -0.01178174365287
C           -1.47014020854103        2.43950393457939       -0.00989451805883
C           -0.71128531057664        1.23531622012029       -0.00245479165559
C            0.71128558878100        1.23530830044915        0.00244992247637
C            1.47015396666481        2.43948827661817        0.00978288381679
C            1.41051157032977        0.00000558541179        0.00017516241876
C           -1.41052546986115        0.00002168610882       -0.00003743018919
H            3.38947481346904        3.35545202185310        0.01776211867990
H            4.61239069853663        1.20844596668694        0.00679260435989
H            4.61236729090361       -1.20848423884270       -0.00571347334834
H            3.38941981201990       -3.35546871802348       -0.01703660300035
H            0.96680762007649       -3.39155928649587       -0.01510608945117
H           -0.96685920902436       -3.39154716095683        0.01539845759325
H           -3.38947102422856       -3.35542860165286        0.01754173436045
H           -4.61239425951316       -1.20842994729209        0.00622970000069
H           -4.61238962325052        1.20849905435498       -0.00649333370106
H           -3.38945139811321        3.35548909911885       -0.01783979600876
H           -0.96683658995816        3.39159221832663       -0.01556222274030
H            0.96686128621142        3.39158422152425        0.01525844555006

 projected vibrational frequencies (cm⁻¹)
eigval :       -0.00    -0.00    -0.00    -0.00     0.00     0.00
eigval :       24.31    73.85   118.82   164.13   167.19   191.22
eigval :      253.29   262.42   352.54   353.11   354.34   418.25
eigval :      433.24   442.45   443.43   450.41   490.01   495.74
eigval :      502.84   554.93   562.47   567.22   578.80   605.79
eigval :      610.68   708.26   727.45   730.86   738.52   739.25
eigval :      750.05   765.79   771.78   775.61   822.44   832.42
eigval :      837.20   838.14   841.65   897.36   905.53   908.58
eigval :      908.59   911.73  1008.65  1009.38  1106.96  1114.09
eigval :     1140.55  1142.16  1148.02  1160.28  1177.89  1200.06
eigval :     1206.83  1221.91  1223.60  1231.58  1288.13  1297.77
eigval :     1303.15  1343.54  1349.95  1367.45  1383.26  1384.85
eigval :     1393.91  1403.08  1404.10  1444.64  1467.65  1472.25
eigval :     1495.09  1498.98  1510.09  1530.52  1531.39  1569.29
eigval :     3071.70  3072.04  3072.88  3073.47  3084.30  3084.58
eigval :     3088.33  3089.55  3108.40  3109.05  3121.83  3123.32

   temp. (K)  partition function   enthalpy   heat capacity  entropy
                                   cal/mol     cal/K/mol   cal/K/mol   J/K/mol
 298.15  VIB  0.823E+04             7032.254     53.339     39.453
         ROT  0.101E+07              888.752      2.981     30.452
         INT  0.830E+10             7921.006     56.320     69.905
         TR   0.388E+28             1481.254      4.968     42.457
         TOT                        9402.2603    61.2885   112.3625   470.1248

       T/K    H(0)-H(T)+PV         H(T)/Eh          T*S/Eh         G(T)/Eh
   ------------------------------------------------------------------------
    298.15    0.149835E-01    0.257638E+00    0.533871E-01    0.204251E+00
   ------------------------------------------------------------------------

         :::::::::::::::::::::::::::::::::::::::::::::::::::::
         ::                  THERMODYNAMIC                  ::
         :::::::::::::::::::::::::::::::::::::::::::::::::::::
         :: total free energy         -48.706065363912 Eh   ::
         ::.................................................::
         :: total energy              -48.910316683482 Eh   ::
         :: zero point energy           0.242654929514 Eh   ::
         :: G(RRHO) w/o ZPVE           -0.038403609944 Eh   ::
         :: G(RRHO) contrib.            0.204251319570 Eh   ::
         :::::::::::::::::::::::::::::::::::::::::::::::::::::

           -------------------------------------------------
          | TOTAL ENERGY              -48.910316683482 Eh   |
          | TOTAL ENTHALPY            -48.652678298466 Eh   |
          | TOTAL FREE ENERGY         -48.706065363912 Eh   |
          | GRADIENT NORM               0.000026017345 Eh/α |
           -------------------------------------------------

 * finished run on 2025/09/04 at 12:41:52.896
