   * xtb version 6.7.1 (edcfbbe) compiled by 'albert@albert-system' on 2024-07-22

   ID    Z sym.   atoms
    1    7 N      1, 4, 14, 29, 32, 38, 57, 60
    2    6 C      2, 3, 5-13, 15-28, 30, 31, 33-37, 39-56, 58, 59
    3    1 H      61-92

          program call               : xtb data2507/toluene/CNPP-TPA/CNPP-TPA.xyz --gfn 2 --gbsa toluene --ohess vtight --parallel 40 --molden --ceasefiles --namespace data2507/toluene/CNPP-TPA/CNPP-TPA_toluene_S0_preOpt
      * Solvation model:               GBSA
        Solvent                        toluene
        Solvent mass                       9.2140E+01 g/mol
          :  Hamiltonian                  GFN2-xTB          :
 * total energy  :  -151.0407358 Eh     change       -0.1944508E-07 Eh
 * total energy  :  -151.0641881 Eh     change       -0.2345224E-01 Eh
 * total energy  :  -151.0732660 Eh     change       -0.9077967E-02 Eh
 * total energy  :  -151.0766738 Eh     change       -0.3407831E-02 Eh
 * total energy  :  -151.0784780 Eh     change       -0.1804113E-02 Eh
 * total energy  :  -151.0789745 Eh     change       -0.4965153E-03 Eh
 * total energy  :  -151.0790558 Eh     change       -0.8136335E-04 Eh
 * total energy  :  -151.0794176 Eh     change       -0.3617851E-03 Eh
 * total energy  :  -151.0794794 Eh     change       -0.6174340E-04 Eh
 * total energy  :  -151.0797347 Eh     change       -0.2552815E-03 Eh
 * total energy  :  -151.0804425 Eh     change       -0.3021888E-06 Eh
 * total energy  :  -151.0804428 Eh     change       -0.2602263E-06 Eh
 * total energy  :  -151.0804430 Eh     change       -0.1688991E-06 Eh
 * total energy  :  -151.0804430 Eh     change        0.6321329E-08 Eh
 * total energy  :  -151.0804429 Eh     change        0.2598239E-07 Eh
 * total energy  :  -151.0804430 Eh     change       -0.1130619E-06 Eh
 * total energy  :  -151.0804430 Eh     change        0.3453849E-07 Eh
 * total energy  :  -151.0804431 Eh     change       -0.1165767E-06 Eh
 * total energy  :  -151.0804432 Eh     change       -0.4297789E-07 Eh
   *** GEOMETRY OPTIMIZATION CONVERGED AFTER 49 ITERATIONS ***

 final structure:
================
92
 xtb: 6.7.1 (edcfbbe)
N            1.94305846538348      -11.19989573390407        0.20745521816149
C            1.41021721579260      -10.18577795800323        0.14785573558188
C            0.71059152996622       -8.95902847054545        0.07064850073307
N            1.39186232801446       -7.82467248025292        0.13558334243173
C            0.71527811774771       -6.67817932762043        0.06594593803234
C            1.42910792430749       -5.44016755248134        0.12335494806387
C            2.82932424798953       -5.37838762407515        0.23504303243471
C            3.44884544525552       -4.15669952507957        0.26823531163666
C            2.66669212794865       -2.98308055790792        0.18395639629724
C            3.24094978760128       -1.64661898459537        0.17876423334337
C            4.52672930784483       -1.36695608984545        0.65353367987682
C            5.02565664860486       -0.08547542499131        0.62965895018476
C            4.26497650192987        0.97399934263959        0.11657181118969
N            4.77457324509925        2.25930936356841        0.08294938154948
C            3.92550848027316        3.37792565139140        0.15303853221785
C            4.18451646771499        4.49891755562742       -0.63390254416426
C            3.36391844104319        5.60816544730692       -0.55380395171507
C            2.27375410330645        5.61273932008410        0.30121269731463
C            2.01058724408291        4.49930618757465        1.08292413055692
C            2.83171436551122        3.38942730849999        1.01752334067478
C            6.15986605844261        2.47882992656673       -0.02419477296872
C            6.93327345606575        1.71623579869021       -0.89805223321944
C            8.29283631895547        1.94334057883319       -0.99933561912155
C            8.89647158095665        2.93472538282645       -0.24226198396028
C            8.12926647122086        3.70114776646986        0.62035640670233
C            6.77020862301197        3.47647831299012        0.73380282646969
C            2.97479748309128        0.69621625521282       -0.35703677395040
C            2.47585537165498       -0.58215361888475       -0.31706553170224
N            1.34242519148682       -3.04519879313224        0.08004212803191
C            0.72807024405314       -4.21567351504066        0.05322907795757
C           -0.72322245232309       -4.21645442405426       -0.05472504656410
N           -1.33886097864922       -3.04665382506788       -0.08136889944221
C           -2.66322732530833       -2.98595402816819       -0.18493456667392
C           -3.23892731424586       -1.65010721211822       -0.17946665463179
C           -2.47435468629455       -0.58464289238570        0.31505239519110
C           -2.97460397852964        0.69321522406215        0.35523961525122
C           -4.26575089122050        0.96941406058677       -0.11662458997377
N           -4.77690562690268        2.25412374254892       -0.08262131859846
C           -3.92954759926814        3.37383250358436       -0.15504080528369
C           -4.18913623795796        4.49538898477786        0.63092637920702
C           -3.37029925681154        5.60575771367970        0.54841867727743
C           -2.28125496222413        5.61093901887051       -0.30801908077785
C           -2.01745933181985        4.49694759809688       -1.08871925352611
C           -2.83686397950881        3.38594196364833       -1.02093929837569
C           -6.16229094562405        2.47158919685212        0.02760442276324
C           -6.93233647481108        1.70837550182529        0.90388457483180
C           -8.29203902352331        1.93326715520088        1.00819069773389
C           -8.89911513661359        2.92305285078062        0.25177897098428
C           -8.13523395193754        3.69011311573319       -0.61322254537277
C           -6.77607137538559        3.46763735000196       -0.72971166756163
C           -5.02597941677720       -0.09105240349315       -0.62831565138487
C           -4.52565111923403       -1.37197551851600       -0.65259449902416
C           -3.44409935095488       -4.16044265630792       -0.26910878839438
C           -2.82322565013481       -5.38145309671744       -0.23625982007769
C           -1.42292243955599       -5.44170830610451       -0.12486581581518
C           -0.70772804489527       -6.67894106608043       -0.06773191147251
N           -1.38307102913690       -7.82614831570748       -0.13760240883258
C           -0.70057278765012       -8.95978013756329       -0.07293347767225
C           -1.39889169106252      -10.18726817824537       -0.15037191059639
N           -1.93068664062485      -11.20194022328315       -0.21019742712855
H            3.38784952460668       -6.30123499878249        0.28386968129814
H            4.52300020780603       -4.09592481090877        0.33200575242057
H            5.13159951680079       -2.15061491826998        1.08319913751091
H            6.01073976758212        0.11269487356442        1.02494818482887
H            5.03016377200060        4.49365909041743       -1.30592303468504
H            3.57467511222635        6.47122275679272       -1.16821407625595
H            1.63642878680004        6.48160272936503        0.36186010691866
H            1.16576485990680        4.49737214500825        1.75578488588279
H            2.63461216940596        2.52847219686459        1.63925556677050
H            6.46150242413907        0.95113987186604       -1.49731734850583
H            8.88282495438308        1.34753099913582       -1.68033055934292
H            9.95843367091611        3.11015863677314       -0.32608746909416
H            8.59271333479251        4.47466953410410        1.21495223042510
H            6.17327083621052        4.06962531403391        1.41102503385068
H            2.37654457238319        1.49481286167887       -0.76890803318933
H            1.48651560873902       -0.79778901781487       -0.68806207423680
H           -1.48428560292601       -0.79910064808534        0.68478181745258
H           -2.37664796016727        1.49261302778435        0.76598649465132
H           -5.03388768584880        4.48972467051631        1.30406746046503
H           -3.58153347206101        6.46922264328686        1.16209235036089
H           -1.64527987097776        6.48066166331277       -0.37051706259133
H           -1.17349512002564        4.49542345543937       -1.76265742049567
H           -2.63929532712527        2.52458114419388       -1.64195907997878
H           -6.45786723871328        0.94450562196953        1.50258301229867
H           -8.87942407861232        1.33697320029152        1.69100857765533
H           -9.96117663783064        3.09673459950927        0.33794977224217
H           -8.60139405647237        4.46238608040305       -1.20732673053522
H           -6.18170975934541        4.06128355754873       -1.40876037408229
H           -6.01187735644230        0.10591633683191       -1.02217808584821
H           -5.13029985705870       -2.15638607422255       -1.08118755721222
H           -4.51833701914070       -4.10089332339709       -0.33258874865597
H           -3.38073617132300       -6.30491645756594       -0.28510891502516

          :  Hamiltonian                  GFN2-xTB          :
         :: gradient norm              0.000066904832 Eh/a0 ::
         :: HOMO-LUMO gap              0.776195716588 eV    ::
         :: SCC energy              -153.889162753069 Eh    ::
         :: -> dispersion             -0.132030488330 Eh    ::
         :: -> Gsolv                  -0.075150183591 Eh    ::
         :: repulsion energy           2.808719578044 Eh    ::

    * Orbital Energies and Occupations

         #    Occupation            Energy/Eh            Energy/eV
      -------------------------------------------------------------
         1        2.0000           -0.7181720             -19.5425
       ...           ...                  ...                  ...
       128        2.0000           -0.4127497             -11.2315
       129        2.0000           -0.4126953             -11.2300
       130        2.0000           -0.4102066             -11.1623
       131        2.0000           -0.4101568             -11.1609
       132        2.0000           -0.4088500             -11.1254
       133        2.0000           -0.4087131             -11.1216
       134        2.0000           -0.4059245             -11.0458
       135        2.0000           -0.4041568             -10.9977
       136        2.0000           -0.3919215             -10.6647
       137        2.0000           -0.3791344             -10.3168
       138        2.0000           -0.3777710             -10.2797
       139        2.0000           -0.3581800              -9.7466
       140        2.0000           -0.3570822              -9.7167 (HOMO)
       141        0.0000           -0.3285577              -8.9405 (LUMO)
       142                         -0.3252501              -8.8505
       143                         -0.2836154              -7.7176
       144                         -0.2829493              -7.6994
       145                         -0.2631293              -7.1601
       146                         -0.2453800              -6.6771
       147                         -0.2391643              -6.5080
       148                         -0.2389115              -6.5011
       149                         -0.2353392              -6.4039
       150                         -0.2353344              -6.4038
       151                         -0.2319457              -6.3116
       ...                                ...                  ...
       272                          1.1452593              31.1641
      -------------------------------------------------------------
                  HL-Gap            0.0285245 Eh            0.7762 eV

     #   Z          covCN         q      C6AA      α(0)
     1   7 N        0.911    -0.228    25.999     7.375
     2   6 C        1.910     0.112    28.341     8.598
     3   6 C        2.953     0.099    25.811     8.333
     4   7 N        1.852    -0.243    27.206     7.731
     5   6 C        2.960     0.085    26.097     8.379
     6   6 C        2.982    -0.026    28.639     8.778
     7   6 C        2.922    -0.014    28.373     8.735
     8   6 C        2.914    -0.045    29.110     8.847
     9   6 C        2.950     0.102    25.740     8.321
    10   6 C        2.980    -0.006    28.156     8.704
    11   6 C        2.920    -0.030    28.755     8.794
    12   6 C        2.920    -0.049    29.227     8.865
    13   6 C        2.921     0.071    26.402     8.426
    14   7 N        2.752    -0.059    22.382     7.026
    15   6 C        2.925     0.063    26.596     8.457
    16   6 C        2.922    -0.045    29.106     8.847
    17   6 C        2.919    -0.028    28.709     8.787
    18   6 C        2.919    -0.035    28.864     8.810
    19   6 C        2.919    -0.028    28.694     8.784
    20   6 C        2.921    -0.045    29.112     8.848
    21   6 C        2.926     0.063    26.589     8.456
    22   6 C        2.921    -0.045    29.110     8.848
    23   6 C        2.919    -0.029    28.713     8.787
    24   6 C        2.919    -0.035    28.872     8.811
    25   6 C        2.919    -0.028    28.706     8.786
    26   6 C        2.922    -0.044    29.093     8.845
    27   6 C        2.919    -0.048    29.188     8.859
    28   6 C        2.924    -0.024    28.615     8.772
    29   7 N        1.854    -0.229    26.860     7.681
    30   6 C        2.959     0.088    26.050     8.372
    31   6 C        2.959     0.088    26.050     8.372
    32   7 N        1.854    -0.229    26.860     7.681
    33   6 C        2.950     0.102    25.740     8.321
    34   6 C        2.980    -0.006    28.156     8.704
    35   6 C        2.924    -0.024    28.615     8.772
    36   6 C        2.919    -0.048    29.187     8.859
    37   6 C        2.921     0.071    26.402     8.426
    38   7 N        2.752    -0.059    22.382     7.026
    39   6 C        2.925     0.063    26.596     8.457
    40   6 C        2.922    -0.045    29.106     8.847
    41   6 C        2.919    -0.028    28.709     8.787
    42   6 C        2.919    -0.035    28.864     8.810
    43   6 C        2.919    -0.028    28.695     8.784
    44   6 C        2.921    -0.045    29.112     8.848
    45   6 C        2.926     0.063    26.589     8.456
    46   6 C        2.921    -0.045    29.110     8.848
    47   6 C        2.919    -0.029    28.713     8.787
    48   6 C        2.919    -0.035    28.872     8.811
    49   6 C        2.919    -0.028    28.706     8.786
    50   6 C        2.922    -0.044    29.093     8.845
    51   6 C        2.920    -0.049    29.227     8.865
    52   6 C        2.920    -0.030    28.755     8.794
    53   6 C        2.914    -0.045    29.110     8.847
    54   6 C        2.922    -0.014    28.373     8.735
    55   6 C        2.982    -0.026    28.639     8.778
    56   6 C        2.960     0.085    26.097     8.379
    57   7 N        1.852    -0.243    27.206     7.731
    58   6 C        2.953     0.099    25.811     8.333
    59   6 C        1.910     0.112    28.341     8.598
    60   7 N        0.911    -0.228    25.999     7.375
    61   1 H        0.926     0.056     2.252     2.347
    62   1 H        0.926     0.057     2.237     2.339
    63   1 H        0.926     0.042     2.422     2.434
    64   1 H        0.926     0.042     2.419     2.432
    65   1 H        0.926     0.035     2.511     2.478
    66   1 H        0.926     0.038     2.482     2.464
    67   1 H        0.926     0.037     2.488     2.466
    68   1 H        0.926     0.039     2.462     2.454
    69   1 H        0.926     0.039     2.468     2.456
    70   1 H        0.926     0.037     2.484     2.465
    71   1 H        0.926     0.038     2.482     2.464
    72   1 H        0.926     0.036     2.500     2.473
    73   1 H        0.926     0.038     2.475     2.460
    74   1 H        0.926     0.037     2.486     2.466
    75   1 H        0.926     0.046     2.365     2.405
    76   1 H        0.926     0.064     2.157     2.297
    77   1 H        0.926     0.064     2.157     2.297
    78   1 H        0.926     0.046     2.365     2.405
    79   1 H        0.926     0.035     2.511     2.478
    80   1 H        0.926     0.038     2.482     2.464
    81   1 H        0.926     0.037     2.488     2.467
    82   1 H        0.926     0.039     2.462     2.454
    83   1 H        0.926     0.039     2.468     2.457
    84   1 H        0.926     0.037     2.484     2.465
    85   1 H        0.926     0.038     2.482     2.464
    86   1 H        0.926     0.036     2.500     2.472
    87   1 H        0.926     0.038     2.475     2.460
    88   1 H        0.926     0.037     2.486     2.466
    89   1 H        0.926     0.042     2.419     2.432
    90   1 H        0.926     0.042     2.422     2.433
    91   1 H        0.926     0.057     2.237     2.339
    92   1 H        0.926     0.056     2.252     2.347

molecular dipole:
                 x           y           z       tot (Debye)
 q only:       -0.005       7.939       0.001
   full:       -0.004       7.628       0.001      19.390

 projected vibrational frequencies (cm⁻¹)
eigval :       -0.00    -0.00     0.00     0.00     0.00     0.00
eigval :        8.47    11.40    13.86    17.95    25.12    25.52
eigval :       26.27    38.57    39.02    45.46    49.20    51.41
eigval :       52.78    64.56    69.73    72.13    77.12    80.65
eigval :       93.63    95.58    95.88   105.83   107.87   109.94
eigval :      133.31   149.08   151.06   154.15   165.45   190.30
eigval :      205.57   206.74   224.48   233.49   235.08   244.31
eigval :      247.02   276.80   296.72   297.14   313.50   313.83
eigval :      320.44   334.08   337.13   340.94   377.56   378.17
eigval :      379.10   380.19   382.88   385.14   388.37   390.35
eigval :      396.36   396.53   402.71   411.68   416.50   430.12
eigval :      447.41   453.56   458.94   472.46   480.08   484.87
eigval :      487.73   501.74   503.66   508.42   537.28   539.88
eigval :      563.80   571.93   580.82   583.54   584.59   586.15
eigval :      589.89   593.14   593.19   605.01   610.63   614.48
eigval :      623.70   639.83   647.70   657.56   658.66   661.13
eigval :      662.02   666.95   668.90   682.70   694.68   697.17
eigval :      706.85   718.04   728.02   728.56   757.52   758.02
eigval :      759.29   759.61   763.46   766.76   774.54   815.28
eigval :      817.21   833.27   834.61   862.81   863.22   872.27
eigval :      874.19   874.55   875.19   875.55   896.26   896.67
eigval :      898.61   899.14   909.06   909.34   914.09   918.29
eigval :      918.76   923.32   923.59   926.05   926.26   926.72
eigval :      927.68   928.47   929.25   929.61   930.05   930.83
eigval :      934.29   934.35   943.43   982.07   984.29  1004.28
eigval :     1004.44  1007.50  1013.26  1055.51  1066.64  1080.13
eigval :     1080.16  1081.40  1081.51  1095.11  1098.55  1119.21
eigval :     1119.30  1121.40  1121.62  1133.88  1134.68  1148.18
eigval :     1154.14  1161.15  1176.46  1176.70  1177.39  1178.47
eigval :     1182.39  1183.29  1191.56  1192.17  1193.25  1193.93
eigval :     1208.41  1211.76  1220.97  1259.15  1261.61  1267.77
eigval :     1268.43  1274.73  1274.83  1278.59  1278.63  1292.15
eigval :     1292.84  1298.49  1301.01  1313.82  1314.23  1314.50
eigval :     1320.93  1322.22  1324.16  1327.24  1328.63  1332.40
eigval :     1337.83  1342.11  1367.16  1368.02  1399.80  1404.88
eigval :     1417.33  1421.57  1431.47  1432.03  1435.63  1437.71
eigval :     1439.84  1440.08  1455.67  1465.42  1465.65  1468.03
eigval :     1468.55  1468.85  1484.27  1489.95  1512.90  1514.41
eigval :     1539.94  1541.36  1544.37  1553.92  1576.60  1576.67
eigval :     1580.32  1580.51  1589.22  1589.25  1589.30  1591.11
eigval :     1597.60  1598.50  2351.58  2355.28  3074.58  3074.77
eigval :     3075.54  3075.65  3076.00  3076.12  3077.79  3078.06
eigval :     3084.12  3084.15  3084.99  3085.02  3086.39  3086.50
eigval :     3086.67  3086.77  3087.48  3087.56  3088.69  3088.95
eigval :     3092.35  3092.57  3095.82  3095.93  3096.67  3096.70
eigval :     3098.22  3098.69  3107.43  3107.71  3111.16  3113.20

   temp. (K)  partition function   enthalpy   heat capacity  entropy
                                   cal/mol     cal/K/mol   cal/K/mol   J/K/mol
 298.15  VIB  0.271E+24            28684.640    175.199    181.534
         ROT  0.112E+09              888.752      2.981     39.814
         INT  0.304E+32            29573.392    178.179    221.348
         TR   0.206E+29             1481.254      4.968     45.777
         TOT                       31054.6462   183.1476   267.1253  1117.6524

       T/K    H(0)-H(T)+PV         H(T)/Eh          T*S/Eh         G(T)/Eh
   ------------------------------------------------------------------------
    298.15    0.494887E-01    0.732096E+00    0.126920E+00    0.605176E+00
   ------------------------------------------------------------------------

         :::::::::::::::::::::::::::::::::::::::::::::::::::::
         ::                  THERMODYNAMIC                  ::
         :::::::::::::::::::::::::::::::::::::::::::::::::::::
         :: total free energy        -150.475267334248 Eh   ::
         ::.................................................::
         :: total energy             -151.080443169551 Eh   ::
         :: zero point energy           0.682606972276 Eh   ::
         :: G(RRHO) w/o ZPVE           -0.077431136973 Eh   ::
         :: G(RRHO) contrib.            0.605175835303 Eh   ::
         :::::::::::::::::::::::::::::::::::::::::::::::::::::

           -------------------------------------------------
          | TOTAL ENERGY             -151.080443169551 Eh   |
          | TOTAL ENTHALPY           -150.348347468455 Eh   |
          | TOTAL FREE ENERGY        -150.475267334248 Eh   |
          | GRADIENT NORM               0.000066740292 Eh/α |
          | HOMO-LUMO GAP               0.776191701880 eV   |
           -------------------------------------------------

 * finished run on 2025/08/24 at 01:40:16.522
