   * xtb version 6.7.1 (edcfbbe) compiled by 'albert@albert-system' on 2024-07-22

   ID    Z sym.   atoms
    1    7 N      1, 4, 14, 29, 32, 38, 57, 60
    2    6 C      2, 3, 5-13, 15-28, 30, 31, 33-37, 39-56, 58, 59
    3    1 H      61-92

          program call               : xtb data2507/toluene/CNPP-TPA/CNPP-TPA_toluene_S0_finalOpt.xtbopt.xyz --gfn 2 --uhf 2 --gbsa toluene --ohess vtight --parallel 40 --molden --ceasefiles --namespace data2507/toluene/CNPP-TPA/CNPP-TPA_toluene_T1_preOpt
      * Solvation model:               GBSA
        Solvent                        toluene
        Solvent mass                       9.2140E+01 g/mol
          :  Hamiltonian                  GFN2-xTB          :
 * total energy  :  -151.0323487 Eh     change       -0.3236323E-08 Eh
 * total energy  :  -151.0334056 Eh     change       -0.1056886E-02 Eh
 * total energy  :  -151.0336691 Eh     change       -0.2635459E-03 Eh
 * total energy  :  -151.0337160 Eh     change       -0.4687723E-04 Eh
 * total energy  :  -151.0337321 Eh     change       -0.1602419E-04 Eh
 * total energy  :  -151.0337880 Eh     change       -0.5597413E-04 Eh
 * total energy  :  -151.0337872 Eh     change        0.8215060E-06 Eh
 * total energy  :  -151.0338111 Eh     change       -0.2388856E-04 Eh
 * total energy  :  -151.0338288 Eh     change       -0.1766915E-04 Eh
 * total energy  :  -151.0338494 Eh     change       -0.2060758E-04 Eh
 * total energy  :  -151.0339169 Eh     change       -0.3905786E-05 Eh
 * total energy  :  -151.0339189 Eh     change       -0.1997046E-05 Eh
 * total energy  :  -151.0339207 Eh     change       -0.1824384E-05 Eh
 * total energy  :  -151.0339221 Eh     change       -0.1421925E-05 Eh
 * total energy  :  -151.0339230 Eh     change       -0.8338768E-06 Eh
 * total energy  :  -151.0339234 Eh     change       -0.4541875E-06 Eh
 * total energy  :  -151.0339239 Eh     change       -0.4989510E-06 Eh
 * total energy  :  -151.0339244 Eh     change       -0.4774065E-06 Eh
 * total energy  :  -151.0339244 Eh     change       -0.5057643E-09 Eh
   *** GEOMETRY OPTIMIZATION CONVERGED AFTER 22 ITERATIONS ***

 final structure:
================
92
 xtb: 6.7.1 (edcfbbe)
N           10.33636536596424        1.91812853351467        0.18185089596283
C            9.31377677346556        1.38977386128543        0.12738005150943
C            8.08641032400713        0.71459265726541        0.05919136824727
N            6.94314164016055        1.40632641237701        0.11985636000470
C            5.78811944423216        0.71535206543903        0.05582289586456
C            4.55335139322631        1.41918322635961        0.10902523301990
C            4.49129236851089        2.82189889566803        0.21276534574859
C            3.27532865943627        3.45036715702045        0.24460051190111
C            2.09751292400168        2.67209337890610        0.16411325631421
C            0.75692851671157        3.25279861553792        0.15687177942013
C            0.47376258408412        4.52060906620999        0.67235026268318
C           -0.80925762609416        5.02101152723446        0.65105045863894
C           -1.85851243137497        4.27343922364633        0.10281565579952
N           -3.15208036713659        4.78094317223870        0.07557748002381
C           -4.25354389937350        3.92349178774250        0.18587900777184
C           -5.41228922843894        4.17172040574724       -0.55309043402324
C           -6.50166832843383        3.33058566628654       -0.43705705823095
C           -6.45293821033997        2.23236699100870        0.40783341467589
C           -5.30307483292974        1.97870335181712        1.14000444053147
C           -4.21017138097884        2.81711139117152        1.03736956022836
C           -3.36720179981465        6.15749692893372       -0.06871174517775
C           -2.56643355554834        6.91244789154168       -0.92814564814721
C           -2.78542253660152        8.26936848865098       -1.06496860239165
C           -3.80273571191673        8.89107031703777       -0.35689233808951
C           -4.60347465647261        8.14427769508027        0.49387912731694
C           -4.39100526378266        6.78750450789053        0.64155138822292
C           -1.57839198296480        3.00128748379462       -0.41347041831266
C           -0.29820564526258        2.50365067142445       -0.37860189755627
N            2.15049230474041        1.35331192445980        0.06656312013576
C            3.31720536028719        0.72363623802936        0.04511834751505
C            3.31909425687464       -0.71480423880832       -0.05138490264396
N            2.15408598471373       -1.34765576963297       -0.07110756429160
C            2.10451410850002       -2.66660973053651       -0.16823665942077
C            0.76546369377631       -3.25082529635688       -0.15896883154980
C           -0.29106809252125       -2.50372988500558        0.37665340961641
C           -1.56996787499760       -3.00452399235711        0.41331583041865
C           -1.84735794344008       -4.27802134118776       -0.10111495775366
N           -3.13960185384755       -4.78879634246443       -0.07206919014896
C           -4.24339080701645       -3.93441220666746       -0.18263161321395
C           -5.40099552394246       -4.18485673487092        0.55738814634670
C           -6.49265973708716       -3.34672288134802        0.44114555780393
C           -6.44738425374142       -2.24931361312882       -0.40499160119405
C           -5.29869318554970       -1.99347020394131       -1.13824497243030
C           -4.20351306812261       -2.82888097858564       -1.03539748504584
C           -3.35095401142927       -6.16569978765924        0.07452039906858
C           -2.54764877294787       -6.91706323501035        0.93472222571618
C           -2.76292525981319       -8.27433125425541        1.07396193981854
C           -3.77894665984903       -8.89993621162580        0.36746693770639
C           -4.58215222577643       -8.15671680456834       -0.48410892489335
C           -4.37345918374195       -6.79961306961077       -0.63412290385030
C           -0.79671808024079       -5.02364781093528       -0.64934293237528
C            0.48500691435872       -4.52001935825571       -0.67253480616338
C            3.28435197675969       -3.44168893428058       -0.25016989193911
C            4.49864550596165       -2.80990676171009       -0.22021254651119
C            4.55704397623506       -1.40699845960688       -0.11688254979684
C            5.78995099413113       -0.69979727448364       -0.06559239906565
N            6.94675579612149       -1.38762920337197       -0.13138177332169
C            8.08822716654817       -0.69279884236240       -0.07242154020216
C            9.31734723319677       -1.36463574667618       -0.14245679504299
N           10.34126557463871       -1.89019215900261       -0.19852599719182
H            5.42043053141089        3.37177584599445        0.25770478225472
H            3.22014959920263        4.52559084436566        0.30230714197184
H            1.25613059232007        5.10878566760847        1.12648872468669
H           -1.01433052162570        5.99078385016471        1.07933636041940
H           -5.44546003808581        5.01785309555724       -1.22312130508559
H           -7.39125634799496        3.53022945828218       -1.01558315531552
H           -7.30809175787572        1.58071905678570        0.49799700611052
H           -5.26027288259000        1.12818878799892        1.80367958107093
H           -3.32282835462181        2.63120561512818        1.62380487225719
H           -1.78488219392093        6.42586939990086       -1.49269447702934
H           -2.16356854778496        8.84361707802497       -1.73548867016274
H           -3.97024665015049        9.95148507600785       -0.46809522618005
H           -5.39370625573763        8.62341576222668        1.05229784381129
H           -5.00511044646652        6.20898604516337        1.31552243443220
H           -2.37214675004075        2.41964763294049       -0.85717148835516
H           -0.07448446649343        1.52713332383397       -0.77737482337583
H           -0.06943660925553       -1.52614537898553        0.77397826032347
H           -2.36477246294595       -2.42432635607545        0.85703094928769
H           -5.43153148622962       -5.03032600992892        1.22837756590255
H           -7.38136019653776       -3.54811903864083        1.02042541228228
H           -7.30432152983403       -1.60003356255516       -0.49530696046400
H           -5.25852449642669       -1.14354709879979       -1.80283676907879
H           -3.31707289507750       -2.64127945526921       -1.62265630891137
H           -1.76707077156071       -6.42743084887400        1.49797506767179
H           -2.13910500972584       -8.84579708597609        1.74503040325244
H           -3.94354977374385       -9.96061191727275        0.48049599343046
H           -5.37145256237040       -8.63890471606911       -1.04121216747166
H           -4.98955326856657       -6.22385644108971       -1.30864765922299
H           -0.99972095286549       -5.99451677363795       -1.07613151538738
H            1.26840996370174       -5.10686141708242       -1.12661201363692
H            3.23205727838568       -4.51707269967253       -0.30757949356158
H            5.42923750183038       -3.35724004375533       -0.26634074054516

          :  Hamiltonian                  GFN2-xTB          :
         :: gradient norm              0.000079337090 Eh/a0 ::
         :: HOMO-LUMO gap              0.085156989743 eV    ::
         :: SCC energy              -153.830939304795 Eh    ::
         :: -> dispersion             -0.131786027744 Eh    ::
         :: -> Gsolv                  -0.097273184036 Eh    ::
         :: repulsion energy           2.797014895332 Eh    ::

    * Orbital Energies and Occupations

         #    Occupation            Energy/Eh            Energy/eV
      -------------------------------------------------------------
         1        2.0000           -0.6849374             -18.6381
       ...           ...                  ...                  ...
       129        2.0000           -0.4209940             -11.4558
       130        2.0000           -0.4174625             -11.3597
       131        2.0000           -0.4173934             -11.3579
       132        2.0000           -0.4169275             -11.3452
       133        2.0000           -0.4168566             -11.3432
       134        2.0000           -0.4017188             -10.9313
       135        2.0000           -0.3998126             -10.8795
       136        1.9997           -0.3730311             -10.1507
       137        1.9995           -0.3724703             -10.1354
       138        1.7836           -0.3664022              -9.9703
       139        1.6805           -0.3658981              -9.9566
       140        1.5366           -0.3653189              -9.9408
       141        0.8385           -0.3057608              -8.3202 (HOMO)
       142        0.1615           -0.3026318              -8.2350 (LUMO)
       143                         -0.2734292              -7.4404
       144                         -0.2718296              -7.3969
       145                         -0.2575980              -7.0096
       146                         -0.2447869              -6.6610
       147                         -0.2447653              -6.6604
       148                         -0.2396125              -6.5202
       149                         -0.2395559              -6.5186
       150                         -0.2373308              -6.4581
       151                         -0.2340592              -6.3691
       152                         -0.2339718              -6.3667
       ...                                ...                  ...
       272                          1.1612631              31.5996
      -------------------------------------------------------------
                  HL-Gap            0.0031290 Eh            0.0851 eV

     #   Z          covCN         q      C6AA      α(0)
     1   7 N        0.911    -0.287    27.390     7.569
     2   6 C        1.912     0.104    28.517     8.624
     3   6 C        2.945     0.093    25.942     8.354
     4   7 N        1.848    -0.298    28.563     7.921
     5   6 C        2.950     0.079    26.230     8.400
     6   6 C        2.982    -0.028    28.689     8.786
     7   6 C        2.923    -0.017    28.443     8.746
     8   6 C        2.912    -0.050    29.251     8.869
     9   6 C        2.950     0.091    25.966     8.358
    10   6 C        2.980     0.006    27.888     8.663
    11   6 C        2.920    -0.030    28.751     8.793
    12   6 C        2.919    -0.043    29.063     8.840
    13   6 C        2.924     0.065    26.536     8.448
    14   7 N        2.752    -0.030    21.816     6.937
    15   6 C        2.926     0.063    26.597     8.457
    16   6 C        2.921    -0.040    29.006     8.832
    17   6 C        2.918    -0.025    28.633     8.775
    18   6 C        2.919    -0.029    28.719     8.788
    19   6 C        2.918    -0.025    28.621     8.773
    20   6 C        2.921    -0.041    29.009     8.832
    21   6 C        2.926     0.063    26.593     8.457
    22   6 C        2.921    -0.041    29.011     8.833
    23   6 C        2.919    -0.025    28.633     8.775
    24   6 C        2.919    -0.029    28.726     8.789
    25   6 C        2.919    -0.025    28.633     8.775
    26   6 C        2.921    -0.040    29.002     8.831
    27   6 C        2.918    -0.042    29.034     8.836
    28   6 C        2.925    -0.025    28.620     8.773
    29   7 N        1.854    -0.231    26.903     7.688
    30   6 C        2.958     0.078    26.247     8.403
    31   6 C        2.958     0.078    26.247     8.403
    32   7 N        1.854    -0.231    26.903     7.688
    33   6 C        2.950     0.091    25.967     8.358
    34   6 C        2.980     0.006    27.888     8.663
    35   6 C        2.925    -0.025    28.620     8.773
    36   6 C        2.918    -0.042    29.034     8.836
    37   6 C        2.924     0.065    26.536     8.448
    38   7 N        2.752    -0.030    21.816     6.937
    39   6 C        2.926     0.063    26.597     8.457
    40   6 C        2.921    -0.040    29.006     8.832
    41   6 C        2.918    -0.025    28.633     8.775
    42   6 C        2.919    -0.029    28.720     8.788
    43   6 C        2.918    -0.025    28.621     8.773
    44   6 C        2.921    -0.041    29.010     8.832
    45   6 C        2.926     0.063    26.593     8.457
    46   6 C        2.921    -0.041    29.011     8.833
    47   6 C        2.919    -0.025    28.633     8.775
    48   6 C        2.919    -0.029    28.726     8.789
    49   6 C        2.919    -0.025    28.633     8.775
    50   6 C        2.921    -0.040    29.002     8.831
    51   6 C        2.919    -0.043    29.063     8.840
    52   6 C        2.920    -0.030    28.751     8.793
    53   6 C        2.912    -0.050    29.251     8.869
    54   6 C        2.923    -0.017    28.443     8.746
    55   6 C        2.982    -0.028    28.689     8.786
    56   6 C        2.950     0.079    26.230     8.400
    57   7 N        1.848    -0.298    28.563     7.921
    58   6 C        2.945     0.093    25.942     8.354
    59   6 C        1.912     0.104    28.517     8.624
    60   7 N        0.911    -0.287    27.389     7.569
    61   1 H        0.926     0.043     2.406     2.426
    62   1 H        0.926     0.048     2.347     2.396
    63   1 H        0.926     0.045     2.379     2.412
    64   1 H        0.926     0.049     2.332     2.388
    65   1 H        0.926     0.044     2.398     2.422
    66   1 H        0.926     0.045     2.377     2.411
    67   1 H        0.926     0.046     2.376     2.410
    68   1 H        0.926     0.047     2.360     2.402
    69   1 H        0.926     0.046     2.372     2.408
    70   1 H        0.926     0.044     2.394     2.420
    71   1 H        0.926     0.044     2.397     2.421
    72   1 H        0.926     0.043     2.407     2.426
    73   1 H        0.926     0.046     2.376     2.410
    74   1 H        0.926     0.046     2.370     2.407
    75   1 H        0.926     0.054     2.266     2.354
    76   1 H        0.926     0.067     2.121     2.277
    77   1 H        0.926     0.067     2.121     2.277
    78   1 H        0.926     0.054     2.266     2.354
    79   1 H        0.926     0.044     2.398     2.422
    80   1 H        0.926     0.045     2.377     2.411
    81   1 H        0.926     0.046     2.376     2.410
    82   1 H        0.926     0.047     2.360     2.402
    83   1 H        0.926     0.046     2.372     2.408
    84   1 H        0.926     0.044     2.394     2.420
    85   1 H        0.926     0.044     2.397     2.421
    86   1 H        0.926     0.043     2.407     2.426
    87   1 H        0.926     0.046     2.376     2.410
    88   1 H        0.926     0.046     2.370     2.407
    89   1 H        0.926     0.049     2.332     2.388
    90   1 H        0.926     0.045     2.379     2.412
    91   1 H        0.926     0.048     2.347     2.396
    92   1 H        0.926     0.043     2.406     2.426

molecular dipole:
                 x           y           z       tot (Debye)
 q only:      -15.450      -0.021       0.012
   full:      -15.003      -0.020       0.012      38.135

 projected vibrational frequencies (cm⁻¹)
eigval :       -0.00    -0.00    -0.00    -0.00     0.00     0.00
eigval :        1.99     5.34    15.23    19.18    25.03    26.89
eigval :       31.39    38.03    41.04    45.15    49.24    52.22
eigval :       52.55    64.50    68.93    71.57    76.06    79.12
eigval :       93.53    95.74    98.70   104.68   105.11   109.93
eigval :      133.80   147.64   150.41   153.12   164.64   194.32
eigval :      207.82   207.84   225.25   231.26   233.20   243.97
eigval :      257.36   268.10   296.27   296.64   313.81   316.80
eigval :      324.55   325.91   335.80   337.91   372.88   375.43
eigval :      375.87   376.49   377.63   379.17   385.09   385.89
eigval :      388.34   392.28   405.61   409.78   416.99   419.26
eigval :      438.91   446.91   456.94   464.61   474.10   488.93
eigval :      490.88   495.51   501.05   515.56   517.61   528.37
eigval :      554.03   561.82   570.67   581.84   583.15   583.96
eigval :      585.86   591.97   592.04   596.10   608.31   611.60
eigval :      612.91   617.09   633.02   637.24   647.50   659.35
eigval :      659.72   663.08   665.91   675.96   682.11   689.74
eigval :      691.66   695.07   717.06   717.15   734.98   744.94
eigval :      756.37   757.80   758.58   759.47   763.74   770.52
eigval :      807.95   808.61   826.23   826.40   858.83   859.97
eigval :      866.83   871.50   872.20   872.30   873.15   898.59
eigval :      898.90   900.19   901.02   908.40   908.79   909.40
eigval :      915.53   915.59   916.94   917.33   924.06   925.92
eigval :      928.07   929.11   929.21   929.36   930.16   930.59
eigval :      931.28   931.83   932.08   932.44   979.99   982.50
eigval :     1001.80  1001.95  1006.13  1011.88  1050.96  1051.61
eigval :     1078.90  1078.94  1080.24  1080.61  1082.54  1095.50
eigval :     1119.29  1120.11  1120.40  1122.20  1122.60  1131.22
eigval :     1133.13  1142.63  1148.16  1150.91  1174.08  1174.84
eigval :     1176.75  1178.22  1178.56  1180.16  1188.56  1189.43
eigval :     1191.02  1191.35  1208.33  1209.97  1222.39  1245.32
eigval :     1260.68  1263.04  1269.81  1272.17  1272.46  1274.43
eigval :     1274.78  1282.58  1283.17  1293.32  1293.47  1302.12
eigval :     1306.07  1313.23  1314.14  1315.47  1317.73  1322.98
eigval :     1323.10  1328.44  1331.68  1349.08  1359.75  1360.13
eigval :     1385.61  1394.61  1409.67  1413.80  1429.39  1430.45
eigval :     1433.98  1436.11  1437.09  1444.22  1455.06  1455.16
eigval :     1456.03  1456.61  1463.32  1469.86  1483.74  1484.65
eigval :     1523.00  1531.07  1537.68  1538.64  1566.17  1566.25
eigval :     1569.05  1569.34  1574.98  1576.42  1578.76  1578.84
eigval :     1587.29  1587.99  2278.86  2303.94  3074.71  3074.86
eigval :     3080.66  3080.82  3082.09  3082.17  3082.78  3082.87
eigval :     3083.55  3083.76  3086.28  3086.31  3089.77  3089.94
eigval :     3091.31  3091.40  3092.17  3092.36  3093.30  3093.36
eigval :     3094.70  3094.80  3096.42  3096.51  3099.99  3100.25
eigval :     3100.53  3100.90  3102.38  3103.15  3112.99  3114.35

   temp. (K)  partition function   enthalpy   heat capacity  entropy
                                   cal/mol     cal/K/mol   cal/K/mol   J/K/mol
 298.15  VIB  0.201E+25            28928.664    177.277    184.688
         ROT  0.112E+09              888.752      2.981     39.811
         INT  0.224E+33            29817.416    180.258    224.498
         TR   0.206E+29             1481.254      4.968     45.777
         TOT                       31298.6704   185.2259   270.2758  1130.8337

       T/K    H(0)-H(T)+PV         H(T)/Eh          T*S/Eh         G(T)/Eh
   ------------------------------------------------------------------------
    298.15    0.498776E-01    0.727552E+00    0.128417E+00    0.599136E+00
   ------------------------------------------------------------------------

         :::::::::::::::::::::::::::::::::::::::::::::::::::::
         ::                  THERMODYNAMIC                  ::
         :::::::::::::::::::::::::::::::::::::::::::::::::::::
         :: total free energy        -150.434788716489 Eh   ::
         ::.................................................::
         :: total energy             -151.033924408126 Eh   ::
         :: zero point energy           0.677674816696 Eh   ::
         :: G(RRHO) w/o ZPVE           -0.078539125059 Eh   ::
         :: G(RRHO) contrib.            0.599135691637 Eh   ::
         :::::::::::::::::::::::::::::::::::::::::::::::::::::

           -------------------------------------------------
          | TOTAL ENERGY             -151.033924408126 Eh   |
          | TOTAL ENTHALPY           -150.306371985346 Eh   |
          | TOTAL FREE ENERGY        -150.434788716489 Eh   |
          | GRADIENT NORM               0.000080800035 Eh/α |
          | HOMO-LUMO GAP               0.085145644116 eV   |
           -------------------------------------------------

 * finished run on 2025/08/24 at 01:51:33.830
