   * xtb version 6.7.1 (edcfbbe) compiled by 'albert@albert-system' on 2024-07-22

   ID    Z sym.   atoms
    1    7 N      1, 4, 14, 29, 32, 38, 57, 60
    2    6 C      2, 3, 5-13, 15-28, 30, 31, 33-37, 39-56, 58, 59
    3    1 H      61-92

          program call               : xtb data2507/toluene/CNPP-TPA/CNPP-TPA_toluene_T1_crest.xyz --gfn 2 --uhf 2 --gbsa toluene --ohess vtight --parallel 40 --molden --ceasefiles --namespace data2507/toluene/CNPP-TPA/CNPP-TPA_toluene_T1_finalOpt
      * Solvation model:               GBSA
        Solvent                        toluene
        Solvent mass                       9.2140E+01 g/mol
          :  Hamiltonian                  GFN2-xTB          :
 * total energy  :  -151.0327235 Eh     change       -0.2968639E-07 Eh
 * total energy  :  -151.0331095 Eh     change       -0.3860692E-03 Eh
 * total energy  :  -151.0331808 Eh     change       -0.7124925E-04 Eh
 * total energy  :  -151.0333317 Eh     change       -0.1509409E-03 Eh
 * total energy  :  -151.0334259 Eh     change       -0.9419828E-04 Eh
 * total energy  :  -151.0334297 Eh     change       -0.3814462E-05 Eh
 * total energy  :  -151.0335023 Eh     change       -0.7259239E-04 Eh
 * total energy  :  -151.0335301 Eh     change       -0.2780384E-04 Eh
 * total energy  :  -151.0335442 Eh     change       -0.1405145E-04 Eh
 * total energy  :  -151.0335632 Eh     change       -0.1898316E-04 Eh
 * total energy  :  -151.0339007 Eh     change       -0.3556374E-06 Eh
 * total energy  :  -151.0339013 Eh     change       -0.5907729E-06 Eh
 * total energy  :  -151.0339017 Eh     change       -0.3709664E-06 Eh
 * total energy  :  -151.0339018 Eh     change       -0.1876018E-06 Eh
 * total energy  :  -151.0339020 Eh     change       -0.1841937E-06 Eh
 * total energy  :  -151.0339022 Eh     change       -0.2187394E-06 Eh
 * total energy  :  -151.0339025 Eh     change       -0.2256980E-06 Eh
 * total energy  :  -151.0339027 Eh     change       -0.1922549E-06 Eh
 * total energy  :  -151.0339028 Eh     change       -0.9428456E-07 Eh
   *** GEOMETRY OPTIMIZATION CONVERGED AFTER 64 ITERATIONS ***

 final structure:
================
92
 xtb: 6.7.1 (edcfbbe)
N           10.37139526780095        1.89318145206687        0.18597055331063
C            9.34725787608388        1.36725597669880        0.13528829452923
C            8.11863386030412        0.69445570868893        0.07175554113387
N            6.97650510502656        1.38922343715796        0.12180580977257
C            5.82041338343003        0.70119523491989        0.06172007585312
C            4.58735335187759        1.40951434657673        0.10582181896079
C            4.52443421032096        2.81310415583040        0.19669747984579
C            3.30802160341152        3.44197229967802        0.22485189776666
C            2.12968885310366        2.66357268773911        0.15613604404664
C            0.78467392415302        3.23356443575162        0.16178075434788
C            0.49936224412648        4.51915334591021        0.63016844255613
C           -0.79245008919969        4.99740077527879        0.63764664401503
C           -1.84927725789225        4.20718952499723        0.17013044145544
N           -3.15465240256673        4.68461586203055        0.18791997444272
C           -4.22537354501456        3.80879147153243        0.40310122832521
C           -5.43337759710564        3.99606299738727       -0.27235732724770
C           -6.49094565808352        3.13500624359361       -0.05294698721739
C           -6.36189238475039        2.07645595055071        0.83312190971728
C           -5.16311103709034        1.88360310597625        1.50267704728147
C           -4.10136737817190        2.74269326173845        1.29724632221096
C           -3.41024454561459        6.04739087392338       -0.00987104050805
C           -2.67892824221082        6.77346038009074       -0.95196939477185
C           -2.93916018717429        8.11621150221118       -1.14488622332801
C           -3.92769757360055        8.75217131182009       -0.40920480265284
C           -4.65799169893298        8.03412553210251        0.52562535186608
C           -4.40466370092986        6.69160187470195        0.72870232927144
C           -1.56621401457799        2.92085795919463       -0.30793128313827
C           -0.27691397263474        2.44729105852256       -0.30482038505080
N            2.18484691041059        1.34380990347778        0.06725384484618
C            3.35106117402734        0.71500638822019        0.04631208054664
C            3.34951787545071       -0.72383874920316       -0.04309625882180
N            2.18223960513323       -1.34985702050511       -0.06907053192335
C            2.12332337246512       -2.66978480328217       -0.15493875117064
C            0.77673743146083       -3.23568935795330       -0.16485121251673
C           -0.28778124421084       -2.43549691830413        0.27105645884181
C           -1.57854103165436       -2.90487690024813        0.27090722359305
C           -1.86022297738179       -4.20197107053796       -0.17785326162279
N           -3.16665844611114       -4.67704643762483       -0.19596469195291
C           -4.23223026429039       -3.80582292649964       -0.45041079269571
C           -5.44922533200133       -3.96909759248306        0.21506593863029
C           -6.50110485814201       -3.11206665708972       -0.04401319444323
C           -6.35715444553345       -2.08087767717473       -0.95959509500731
C           -5.14935550747102       -1.91184263574634       -1.61937985738551
C           -4.09334903314368       -2.76765576246997       -1.37472034022173
C           -3.42689325500827       -6.03224277633331        0.04246072169618
C           -2.70458035233274       -6.72904041392049        1.01324665043832
C           -2.97006748638950       -8.06400766279899        1.24812836238205
C           -3.95497529166686       -8.72115047762955        0.52627720243712
C           -4.67552955851237       -8.03245120003220       -0.43773722667470
C           -4.41691077244856       -6.69796997003042       -0.68284349593227
C           -0.80100768630412       -5.00610606959188       -0.61492947115475
C            0.49200218554238       -4.53116055885786       -0.60599150456712
C            3.30058077538570       -3.45090091638535       -0.21641410261191
C            4.51826644664574       -2.82507329779179       -0.18442406084891
C            4.58472339692685       -1.42129765650142       -0.09553896559482
C            5.81868108173288       -0.71609316070048       -0.04595679543542
N            6.97429392568465       -1.40693285994026       -0.10023932915736
C            8.11691689640128       -0.71481224782662       -0.04409225181483
C            9.34455059001922       -1.39066256308475       -0.10186490900968
N           10.36738516901376       -1.91927960256774       -0.14756180947543
H            5.45304016489358        3.36430042393915        0.23647800725059
H            3.25459919071310        4.51762571462138        0.27535908824892
H            1.28739121799933        5.14065939925337        1.02615141347976
H           -0.99835824784772        5.98197252529809        1.03038656127689
H           -5.52989254146331        4.81051610165880       -0.97474299314687
H           -7.41917796227901        3.28775702968316       -0.58301531580515
H           -7.19095613482393        1.40736991462702        1.00418375198746
H           -5.05761886877132        1.06511519158921        2.19880889589797
H           -3.17559522215471        2.60393748110076        1.83534316686084
H           -1.92006122205933        6.27439595215487       -1.53613924786352
H           -2.37242053598025        8.66776766867441       -1.88011934077467
H           -4.12787577199279        9.80138790972033       -0.56412578369959
H           -5.42444489722381        8.52519379390956        1.10634749565834
H           -4.96330563085965        6.13572492802348        1.46694076949534
H           -2.36648208451592        2.30816836159074       -0.69450817571316
H           -0.04993095272405        1.45947692364564       -0.67273055937952
H           -0.06137583525286       -1.43991154285269        0.61777744347105
H           -2.38136697441924       -2.28058305712024        0.63289294112950
H           -5.55734990664464       -4.76160352169417        0.94048667115153
H           -7.43665147431591       -3.24616158274403        0.47817879667986
H           -7.18182424221784       -1.41482945037399       -1.16128809721842
H           -5.03218284713360       -1.11460629630030       -2.33798016283327
H           -3.16039060575477       -2.64908003421104       -1.90515875163927
H           -1.94890794502739       -6.21269568626303        1.58647778264185
H           -2.41068473608080       -8.59249227922239        2.00560077860500
H           -4.15973520600903       -9.76406028602076        0.71430691395987
H           -5.43876021728649       -8.54045142235493       -1.00801040687159
H           -4.96794659038961       -6.16547880261442       -1.44369302723272
H           -1.00577304127388       -5.99960994899276       -0.98521437421725
H            1.28170775772470       -5.16491037271956       -0.97838446529236
H            3.24559346609047       -4.52649068906998       -0.26566008142306
H            5.44559187541191       -3.37873703470499       -0.21943881494531

          :  Hamiltonian                  GFN2-xTB          :
         :: gradient norm              0.000098018722 Eh/a0 ::
         :: HOMO-LUMO gap              0.080534365424 eV    ::
         :: SCC energy              -153.830862266724 Eh    ::
         :: -> dispersion             -0.131735672932 Eh    ::
         :: -> Gsolv                  -0.097325199395 Eh    ::
         :: repulsion energy           2.796959511728 Eh    ::

    * Orbital Energies and Occupations

         #    Occupation            Energy/Eh            Energy/eV
      -------------------------------------------------------------
         1        2.0000           -0.6849198             -18.6376
       ...           ...                  ...                  ...
       129        2.0000           -0.4209222             -11.4539
       130        2.0000           -0.4174825             -11.3603
       131        2.0000           -0.4173954             -11.3579
       132        2.0000           -0.4168425             -11.3429
       133        2.0000           -0.4167906             -11.3414
       134        2.0000           -0.4016048             -10.9282
       135        2.0000           -0.3995392             -10.8720
       136        1.9997           -0.3730184             -10.1503
       137        1.9996           -0.3725150             -10.1366
       138        1.7829           -0.3663607              -9.9692
       139        1.6890           -0.3658977              -9.9566
       140        1.5287           -0.3652513              -9.9390
       141        0.8260           -0.3057714              -8.3205 (HOMO)
       142        0.1740           -0.3028120              -8.2399 (LUMO)
       143                         -0.2734818              -7.4418
       144                         -0.2721917              -7.4067
       145                         -0.2579404              -7.0189
       146                         -0.2447408              -6.6597
       147                         -0.2446875              -6.6583
       148                         -0.2395306              -6.5180
       149                         -0.2394849              -6.5167
       150                         -0.2371638              -6.4536
       151                         -0.2340818              -6.3697
       152                         -0.2339630              -6.3665
       ...                                ...                  ...
       272                          1.1613014              31.6006
      -------------------------------------------------------------
                  HL-Gap            0.0029595 Eh            0.0805 eV

     #   Z          covCN         q      C6AA      α(0)
     1   7 N        0.911    -0.287    27.406     7.571
     2   6 C        1.912     0.104    28.522     8.625
     3   6 C        2.945     0.092    25.952     8.355
     4   7 N        1.848    -0.297    28.548     7.919
     5   6 C        2.949     0.079    26.227     8.400
     6   6 C        2.982    -0.028    28.687     8.786
     7   6 C        2.923    -0.017    28.445     8.746
     8   6 C        2.912    -0.050    29.246     8.868
     9   6 C        2.949     0.091    25.974     8.359
    10   6 C        2.980     0.006    27.891     8.663
    11   6 C        2.919    -0.030    28.750     8.793
    12   6 C        2.919    -0.043    29.060     8.840
    13   6 C        2.924     0.065    26.538     8.448
    14   7 N        2.752    -0.030    21.816     6.937
    15   6 C        2.925     0.063    26.595     8.457
    16   6 C        2.921    -0.041    29.007     8.832
    17   6 C        2.919    -0.025    28.629     8.774
    18   6 C        2.919    -0.029    28.721     8.788
    19   6 C        2.919    -0.025    28.625     8.774
    20   6 C        2.921    -0.041    29.011     8.833
    21   6 C        2.926     0.063    26.594     8.457
    22   6 C        2.921    -0.041    29.010     8.833
    23   6 C        2.919    -0.025    28.632     8.775
    24   6 C        2.919    -0.029    28.726     8.789
    25   6 C        2.919    -0.025    28.633     8.775
    26   6 C        2.921    -0.040    29.001     8.831
    27   6 C        2.918    -0.042    29.032     8.836
    28   6 C        2.925    -0.025    28.631     8.775
    29   7 N        1.855    -0.231    26.904     7.688
    30   6 C        2.959     0.079    26.243     8.402
    31   6 C        2.959     0.079    26.246     8.403
    32   7 N        1.855    -0.230    26.892     7.686
    33   6 C        2.949     0.091    25.980     8.360
    34   6 C        2.980     0.006    27.891     8.663
    35   6 C        2.925    -0.025    28.637     8.776
    36   6 C        2.918    -0.041    29.030     8.835
    37   6 C        2.924     0.065    26.541     8.449
    38   7 N        2.752    -0.030    21.815     6.937
    39   6 C        2.925     0.063    26.595     8.457
    40   6 C        2.921    -0.041    29.008     8.832
    41   6 C        2.919    -0.025    28.629     8.774
    42   6 C        2.919    -0.029    28.721     8.788
    43   6 C        2.919    -0.025    28.624     8.773
    44   6 C        2.921    -0.041    29.011     8.833
    45   6 C        2.926     0.063    26.593     8.457
    46   6 C        2.921    -0.041    29.010     8.833
    47   6 C        2.919    -0.025    28.632     8.775
    48   6 C        2.919    -0.029    28.726     8.789
    49   6 C        2.919    -0.025    28.633     8.775
    50   6 C        2.921    -0.040    29.002     8.831
    51   6 C        2.919    -0.043    29.059     8.840
    52   6 C        2.919    -0.030    28.752     8.793
    53   6 C        2.912    -0.050    29.244     8.868
    54   6 C        2.923    -0.018    28.448     8.747
    55   6 C        2.982    -0.028    28.689     8.786
    56   6 C        2.949     0.079    26.238     8.401
    57   7 N        1.848    -0.297    28.546     7.918
    58   6 C        2.945     0.093    25.939     8.353
    59   6 C        1.912     0.104    28.517     8.624
    60   7 N        0.911    -0.286    27.386     7.569
    61   1 H        0.926     0.043     2.409     2.427
    62   1 H        0.926     0.048     2.349     2.397
    63   1 H        0.926     0.045     2.379     2.412
    64   1 H        0.926     0.049     2.335     2.390
    65   1 H        0.926     0.044     2.394     2.419
    66   1 H        0.926     0.046     2.373     2.409
    67   1 H        0.926     0.046     2.376     2.410
    68   1 H        0.926     0.046     2.368     2.407
    69   1 H        0.926     0.046     2.376     2.411
    70   1 H        0.926     0.044     2.393     2.419
    71   1 H        0.926     0.044     2.396     2.421
    72   1 H        0.926     0.043     2.407     2.426
    73   1 H        0.926     0.045     2.377     2.411
    74   1 H        0.926     0.046     2.371     2.408
    75   1 H        0.926     0.055     2.264     2.353
    76   1 H        0.926     0.068     2.105     2.269
    77   1 H        0.926     0.069     2.098     2.265
    78   1 H        0.926     0.054     2.265     2.353
    79   1 H        0.926     0.044     2.393     2.419
    80   1 H        0.926     0.046     2.373     2.409
    81   1 H        0.926     0.046     2.376     2.411
    82   1 H        0.926     0.046     2.369     2.407
    83   1 H        0.926     0.045     2.378     2.411
    84   1 H        0.926     0.044     2.394     2.419
    85   1 H        0.926     0.044     2.396     2.421
    86   1 H        0.926     0.043     2.407     2.426
    87   1 H        0.926     0.045     2.377     2.411
    88   1 H        0.926     0.046     2.371     2.408
    89   1 H        0.926     0.049     2.336     2.390
    90   1 H        0.926     0.045     2.380     2.412
    91   1 H        0.926     0.048     2.350     2.397
    92   1 H        0.926     0.043     2.410     2.428

molecular dipole:
                 x           y           z       tot (Debye)
 q only:      -15.516       0.020      -0.025
   full:      -15.068       0.019      -0.023      38.299

 projected vibrational frequencies (cm⁻¹)
eigval :       -0.00    -0.00    -0.00     0.00     0.00     0.00
eigval :       -4.00     2.86    14.21    16.92    24.01    24.30
eigval :       32.29    36.99    39.98    44.95    47.35    50.22
eigval :       51.49    62.20    64.18    69.56    76.87    78.85
eigval :       93.15    95.28    98.42   101.94   103.81   109.39
eigval :      133.47   148.49   150.43   153.66   165.02   193.73
eigval :      205.24   206.22   226.34   229.98   232.94   243.67
eigval :      256.72   267.66   294.92   295.90   313.52   316.29
eigval :      323.84   324.92   336.15   337.92   372.36   374.26
eigval :      374.90   375.82   376.17   378.99   384.08   385.06
eigval :      388.33   392.14   406.43   409.16   416.59   418.87
eigval :      438.43   447.89   454.31   464.38   473.11   486.97
eigval :      489.46   494.76   500.10   514.42   516.41   528.15
eigval :      554.17   560.55   570.17   581.58   582.87   584.04
eigval :      586.01   591.84   591.93   596.24   608.88   611.59
eigval :      612.37   616.69   631.16   637.12   648.07   658.47
eigval :      659.11   662.52   665.24   675.83   680.85   689.94
eigval :      691.05   694.27   716.54   717.21   733.64   742.08
eigval :      754.46   755.74   758.80   761.70   763.86   770.60
eigval :      806.29   808.80   823.46   827.24   854.64   860.78
eigval :      865.98   868.54   869.51   871.40   873.69   896.24
eigval :      896.98   899.33   901.46   907.72   908.16   909.01
eigval :      911.40   916.66   917.71   918.25   921.14   924.68
eigval :      925.54   926.07   927.95   928.36   928.48   928.86
eigval :      929.83   930.71   933.09   936.58   980.10   982.53
eigval :     1001.58  1001.85  1006.09  1011.89  1049.84  1050.80
eigval :     1078.43  1078.81  1079.21  1080.16  1080.42  1094.67
eigval :     1114.09  1119.41  1119.83  1121.47  1122.80  1130.10
eigval :     1131.49  1142.09  1148.62  1150.73  1173.17  1176.14
eigval :     1177.97  1178.54  1178.76  1180.19  1187.98  1188.50
eigval :     1190.03  1190.18  1207.76  1210.49  1222.50  1245.95
eigval :     1259.71  1262.29  1269.37  1271.47  1272.12  1274.00
eigval :     1274.40  1282.57  1283.12  1293.90  1294.14  1302.16
eigval :     1305.60  1313.66  1314.40  1315.81  1318.70  1323.02
eigval :     1323.23  1328.64  1332.32  1349.30  1357.95  1358.87
eigval :     1385.82  1396.57  1409.73  1413.97  1429.42  1430.61
eigval :     1433.92  1436.22  1437.17  1443.99  1454.79  1454.91
eigval :     1455.80  1455.93  1462.46  1468.86  1483.72  1484.86
eigval :     1522.02  1531.05  1537.18  1537.94  1566.05  1566.32
eigval :     1569.04  1569.33  1574.89  1576.39  1578.68  1578.71
eigval :     1587.49  1587.97  2278.76  2303.44  3074.86  3074.96
eigval :     3080.66  3080.92  3081.77  3081.94  3082.57  3082.71
eigval :     3083.50  3083.66  3086.53  3086.97  3089.47  3089.61
eigval :     3091.16  3091.31  3092.13  3092.36  3093.12  3093.17
eigval :     3094.81  3094.88  3096.63  3096.84  3100.02  3100.21
eigval :     3101.03  3101.45  3101.92  3102.74  3112.68  3114.29

   temp. (K)  partition function   enthalpy   heat capacity  entropy
                                   cal/mol     cal/K/mol   cal/K/mol   J/K/mol
 298.15  VIB  0.347E+25            28992.823    177.160    185.280
         ROT  0.220E+09              888.752      2.981     41.153
         INT  0.763E+33            29881.575    180.141    226.434
         TR   0.206E+29             1481.254      4.968     45.777
         TOT                       31362.8290   185.1093   272.2109  1138.9305

       T/K    H(0)-H(T)+PV         H(T)/Eh          T*S/Eh         G(T)/Eh
   ------------------------------------------------------------------------
    298.15    0.499798E-01    0.727357E+00    0.129336E+00    0.598021E+00
   ------------------------------------------------------------------------

         :::::::::::::::::::::::::::::::::::::::::::::::::::::
         ::                  THERMODYNAMIC                  ::
         :::::::::::::::::::::::::::::::::::::::::::::::::::::
         :: total free energy        -150.435881624890 Eh   ::
         ::.................................................::
         :: total energy             -151.033902754349 Eh   ::
         :: zero point energy           0.677377468604 Eh   ::
         :: G(RRHO) w/o ZPVE           -0.079356339145 Eh   ::
         :: G(RRHO) contrib.            0.598021129459 Eh   ::
         :::::::::::::::::::::::::::::::::::::::::::::::::::::

           -------------------------------------------------
          | TOTAL ENERGY             -151.033902754349 Eh   |
          | TOTAL ENTHALPY           -150.306545436321 Eh   |
          | TOTAL FREE ENERGY        -150.435881624890 Eh   |
          | GRADIENT NORM               0.000101762652 Eh/α |
          | HOMO-LUMO GAP               0.080531286973 eV   |
           -------------------------------------------------

 * finished run on 2025/08/24 at 02:10:04.364
