   * xtb version 6.7.1 (edcfbbe) compiled by 'albert@albert-system' on 2024-07-22

   ID    Z sym.   atoms
    1    7 N      1, 4, 14, 29, 32, 38, 57, 60
    2    6 C      2, 3, 5-13, 15-28, 30, 31, 33-37, 39-56, 58, 59
    3    1 H      61-92

          program call               : xtb data2507/toluene/CNPP-TPA/CNPP-TPA_toluene_S0_crest.xyz --gfn 2 --gbsa toluene --ohess vtight --parallel 40 --molden --ceasefiles --namespace data2507/toluene/CNPP-TPA/CNPP-TPA_toluene_S0_finalOpt
      * Solvation model:               GBSA
        Solvent                        toluene
        Solvent mass                       9.2140E+01 g/mol
          :  Hamiltonian                  GFN2-xTB          :
 * total energy  :  -151.0793699 Eh     change       -0.4926221E-08 Eh
 * total energy  :  -151.0794808 Eh     change       -0.1109247E-03 Eh
 * total energy  :  -151.0795759 Eh     change       -0.9510419E-04 Eh
 * total energy  :  -151.0795979 Eh     change       -0.2198681E-04 Eh
 * total energy  :  -151.0796413 Eh     change       -0.4344587E-04 Eh
 * total energy  :  -151.0796714 Eh     change       -0.3010989E-04 Eh
 * total energy  :  -151.0797190 Eh     change       -0.4754348E-04 Eh
 * total energy  :  -151.0797977 Eh     change       -0.7875600E-04 Eh
 * total energy  :  -151.0798485 Eh     change       -0.5080422E-04 Eh
 * total energy  :  -151.0799441 Eh     change       -0.9554267E-04 Eh
 * total energy  :  -151.0804320 Eh     change       -0.1791144E-06 Eh
 * total energy  :  -151.0804323 Eh     change       -0.2651091E-06 Eh
 * total energy  :  -151.0804325 Eh     change       -0.2539499E-06 Eh
 * total energy  :  -151.0804327 Eh     change       -0.2105456E-06 Eh
 * total energy  :  -151.0804329 Eh     change       -0.1364240E-06 Eh
 * total energy  :  -151.0804330 Eh     change       -0.1366715E-06 Eh
 * total energy  :  -151.0804331 Eh     change       -0.1102994E-06 Eh
 * total energy  :  -151.0804332 Eh     change       -0.1091247E-06 Eh
 * total energy  :  -151.0804333 Eh     change       -0.8288077E-07 Eh
   *** GEOMETRY OPTIMIZATION CONVERGED AFTER 63 ITERATIONS ***

 final structure:
================
92
 xtb: 6.7.1 (edcfbbe)
N           10.33340761235206        1.95160769997935        0.19114195582909
C            9.31966896232207        1.41769083545996        0.13453037324695
C            8.09340770257039        0.71675403031804        0.06140513091526
N            6.95854770587847        1.39734663274683        0.12467134762595
C            5.81248725929180        0.71966036668155        0.05898675111434
C            4.57406100649543        1.43304996882907        0.11464611186984
C            4.50987362300171        2.83361367902392        0.22087331791800
C            3.28711601331376        3.45142983665881        0.25243273426717
C            2.11457532003010        2.66722474682143        0.17250138485709
C            0.77607016573564        3.23675713742550        0.16628680836379
C            0.49210718002446        4.52661319080876        0.62715409646709
C           -0.79217235171042        5.01854153025497        0.60363185351883
C           -1.85023699075033        4.24584710507318        0.10596457051574
N           -3.13887677946839        4.74773646830898        0.07463335501671
C           -4.25166112641856        3.89364561532991        0.16768459023874
C           -5.38343015270256        4.13672842516178       -0.60893750151617
C           -6.48699140867639        3.31105509314516       -0.50584437856656
C           -6.47518913855624        2.23100389681256        0.36177760668907
C           -5.35083836197017        1.98309185622121        1.13274184216710
C           -4.24670385885106        2.80979804048733        1.04482841953563
C           -3.36553427930544        6.12964634643566       -0.05753529809352
C           -2.61273422609931        6.88854614400122       -0.95234725336891
C           -2.84648996831861        8.24484419017486       -1.07904329508899
C           -3.83483539756219        8.85933198975433       -0.32673932178207
C           -4.59129287182312        8.10638991142413        0.55702252887114
C           -4.35986867680683        6.75084463383697        0.69596362370537
C           -1.56804699677728        2.95200555717180       -0.35463913384360
C           -0.28678862184925        2.46067643112322       -0.31603833137852
N            2.17922035456280        1.34265536599128        0.07429454329236
C            3.35050852318322        0.73023677034351        0.04849071672217
C            3.35234725656330       -0.72123597205202       -0.05399720266639
N            2.18265117259872       -1.33676717527744       -0.07785308375675
C            2.12134436682986       -2.66153101968279       -0.17565200108222
C            0.78433014733666       -3.23456954078657       -0.16740422257612
C           -0.28006895816633       -2.46077816218513        0.31523186674310
C           -1.56005013422060       -2.95532090515384        0.35546171350172
C           -1.83935611708328       -4.25033830117109       -0.10357130909359
N           -3.12670097569462       -4.75553128310286       -0.07067637876657
C           -4.24176068477229       -3.90457464820621       -0.16472002892341
C           -5.37299202196598       -4.14989088844491        0.61200144801722
C           -6.47877843460398       -3.32732895207672        0.50788602744740
C           -6.46979110810504       -2.24814190933057       -0.36084338430934
C           -5.34600043858140       -1.99799494198693       -1.13190000048256
C           -4.23964884860161       -2.82162345313407       -1.04299558596757
C           -3.34943844581233       -6.13785414448560        0.06386764555368
C           -2.59399480512906       -6.89305791995040        0.95957982434339
C           -2.82371120941967       -8.24981548021672        1.08866791097662
C           -3.81062184172813       -8.86844332383127        0.33787629204679
C           -4.56971324571734       -8.11919361038288       -0.54676391268253
C           -4.34232645327631       -6.76320856499170       -0.68809726588012
C           -0.77975601698163       -5.02086222113625       -0.60131886637737
C            0.50322756128503       -4.52564623856978       -0.62662310361745
C            3.29586240164244       -3.44262557105080       -0.25715189957324
C            4.51702642811390       -2.82154711554683       -0.22778950406089
C            4.57765999238285       -1.42079093265531       -0.12205247076860
C            5.81427053404612       -0.70406755096293       -0.06887244731429
N            6.96200699229111       -1.37866042494510       -0.13696274128695
C            8.09516257107641       -0.69500501769333       -0.07621288417210
C            9.32317396051750       -1.39259508082838       -0.15197912854547
N           10.33824149743150       -1.92374031225915       -0.21078622575971
H            5.43172400167285        3.39402020758771        0.26698578118538
H            3.22499950869719        4.52574136794737        0.31220592282921
H            1.27470696608344        5.14090087572286        1.04520136580306
H           -0.99370105637552        6.00743534890565        0.98761446099979
H           -5.39109312638977        4.97415613908271       -1.29113271548743
H           -7.35842292588380        3.50977676821703       -1.11239336217982
H           -7.33940846546189        1.58933713598864        0.44031825875658
H           -5.33587700113811        1.14588902308035        1.81490083411826
H           -3.37745425515110        2.62455473205816        1.65859965473475
H           -1.84994966411214        6.40808943812912       -1.54764417002019
H           -2.25839176635767        8.82357703098935       -1.77619730189974
H           -4.01556707358625        9.91862333279365       -0.43061875929238
H           -5.36222996831668        8.57838577064254        1.14825641940146
H           -4.94531854114855        6.16499985096398        1.38937086506466
H           -2.36565696927011        2.34485258389111       -0.75525776504499
H           -0.06749833985411        1.46843052939918       -0.67697792365079
H           -0.06299252280691       -1.46760941849887        0.67496871780803
H           -2.35885278040700       -2.34979188645211        0.75616534159048
H           -5.37852142171931       -4.98661593945568        1.29507809231605
H           -7.34975290077755       -3.52780165441898        1.11451547124040
H           -7.33573022559595       -1.60889587914291       -0.44018464468197
H           -5.33319978758366       -1.16147592843876       -1.81493995592232
H           -3.37085456422906       -2.63463970853496       -1.65688137908669
H           -1.83231427368152       -6.40936828123731        1.55366937208819
H           -2.23356855175366       -8.82564839306348        1.78649572374537
H           -3.98820662901617       -9.92808031342661        0.44362512867957
H           -5.33957078650466       -8.59442986895952       -1.13681056754983
H           -4.92984032060262       -6.18025376396367       -1.38219652872630
H           -0.97908600053765       -6.01071600050441       -0.98397790631550
H            1.28696790969326       -5.13841623881817       -1.04475354019229
H            3.23655394259665       -4.51711666665007       -0.31650761942016
H            5.44030773716154       -3.37949416775468       -0.27526075027065

          :  Hamiltonian                  GFN2-xTB          :
         :: gradient norm              0.000026015464 Eh/a0 ::
         :: HOMO-LUMO gap              0.775450244488 eV    ::
         :: SCC energy              -153.889180448778 Eh    ::
         :: -> dispersion             -0.132110039810 Eh    ::
         :: -> Gsolv                  -0.075055203771 Eh    ::
         :: repulsion energy           2.808747144944 Eh    ::

    * Orbital Energies and Occupations

         #    Occupation            Energy/Eh            Energy/eV
      -------------------------------------------------------------
         1        2.0000           -0.7181744             -19.5425
       ...           ...                  ...                  ...
       128        2.0000           -0.4126907             -11.2299
       129        2.0000           -0.4126267             -11.2281
       130        2.0000           -0.4102116             -11.1624
       131        2.0000           -0.4101588             -11.1610
       132        2.0000           -0.4087678             -11.1231
       133        2.0000           -0.4086284             -11.1193
       134        2.0000           -0.4059116             -11.0454
       135        2.0000           -0.4041192             -10.9966
       136        2.0000           -0.3919303             -10.6650
       137        2.0000           -0.3791384             -10.3169
       138        2.0000           -0.3777886             -10.2802
       139        2.0000           -0.3581532              -9.7458
       140        2.0000           -0.3570548              -9.7160 (HOMO)
       141        0.0000           -0.3285575              -8.9405 (LUMO)
       142                         -0.3252836              -8.8514
       143                         -0.2836943              -7.7197
       144                         -0.2829694              -7.7000
       145                         -0.2632568              -7.1636
       146                         -0.2453852              -6.6773
       147                         -0.2391680              -6.5081
       148                         -0.2389808              -6.5030
       149                         -0.2352855              -6.4024
       150                         -0.2352805              -6.4023
       151                         -0.2319481              -6.3116
       ...                                ...                  ...
       272                          1.1452267              31.1632
      -------------------------------------------------------------
                  HL-Gap            0.0284973 Eh            0.7755 eV

     #   Z          covCN         q      C6AA      α(0)
     1   7 N        0.911    -0.228    25.999     7.375
     2   6 C        1.910     0.112    28.341     8.598
     3   6 C        2.953     0.099    25.811     8.333
     4   7 N        1.852    -0.243    27.206     7.731
     5   6 C        2.960     0.085    26.097     8.379
     6   6 C        2.982    -0.026    28.639     8.778
     7   6 C        2.922    -0.014    28.373     8.735
     8   6 C        2.913    -0.045    29.109     8.847
     9   6 C        2.950     0.102    25.741     8.321
    10   6 C        2.980    -0.006    28.154     8.704
    11   6 C        2.920    -0.030    28.754     8.793
    12   6 C        2.920    -0.049    29.224     8.865
    13   6 C        2.921     0.071    26.403     8.426
    14   7 N        2.752    -0.059    22.381     7.026
    15   6 C        2.925     0.063    26.596     8.457
    16   6 C        2.922    -0.045    29.109     8.848
    17   6 C        2.919    -0.028    28.709     8.787
    18   6 C        2.919    -0.035    28.865     8.810
    19   6 C        2.919    -0.028    28.695     8.784
    20   6 C        2.921    -0.045    29.114     8.848
    21   6 C        2.926     0.063    26.589     8.456
    22   6 C        2.921    -0.045    29.110     8.848
    23   6 C        2.919    -0.029    28.713     8.787
    24   6 C        2.919    -0.035    28.872     8.811
    25   6 C        2.919    -0.028    28.706     8.786
    26   6 C        2.922    -0.044    29.092     8.845
    27   6 C        2.919    -0.048    29.185     8.859
    28   6 C        2.925    -0.025    28.617     8.773
    29   7 N        1.854    -0.229    26.858     7.681
    30   6 C        2.959     0.088    26.051     8.372
    31   6 C        2.959     0.088    26.051     8.372
    32   7 N        1.854    -0.229    26.858     7.681
    33   6 C        2.950     0.102    25.741     8.322
    34   6 C        2.980    -0.006    28.154     8.704
    35   6 C        2.925    -0.025    28.617     8.773
    36   6 C        2.919    -0.048    29.184     8.859
    37   6 C        2.921     0.071    26.403     8.426
    38   7 N        2.752    -0.059    22.381     7.026
    39   6 C        2.925     0.063    26.596     8.457
    40   6 C        2.922    -0.045    29.109     8.848
    41   6 C        2.919    -0.028    28.709     8.787
    42   6 C        2.919    -0.035    28.865     8.810
    43   6 C        2.919    -0.028    28.695     8.784
    44   6 C        2.921    -0.045    29.115     8.849
    45   6 C        2.926     0.063    26.589     8.456
    46   6 C        2.922    -0.045    29.110     8.848
    47   6 C        2.919    -0.029    28.713     8.787
    48   6 C        2.919    -0.035    28.872     8.811
    49   6 C        2.919    -0.028    28.706     8.786
    50   6 C        2.922    -0.044    29.092     8.845
    51   6 C        2.920    -0.049    29.224     8.865
    52   6 C        2.920    -0.030    28.754     8.793
    53   6 C        2.913    -0.045    29.108     8.847
    54   6 C        2.922    -0.014    28.373     8.735
    55   6 C        2.982    -0.026    28.639     8.778
    56   6 C        2.960     0.085    26.097     8.379
    57   7 N        1.852    -0.243    27.206     7.731
    58   6 C        2.953     0.099    25.812     8.333
    59   6 C        1.910     0.112    28.341     8.598
    60   7 N        0.911    -0.228    25.999     7.375
    61   1 H        0.926     0.055     2.252     2.347
    62   1 H        0.926     0.057     2.237     2.339
    63   1 H        0.926     0.042     2.421     2.433
    64   1 H        0.926     0.042     2.420     2.432
    65   1 H        0.926     0.035     2.511     2.478
    66   1 H        0.926     0.037     2.483     2.464
    67   1 H        0.926     0.037     2.489     2.467
    68   1 H        0.926     0.039     2.465     2.455
    69   1 H        0.926     0.038     2.469     2.457
    70   1 H        0.926     0.037     2.485     2.465
    71   1 H        0.926     0.038     2.482     2.464
    72   1 H        0.926     0.036     2.500     2.473
    73   1 H        0.926     0.038     2.475     2.460
    74   1 H        0.926     0.037     2.485     2.465
    75   1 H        0.926     0.046     2.364     2.404
    76   1 H        0.926     0.064     2.153     2.295
    77   1 H        0.926     0.064     2.153     2.295
    78   1 H        0.926     0.046     2.364     2.404
    79   1 H        0.926     0.035     2.511     2.478
    80   1 H        0.926     0.037     2.483     2.464
    81   1 H        0.926     0.037     2.489     2.467
    82   1 H        0.926     0.039     2.465     2.455
    83   1 H        0.926     0.038     2.469     2.457
    84   1 H        0.926     0.037     2.485     2.465
    85   1 H        0.926     0.038     2.482     2.464
    86   1 H        0.926     0.036     2.500     2.473
    87   1 H        0.926     0.038     2.475     2.460
    88   1 H        0.926     0.037     2.485     2.465
    89   1 H        0.926     0.042     2.420     2.432
    90   1 H        0.926     0.042     2.421     2.433
    91   1 H        0.926     0.057     2.237     2.339
    92   1 H        0.926     0.055     2.252     2.347

molecular dipole:
                 x           y           z       tot (Debye)
 q only:       -7.930      -0.010       0.007
   full:       -7.619      -0.010       0.007      19.367

 projected vibrational frequencies (cm⁻¹)
eigval :       -0.00    -0.00    -0.00    -0.00     0.00     0.00
eigval :        7.48    10.00    13.72    17.33    24.97    25.77
eigval :       27.56    37.87    38.77    45.86    48.83    51.04
eigval :       51.99    65.44    68.82    71.27    74.96    80.66
eigval :       93.84    95.61    95.90   105.49   108.00   108.68
eigval :      133.28   149.64   151.05   154.49   165.58   190.08
eigval :      205.13   206.64   224.77   233.05   234.98   244.62
eigval :      246.41   276.65   296.69   297.00   313.81   313.95
eigval :      320.26   333.63   337.25   340.78   376.79   376.88
eigval :      379.67   380.35   382.65   384.80   388.27   390.05
eigval :      396.17   396.82   402.40   411.78   415.92   430.11
eigval :      447.55   453.13   458.83   472.20   479.74   484.63
eigval :      487.26   501.29   503.04   507.83   536.89   539.68
eigval :      563.82   571.87   580.73   583.54   584.60   586.06
eigval :      589.77   592.89   593.23   605.01   610.69   614.55
eigval :      623.57   639.67   647.33   657.63   659.14   660.90
eigval :      661.75   666.81   668.83   682.68   694.70   697.17
eigval :      706.81   718.10   727.89   728.51   757.04   757.74
eigval :      759.68   760.06   763.53   766.45   774.50   815.47
eigval :      817.36   833.48   834.88   862.53   863.05   872.25
eigval :      873.85   873.99   876.29   876.40   895.72   896.30
eigval :      899.16   899.76   909.09   909.40   914.06   918.15
eigval :      918.66   923.77   924.54   925.05   925.64   926.70
eigval :      927.28   928.79   928.96   929.07   930.11   930.84
eigval :      933.78   934.27   943.45   981.97   984.17  1004.34
eigval :     1004.50  1007.52  1013.27  1055.44  1066.63  1080.03
eigval :     1080.05  1082.42  1082.45  1094.95  1098.39  1118.99
eigval :     1120.02  1122.23  1122.55  1133.65  1134.39  1147.87
eigval :     1153.73  1161.02  1175.12  1177.79  1178.69  1179.25
eigval :     1182.74  1183.69  1191.83  1192.81  1193.83  1194.13
eigval :     1208.60  1211.92  1220.91  1259.02  1261.30  1267.52
eigval :     1268.24  1275.24  1275.31  1279.41  1279.46  1292.19
eigval :     1292.69  1298.43  1300.85  1313.96  1314.24  1314.51
eigval :     1320.80  1322.24  1323.99  1327.30  1328.49  1332.43
eigval :     1338.06  1341.99  1366.92  1368.20  1400.07  1405.00
eigval :     1417.30  1421.49  1431.38  1432.03  1435.62  1437.75
eigval :     1439.87  1440.06  1455.61  1465.49  1465.72  1467.95
eigval :     1468.77  1469.15  1484.01  1489.71  1513.06  1514.50
eigval :     1540.01  1541.47  1544.15  1553.83  1576.56  1576.61
eigval :     1580.30  1580.47  1589.16  1589.18  1589.27  1591.07
eigval :     1597.55  1598.45  2351.50  2355.20  3074.52  3074.89
eigval :     3075.71  3075.99  3076.22  3076.83  3077.62  3077.86
eigval :     3083.94  3083.99  3084.90  3084.93  3086.46  3086.57
eigval :     3086.71  3086.83  3087.58  3087.80  3088.86  3089.11
eigval :     3092.61  3092.76  3095.71  3095.90  3096.56  3096.60
eigval :     3098.08  3098.58  3107.33  3107.62  3111.41  3113.09

   temp. (K)  partition function   enthalpy   heat capacity  entropy
                                   cal/mol     cal/K/mol   cal/K/mol   J/K/mol
 298.15  VIB  0.378E+24            28699.503    175.166    181.903
         ROT  0.112E+09              888.752      2.981     39.806
         INT  0.422E+32            29588.255    178.147    221.709
         TR   0.206E+29             1481.254      4.968     45.777
         TOT                       31069.5093   183.1149   267.4863  1119.1626

       T/K    H(0)-H(T)+PV         H(T)/Eh          T*S/Eh         G(T)/Eh
   ------------------------------------------------------------------------
    298.15    0.495124E-01    0.732100E+00    0.127091E+00    0.605009E+00
   ------------------------------------------------------------------------

         :::::::::::::::::::::::::::::::::::::::::::::::::::::
         ::                  THERMODYNAMIC                  ::
         :::::::::::::::::::::::::::::::::::::::::::::::::::::
         :: total free energy        -150.475424734666 Eh   ::
         ::.................................................::
         :: total energy             -151.080433301011 Eh   ::
         :: zero point energy           0.682587515246 Eh   ::
         :: G(RRHO) w/o ZPVE           -0.077578948901 Eh   ::
         :: G(RRHO) contrib.            0.605008566345 Eh   ::
         :::::::::::::::::::::::::::::::::::::::::::::::::::::

           -------------------------------------------------
          | TOTAL ENERGY             -151.080433301011 Eh   |
          | TOTAL ENTHALPY           -150.348333371099 Eh   |
          | TOTAL FREE ENERGY        -150.475424734666 Eh   |
          | GRADIENT NORM               0.000026035527 Eh/α |
          | HOMO-LUMO GAP               0.775452325292 eV   |
           -------------------------------------------------

 * finished run on 2025/08/24 at 01:51:23.785
