   * xtb version 6.7.1 (edcfbbe) compiled by 'albert@albert-system' on 2024-07-22

   ID    Z sym.   atoms
    1    6 C      1-5, 7-11, 13-22, 24-31, 33-47
    2    7 N      6, 23, 32
    3    8 O      12
    4    1 H      48-82

          program call               : xtb data2507/gas/BIPOCz/BIPOCz_gas_S0_finalOpt.xtbopt.xyz --gfn 2 --spinpol --tblite --uhf 2 --ohess vtight --parallel 40 --molden --ceasefiles --namespace data2507/gas/BIPOCz/BIPOCz_gas_T1_preOpt
 * total energy  :  -122.7238268 Eh     change       -0.3336356E-07 Eh
 * total energy  :  -122.7314659 Eh     change       -0.7639141E-02 Eh
 * total energy  :  -122.7342808 Eh     change       -0.2814916E-02 Eh
 * total energy  :  -122.7349846 Eh     change       -0.7037188E-03 Eh
 * total energy  :  -122.7357344 Eh     change       -0.7498137E-03 Eh
 * total energy  :  -122.7361464 Eh     change       -0.4120662E-03 Eh
 * total energy  :  -122.7364526 Eh     change       -0.3061598E-03 Eh
 * total energy  :  -122.7366906 Eh     change       -0.2379519E-03 Eh
 * total energy  :  -122.7368927 Eh     change       -0.2021699E-03 Eh
 * total energy  :  -122.7370655 Eh     change       -0.1727344E-03 Eh
 * total energy  :  -122.7380072 Eh     change       -0.4006873E-05 Eh
 * total energy  :  -122.7380105 Eh     change       -0.3250333E-05 Eh
 * total energy  :  -122.7380131 Eh     change       -0.2613582E-05 Eh
 * total energy  :  -122.7380151 Eh     change       -0.2024467E-05 Eh
 * total energy  :  -122.7380166 Eh     change       -0.1457231E-05 Eh
 * total energy  :  -122.7380176 Eh     change       -0.1043788E-05 Eh
 * total energy  :  -122.7380184 Eh     change       -0.8208951E-06 Eh
 * total energy  :  -122.7380184 Eh     change        0.9452307E-08 Eh
 * total energy  :  -122.7380185 Eh     change       -0.3770334E-07 Eh
   *** GEOMETRY OPTIMIZATION CONVERGED AFTER 69 ITERATIONS ***

 final structure:
================
82
 xtb: 6.7.1 (edcfbbe)
C           -5.66701054193006        4.27291258334759        0.59094794382185
C           -6.08634640100710        2.97251720620493        0.82561301368409
C           -5.17369660815383        1.93730789903787        0.86391079331582
C           -3.81209097176194        2.19125280614102        0.66119720773568
C           -2.80866668214227        1.15452702209990        0.71427478100176
N           -1.59592364046159        1.42288718224043        1.14988454548815
C           -0.88792421155927        0.27970714065354        1.17700064825089
C            0.49401669983865        0.29530257811471        1.42135346592273
C            1.39763072870656       -0.76993716954822        1.17389930268426
C            2.74438683187722       -0.62953594287421        1.39971533424798
C            3.26999111823254        0.57860176745622        1.86654465067991
O            4.57748600712094        0.83545643638223        2.11401006458629
C            5.59188886747522        0.01033778182756        1.57115975333810
C            6.72249235222773        0.91692804656187        1.08122059698853
C            6.25253455068697        1.90348287429787        0.00913178224777
C            6.18208222018262        1.31353526850268       -1.40651888427683
C            5.17532114539764        0.21091505698305       -1.58443761208839
C            5.57282592243451       -1.10530891565713       -1.77093284774379
C            4.66046610925259       -2.14030006273085       -1.96081670550596
C            3.30331562891549       -1.89335965150974       -1.99539324307739
C            2.86758056694644       -0.58590973647002       -1.82514548159845
C            3.80238239512175        0.45311785703510       -1.60309371912176
N            3.11886951369235        1.63502009529015       -1.45665328509575
C            1.77409735501850        1.40442138765935       -1.59713416352456
C            0.71227427744821        2.29494537225878       -1.55930530730019
C           -0.55481691935132        1.79374593798280       -1.78296792328819
C           -0.76651937744506        0.43764475669082       -2.02563595259915
C            0.28443817281402       -0.45618096158319       -2.04568346396711
C            1.56921438825458        0.02623559692405       -1.83333572597790
C            2.38732158146923        1.65004960715178        2.11416878221758
C            1.05065785003472        1.51871569497012        1.89378542460792
N           -1.72014222441226       -0.80920682366808        0.82192743284166
C           -1.36827648323415       -2.15551411002556        0.79196592984514
C           -1.61802946140316       -2.93665223807589       -0.34060566997837
C           -1.27209632587679       -4.27222038236138       -0.34585486108956
C           -0.68152667146033       -4.85237698855836        0.76753547637125
C           -0.43702028956346       -4.08173168745987        1.89530727312489
C           -0.77711095367357       -2.74476608371949        1.91477367319943
C           -2.94048859792693       -0.26816372708596        0.44447907392362
C           -4.05916631065869       -0.97525183284650       -0.05894293176967
C           -4.89545340331485       -0.36491308054408       -1.02724791933764
C           -5.98404611588759       -1.02787840929773       -1.53766085851009
C           -6.29750320299513       -2.31401008723552       -1.10639258304268
C           -5.49585312620604       -2.92598772065644       -0.14694490289790
C           -4.39530984580116       -2.28342051303162        0.36568573902748
C           -3.39625525498699        3.51355548860366        0.46062384910786
C           -4.31534200142796        4.53949378788726        0.41787468344947
H           -6.38751761282918        5.07660963574372        0.55476004007937
H           -7.13446781675951        2.76524026958434        0.98607481154391
H           -5.50730805881331        0.93443387174814        1.08135716393672
H            1.04160357566388       -1.69967926598286        0.76603405729259
H            3.39066034312708       -1.47131422664410        1.20233093450293
H            5.20988060742870       -0.58624715565389        0.74093758612367
H            5.96205193829200       -0.66454019688568        2.35434452229487
H            7.53178019865592        0.29371734985286        0.69841249101626
H            7.09815976793495        1.48016725672484        1.93733927723133
H            6.94879829170679        2.74502457532559       -0.01763476988575
H            5.27722609348509        2.29183034028310        0.30715347513118
H            7.17071286263713        0.93439184757520       -1.67498383195898
H            5.94180950149763        2.12489784039561       -2.10125334599565
H            6.62932341199830       -1.33462464293357       -1.76832373732273
H            5.02910909180932       -3.14682041730057       -2.09300194178566
H            2.59438032903538       -2.69159926269059       -2.15401544151052
H            3.53522172496883        2.53393916304433       -1.28885343637786
H            0.87203704786824        3.34589037208850       -1.36992904050196
H           -1.40129129705258        2.46403774992796       -1.77301624035883
H           -1.77395193232221        0.08831060360393       -2.20265342084048
H            0.11969735889510       -1.50741374796952       -2.22941593403180
H            2.80694662402974        2.57476994496320        2.48015295746455
H            0.37306227158341        2.33697610369207        2.07380872367044
H           -2.07408025590752       -2.48575393718030       -1.20838683310144
H           -1.46079891372167       -4.86718153191965       -1.22757143516148
H           -0.41630876631462       -5.89857555352275        0.75780306433869
H            0.01398688223430       -4.52977258428701        2.76854720502242
H           -0.59623835491712       -2.14187422087898        2.79261328650340
H           -4.63932841248406        0.61843926167619       -1.39252322659588
H           -6.59691560562467       -0.54955904414258       -2.28824377773795
H           -7.15446351228417       -2.83062376742364       -1.51050670899136
H           -5.74489658712155       -3.91674290411376        0.20555998222781
H           -3.81176587096011       -2.75637784774599        1.14033247977770
H           -2.34153356154464        3.70236850095866        0.33318376691895
H           -3.98414673102261        5.55397693868044        0.24888051121726

 projected vibrational frequencies (cm⁻¹)
eigval :       -0.00    -0.00    -0.00     0.00     0.00     0.00
eigval :       11.91    17.56    21.51    23.45    31.52    39.13
eigval :       40.33    48.58    57.88    61.92    66.22    75.87
eigval :       83.34    90.77    94.01   110.35   120.06   134.97
eigval :      136.33   140.24   161.99   177.26   189.44   202.60
eigval :      220.27   224.45   231.93   235.99   243.28   251.44
eigval :      264.48   277.87   284.52   296.02   307.92   328.57
eigval :      329.46   358.49   372.57   378.50   383.07   388.28
eigval :      393.65   408.15   414.03   429.49   433.27   439.71
eigval :      452.51   459.36   466.30   475.73   483.61   489.61
eigval :      500.20   516.68   532.72   541.39   555.74   575.14
eigval :      579.30   585.41   588.97   592.84   596.21   612.02
eigval :      614.18   621.25   638.03   641.70   649.80   658.60
eigval :      668.05   671.35   683.33   696.65   703.20   709.60
eigval :      732.18   741.24   758.42   764.17   775.17   784.93
eigval :      793.47   795.99   825.80   833.93   848.02   850.11
eigval :      856.44   863.63   864.92   868.47   869.56   872.20
eigval :      882.99   885.50   888.63   889.69   897.49   903.13
eigval :      910.61   913.47   913.80   918.21   921.05   922.90
eigval :      923.75   924.21   926.23   926.72   928.01   931.23
eigval :      952.53   965.02   982.25   985.11   996.02  1017.54
eigval :     1047.43  1054.43  1067.63  1070.23  1076.38  1078.91
eigval :     1080.62  1087.74  1097.93  1111.17  1116.03  1118.79
eigval :     1119.34  1123.11  1129.42  1145.20  1147.75  1156.77
eigval :     1163.52  1173.75  1176.06  1178.87  1180.08  1185.51
eigval :     1190.17  1191.62  1195.42  1200.90  1201.84  1218.57
eigval :     1222.71  1235.65  1237.87  1240.88  1260.89  1268.36
eigval :     1274.71  1276.81  1277.48  1283.92  1284.55  1316.22
eigval :     1321.27  1324.22  1324.52  1326.27  1331.05  1332.78
eigval :     1337.73  1342.03  1349.20  1354.93  1357.63  1374.82
eigval :     1378.50  1394.43  1405.00  1411.06  1412.14  1426.13
eigval :     1430.76  1431.31  1433.00  1446.24  1457.67  1460.88
eigval :     1464.49  1475.09  1481.39  1484.98  1487.96  1492.26
eigval :     1501.03  1504.89  1541.08  1542.36  1551.52  1559.24
eigval :     1569.77  1578.86  1580.22  1593.76  1598.49  1602.87
eigval :     1618.68  2896.24  2941.12  2967.57  2978.66  2979.96
eigval :     2989.14  2997.09  2999.10  3069.31  3069.90  3070.84
eigval :     3072.05  3072.84  3075.87  3076.98  3077.34  3078.61
eigval :     3081.71  3086.28  3087.41  3087.97  3089.12  3089.56
eigval :     3092.64  3093.43  3093.59  3095.38  3095.68  3099.01
eigval :     3100.23  3100.77  3102.77  3118.83  3137.94  3495.61

   temp. (K)  partition function   enthalpy   heat capacity  entropy
                                   cal/mol     cal/K/mol   cal/K/mol   J/K/mol
 298.15  VIB  0.289E+18            22915.070    145.204    142.155
         ROT  0.525E+08              888.752      2.981     38.308
         INT  0.152E+26            23803.823    148.185    180.463
         TR   0.146E+29             1481.254      4.968     45.086
         TOT                       25285.0767   153.1531   225.5495   943.6993

       T/K    H(0)-H(T)+PV         H(T)/Eh          T*S/Eh         G(T)/Eh
   ------------------------------------------------------------------------
    298.15    0.402943E-01    0.686873E+00    0.107166E+00    0.579707E+00
   ------------------------------------------------------------------------

         :::::::::::::::::::::::::::::::::::::::::::::::::::::
         ::                  THERMODYNAMIC                  ::
         :::::::::::::::::::::::::::::::::::::::::::::::::::::
         :: total free energy        -122.158311411988 Eh   ::
         ::.................................................::
         :: total energy             -122.738018459082 Eh   ::
         :: zero point energy           0.646578581857 Eh   ::
         :: G(RRHO) w/o ZPVE           -0.066871534763 Eh   ::
         :: G(RRHO) contrib.            0.579707047094 Eh   ::
         :::::::::::::::::::::::::::::::::::::::::::::::::::::

           -------------------------------------------------
          | TOTAL ENERGY             -122.738018459082 Eh   |
          | TOTAL ENTHALPY           -122.051145542647 Eh   |
          | TOTAL FREE ENERGY        -122.158311411988 Eh   |
          | GRADIENT NORM               0.000087464819 Eh/α |
           -------------------------------------------------

 * finished run on 2025/09/11 at 11:07:50.237
