   * xtb version 6.7.1 (edcfbbe) compiled by 'albert@albert-system' on 2024-07-22

   ID    Z sym.   atoms
    1    6 C      1-5, 7-11, 13-22, 24-31, 33-47
    2    7 N      6, 23, 32
    3    8 O      12
    4    1 H      48-82

          program call               : xtb data2507/gas/BIPOCz/BIPOCz_gas_S0_crest.xyz --gfn 2 --ohess vtight --parallel 40 --molden --ceasefiles --namespace data2507/gas/BIPOCz/BIPOCz_gas_S0_finalOpt
          :  Hamiltonian                  GFN2-xTB          :
 * total energy  :  -122.8269415 Eh     change       -0.2012271E-08 Eh
 * total energy  :  -122.8269427 Eh     change       -0.1235934E-05 Eh
 * total energy  :  -122.8269440 Eh     change       -0.1302373E-05 Eh
 * total energy  :  -122.8269465 Eh     change       -0.2423910E-05 Eh
 * total energy  :  -122.8269471 Eh     change       -0.6358046E-06 Eh
 * total energy  :  -122.8269480 Eh     change       -0.8744466E-06 Eh
 * total energy  :  -122.8269494 Eh     change       -0.1454629E-05 Eh
 * total energy  :  -122.8269506 Eh     change       -0.1184965E-05 Eh
 * total energy  :  -122.8269513 Eh     change       -0.7336948E-06 Eh
 * total energy  :  -122.8269519 Eh     change       -0.5903317E-06 Eh
 * total energy  :  -122.8269541 Eh     change       -0.5964139E-06 Eh
 * total energy  :  -122.8269546 Eh     change       -0.5129280E-06 Eh
 * total energy  :  -122.8269549 Eh     change       -0.3290822E-06 Eh
 * total energy  :  -122.8269551 Eh     change       -0.2340927E-06 Eh
 * total energy  :  -122.8269554 Eh     change       -0.2250444E-06 Eh
 * total energy  :  -122.8269557 Eh     change       -0.2923838E-06 Eh
 * total energy  :  -122.8269560 Eh     change       -0.3651230E-06 Eh
 * total energy  :  -122.8269564 Eh     change       -0.3680387E-06 Eh
 * total energy  :  -122.8269564 Eh     change       -0.6829296E-08 Eh
   *** GEOMETRY OPTIMIZATION CONVERGED AFTER 22 ITERATIONS ***

 final structure:
================
82
 xtb: 6.7.1 (edcfbbe)
C           -5.40087773334639        4.40583330427546        0.26647397486107
C           -5.87414042143154        3.12797087895171        0.51544102537024
C           -4.99459922135914        2.07091640201847        0.65544233340427
C           -3.62188741741696        2.28032365429582        0.53968008392898
C           -2.65672933793257        1.20050393198900        0.67561428916127
N           -1.38893745453755        1.45671009612137        1.09579018392719
C           -0.75710482718188        0.30952382906095        1.14695076476222
C            0.64814572307521        0.21048012402359        1.48988777949199
C            1.48884137935080       -0.79258155900307        1.01677362652158
C            2.83435378709941       -0.79792363293686        1.33092686517048
C            3.37542451316669        0.21102803048722        2.12129757119667
O            4.67696439650634        0.28588356097071        2.51276217977501
C            5.70565103154835       -0.20005524155875        1.66730036734719
C            6.58819620422878        0.97396829326112        1.23475010738623
C            5.84568968424202        1.98913222422391        0.36134081139685
C            5.81652180355935        1.62844445289665       -1.13105116353761
C            4.94551608288231        0.45299253663080       -1.47615677400839
C            5.48310113967778       -0.79385980090892       -1.75887382835979
C            4.69121729700825       -1.88184457102162       -2.11829875077723
C            3.32228298325813       -1.75555772579929       -2.23849202721650
C            2.74879293883154       -0.51864271868785       -1.97481371251049
C            3.55974823223183        0.56870306216027       -1.57160290377159
N            2.75833091050130        1.66432529719754       -1.36932252912078
C            1.45635670602509        1.33461976514547       -1.64763869667036
C            0.31703580750931        2.12372159535688       -1.62394252077989
C           -0.87696747643690        1.54140228063873       -2.00090512436357
C           -0.94246284049451        0.20172833541381       -2.37879759901207
C            0.18717638012275       -0.59145938896790       -2.39501467978271
C            1.40219043783386       -0.02387938191069       -2.03394263183025
C            2.53344200236472        1.21716885782870        2.60210804963716
C            1.19520012199877        1.21867384329915        2.28762131407711
N           -1.58351789935708       -0.72080895090759        0.77808951894058
C           -1.30079170674290       -2.09731756143773        0.77623143069781
C           -1.54960815470136       -2.86257789181261       -0.35731802328744
C           -1.28822927155292       -4.22030812429857       -0.33842398007607
C           -0.78144322636538       -4.81891199869446        0.80278010971555
C           -0.53714983353752       -4.05567193267667        1.93294707712272
C           -0.79969875240466       -2.69874011608125        1.92669898391557
C           -2.80135170173115       -0.15937872064560        0.45801867636154
C           -3.93528402247953       -0.93876269922753       -0.01903844181972
C           -4.61442321907039       -0.53707718349997       -1.16932276355009
C           -5.68472575810958       -1.27123896298365       -1.64156551853342
C           -6.09293315386407       -2.41620153870579       -0.97588043666561
C           -5.42927174912026       -2.81782466954736        0.17102965604604
C           -4.35783829527428       -2.08658164244292        0.64915533222610
C           -3.15289705769574        3.57339287344179        0.30951421641300
C           -4.03615972306304        4.62580978580763        0.17108095888566
H           -6.09302709328296        5.22789908033172        0.15541530164645
H           -6.93695324961783        2.95442675058995        0.60632809856881
H           -5.37208288457340        1.08173754485970        0.86795987779302
H            1.10557007424884       -1.57338010739326        0.37917516733198
H            3.45142103497511       -1.59837781438307        0.95170322556899
H            5.29910644940310       -0.70464468151305        0.78988847144162
H            6.29972969750489       -0.91613364715659        2.24734752446989
H            7.45837042199023        0.58429391606825        0.70408506700697
H            6.93768909734626        1.47353310015707        2.14032992301428
H            6.34375983267787        2.95690042637916        0.45839531271539
H            4.82756500230553        2.10335928523126        0.73880212497187
H            6.83779365336605        1.42427865958468       -1.46051578438348
H            5.46077499602240        2.50138088530672       -1.68719714778615
H            6.55501087029038       -0.92354572680846       -1.70282284128548
H            5.16467679363471       -2.83150369162192       -2.32014286101909
H            2.70987888793698       -2.59303688807722       -2.53697441717741
H            3.06963194970763        2.56641953692189       -1.05498741979788
H            0.36209550455013        3.15944016800613       -1.32399690167681
H           -1.77887654889958        2.13519353746953       -2.00117974391521
H           -1.89621733719411       -0.21522362877776       -2.67022830271168
H            0.13639724125777       -1.62894699764939       -2.69224152250797
H            2.96134771325052        1.98959053141994        3.22273696509544
H            0.54467517237131        2.00272618061472        2.64136629132856
H           -1.94342227549393       -2.39015652963798       -1.24335155640845
H           -1.48176265684023       -4.81257329548991       -1.22036493087843
H           -0.57900686272736       -5.87927897434838        0.81287735361110
H           -0.14682965277670       -4.51951676889507        2.82635787607723
H           -0.61575311879391       -2.09643190050834        2.80411325132525
H           -4.29409838944920        0.35654878365971       -1.68479390107750
H           -6.20159746038042       -0.95176078624180       -2.53474718994219
H           -6.92834112343877       -2.99058457787183       -1.34793958839506
H           -5.74893067587173       -3.70440453604332        0.69907951229091
H           -3.85466787586342       -2.39787334639195        1.55342859867499
H           -2.08681414397908        3.72683757179262        0.24559779407925
H           -3.66215077067941        5.62314345677578       -0.01216511691295

          :  Hamiltonian                  GFN2-xTB          :
         :: gradient norm              0.000063476343 Eh/a0 ::
         :: HOMO-LUMO gap              2.767271638823 eV    ::
         :: SCC energy              -125.020266072351 Eh    ::
         :: -> dispersion             -0.128461467278 Eh    ::
         :: repulsion energy           2.193309672546 Eh    ::

    * Orbital Energies and Occupations

         #    Occupation            Energy/Eh            Energy/eV
      -------------------------------------------------------------
         1        2.0000           -0.7085504             -19.2806
       ...           ...                  ...                  ...
       102        2.0000           -0.4101180             -11.1599
       103        2.0000           -0.4075769             -11.0907
       104        2.0000           -0.4054328             -11.0324
       105        2.0000           -0.4035237             -10.9804
       106        2.0000           -0.4015202             -10.9259
       107        2.0000           -0.3971677             -10.8075
       108        2.0000           -0.3930490             -10.6954
       109        2.0000           -0.3910728             -10.6416
       110        2.0000           -0.3795604             -10.3284
       111        2.0000           -0.3715113             -10.1093
       112        2.0000           -0.3679855             -10.0134
       113        2.0000           -0.3604805              -9.8092
       114        2.0000           -0.3520375              -9.5794 (HOMO)
       115                         -0.2503422              -6.8122 (LUMO)
       116                         -0.2394741              -6.5164
       117                         -0.2359352              -6.4201
       118                         -0.2357868              -6.4161
       119                         -0.2300740              -6.2606
       120                         -0.2230957              -6.0707
       121                         -0.2206189              -6.0033
       122                         -0.2167112              -5.8970
       123                         -0.2112662              -5.7488
       124                         -0.2097606              -5.7079
       125                         -0.1886994              -5.1348
       ...                                ...                  ...
       223                          0.7506828              20.4271
      -------------------------------------------------------------
                  HL-Gap            0.1016953 Eh            2.7673 eV

     #   Z          covCN         q      C6AA      α(0)
     1   6 C        2.920    -0.033    28.825     8.804
     2   6 C        2.919    -0.031    28.762     8.795
     3   6 C        2.923    -0.037    28.927     8.820
     4   6 C        2.973     0.011    27.764     8.643
     5   6 C        3.165     0.052    26.491     8.411
     6   7 N        1.916    -0.294    28.458     7.910
     7   6 C        3.158     0.122    25.027     8.179
     8   6 C        2.974    -0.009    28.235     8.716
     9   6 C        2.923    -0.034    28.843     8.807
    10   6 C        2.917    -0.061    29.526     8.910
    11   6 C        2.859     0.145    24.851     8.171
    12   8 O        1.705    -0.283    18.693     5.837
    13   6 C        3.688     0.077    19.484     6.318
    14   6 C        3.799    -0.065    21.748     6.640
    15   6 C        3.800    -0.053    21.520     6.605
    16   6 C        3.805    -0.062    21.681     6.629
    17   6 C        2.958    -0.013    28.339     8.732
    18   6 C        2.929    -0.046    29.146     8.854
    19   6 C        2.919    -0.046    29.146     8.853
    20   6 C        2.912    -0.037    28.927     8.819
    21   6 C        3.074    -0.017    28.361     8.732
    22   6 C        3.074     0.047    26.867     8.499
    23   7 N        2.757    -0.122    23.653     7.223
    24   6 C        3.072     0.055    26.688     8.470
    25   6 C        2.910    -0.049    29.219     8.864
    26   6 C        2.924    -0.027    28.683     8.783
    27   6 C        2.920    -0.041    29.026     8.835
    28   6 C        2.912    -0.034    28.858     8.809
    29   6 C        3.073    -0.018    28.379     8.735
    30   6 C        2.919    -0.056    29.385     8.889
    31   6 C        2.929    -0.032    28.787     8.799
    32   7 N        2.851    -0.037    21.948     6.958
    33   6 C        2.914     0.068    26.474     8.437
    34   6 C        2.922    -0.037    28.932     8.821
    35   6 C        2.920    -0.027    28.674     8.781
    36   6 C        2.919    -0.031    28.779     8.797
    37   6 C        2.920    -0.027    28.674     8.781
    38   6 C        2.922    -0.038    28.950     8.823
    39   6 C        3.071     0.014    27.626     8.618
    40   6 C        2.971     0.010    27.792     8.647
    41   6 C        2.926    -0.032    28.794     8.800
    42   6 C        2.918    -0.029    28.719     8.788
    43   6 C        2.920    -0.032    28.787     8.798
    44   6 C        2.919    -0.029    28.737     8.791
    45   6 C        2.924    -0.034    28.845     8.808
    46   6 C        2.928    -0.031    28.764     8.795
    47   6 C        2.918    -0.031    28.762     8.795
    48   1 H        0.926     0.026     2.648     2.545
    49   1 H        0.926     0.025     2.654     2.547
    50   1 H        0.926     0.025     2.660     2.550
    51   1 H        0.926     0.032     2.557     2.501
    52   1 H        0.926     0.033     2.548     2.496
    53   1 H        0.924     0.041     2.437     2.441
    54   1 H        0.924     0.036     2.504     2.475
    55   1 H        0.924     0.039     2.458     2.452
    56   1 H        0.924     0.048     2.346     2.395
    57   1 H        0.924     0.033     2.550     2.497
    58   1 H        0.924     0.039     2.456     2.451
    59   1 H        0.924     0.038     2.471     2.458
    60   1 H        0.924     0.031     2.574     2.509
    61   1 H        0.926     0.025     2.660     2.550
    62   1 H        0.926     0.025     2.663     2.552
    63   1 H        0.926     0.027     2.630     2.536
    64   1 H        0.860     0.158     1.345     1.816
    65   1 H        0.926     0.029     2.603     2.523
    66   1 H        0.926     0.032     2.561     2.503
    67   1 H        0.926     0.021     2.724     2.581
    68   1 H        0.926     0.025     2.665     2.553
    69   1 H        0.926     0.048     2.346     2.395
    70   1 H        0.926     0.058     2.220     2.330
    71   1 H        0.926     0.044     2.401     2.423
    72   1 H        0.926     0.038     2.476     2.461
    73   1 H        0.926     0.038     2.481     2.463
    74   1 H        0.926     0.039     2.464     2.455
    75   1 H        0.926     0.040     2.455     2.450
    76   1 H        0.926     0.033     2.540     2.492
    77   1 H        0.926     0.031     2.568     2.506
    78   1 H        0.926     0.030     2.587     2.515
    79   1 H        0.926     0.029     2.604     2.523
    80   1 H        0.926     0.024     2.674     2.557
    81   1 H        0.926     0.048     2.344     2.394
    82   1 H        0.926     0.027     2.630     2.536

molecular dipole:
                 x           y           z       tot (Debye)
 q only:        0.778      -0.384      -0.261
   full:        0.739      -0.716      -0.356       2.767

 projected vibrational frequencies (cm⁻¹)
eigval :       -0.00    -0.00     0.00     0.00     0.00     0.00
eigval :       11.49    22.84    23.58    26.51    31.34    36.99
eigval :       38.29    47.40    54.38    59.04    64.06    73.38
eigval :       80.80    83.00    87.25   102.97   114.83   129.85
eigval :      136.28   139.97   162.14   170.72   188.41   196.52
eigval :      228.28   229.62   237.40   237.71   247.77   256.83
eigval :      265.70   280.65   288.99   296.68   331.61   334.23
eigval :      358.55   372.53   377.43   381.08   382.85   392.65
eigval :      404.82   411.24   419.90   434.41   439.51   455.44
eigval :      461.88   481.15   486.64   487.10   496.99   504.22
eigval :      518.84   530.61   533.62   542.58   556.18   585.37
eigval :      586.62   588.67   594.79   600.74   614.77   618.68
eigval :      625.34   644.16   652.53   661.19   666.18   677.14
eigval :      682.59   684.11   693.90   703.09   706.18   710.40
eigval :      739.25   761.23   764.55   773.96   776.36   797.09
eigval :      811.50   821.38   830.23   848.50   857.01   863.04
eigval :      864.65   867.28   876.31   879.21   879.55   885.73
eigval :      889.23   898.85   901.92   903.53   904.58   913.68
eigval :      914.17   922.23   925.07   925.77   928.33   930.36
eigval :      930.95   931.58   931.76   932.91   943.18   951.09
eigval :      967.28   975.54   995.53  1017.43  1023.64  1034.32
eigval :     1048.22  1069.44  1080.08  1081.54  1081.93  1083.61
eigval :     1086.57  1109.71  1110.43  1117.01  1117.72  1118.06
eigval :     1121.09  1131.37  1146.86  1152.69  1164.19  1172.88
eigval :     1180.58  1181.79  1181.98  1186.80  1189.48  1192.40
eigval :     1195.02  1198.56  1201.28  1206.40  1217.13  1223.72
eigval :     1237.26  1241.22  1249.65  1272.14  1272.99  1275.00
eigval :     1277.65  1282.14  1284.76  1290.05  1315.53  1317.55
eigval :     1318.33  1322.09  1324.89  1326.37  1334.64  1339.58
eigval :     1342.02  1349.38  1356.38  1359.54  1367.91  1374.77
eigval :     1397.77  1413.59  1415.97  1430.27  1432.48  1435.30
eigval :     1437.34  1450.31  1454.48  1466.38  1469.53  1481.80
eigval :     1484.85  1490.01  1491.47  1491.89  1505.34  1531.27
eigval :     1561.13  1569.59  1578.40  1580.90  1581.75  1584.71
eigval :     1594.41  1595.69  1597.62  1600.06  1602.79  1603.97
eigval :     1619.55  2919.67  2944.96  2964.81  2977.78  2979.01
eigval :     2987.65  2994.37  2998.33  3066.89  3067.25  3068.31
eigval :     3071.51  3072.33  3075.05  3078.31  3080.02  3081.15
eigval :     3082.30  3083.45  3084.10  3084.30  3087.72  3088.13
eigval :     3091.58  3091.83  3091.96  3094.10  3095.03  3095.68
eigval :     3099.10  3104.28  3108.25  3109.80  3110.70  3497.19

   temp. (K)  partition function   enthalpy   heat capacity  entropy
                                   cal/mol     cal/K/mol   cal/K/mol   J/K/mol
 298.15  VIB  0.238E+18            22640.385    142.808    140.855
         ROT  0.511E+08              888.752      2.981     38.253
         INT  0.122E+26            23529.138    145.789    179.107
         TR   0.146E+29             1481.254      4.968     45.086
         TOT                       25010.3915   150.7575   224.1939   938.0272

       T/K    H(0)-H(T)+PV         H(T)/Eh          T*S/Eh         G(T)/Eh
   ------------------------------------------------------------------------
    298.15    0.398566E-01    0.690938E+00    0.106522E+00    0.584417E+00
   ------------------------------------------------------------------------

         :::::::::::::::::::::::::::::::::::::::::::::::::::::
         ::                  THERMODYNAMIC                  ::
         :::::::::::::::::::::::::::::::::::::::::::::::::::::
         :: total free energy        -122.242539657374 Eh   ::
         ::.................................................::
         :: total energy             -122.826956399804 Eh   ::
         :: zero point energy           0.651081895343 Eh   ::
         :: G(RRHO) w/o ZPVE           -0.066665152914 Eh   ::
         :: G(RRHO) contrib.            0.584416742430 Eh   ::
         :::::::::::::::::::::::::::::::::::::::::::::::::::::

           -------------------------------------------------
          | TOTAL ENERGY             -122.826956399804 Eh   |
          | TOTAL ENTHALPY           -122.136017908652 Eh   |
          | TOTAL FREE ENERGY        -122.242539657374 Eh   |
          | GRADIENT NORM               0.000063479123 Eh/α |
          | HOMO-LUMO GAP               2.767271038250 eV   |
           -------------------------------------------------

 * finished run on 2025/09/11 at 11:06:26.327
