   * xtb version 6.7.1 (edcfbbe) compiled by 'albert@albert-system' on 2024-07-22

   ID    Z sym.   atoms
    1    6 C      1-5, 7-11, 13-22, 24-31, 33-47
    2    7 N      6, 23, 32
    3    8 O      12
    4    1 H      48-82

          program call               : xtb data2507/gas/BIPOCz/BIPOCz.xyz --gfn 2 --ohess vtight --parallel 40 --molden --ceasefiles --namespace data2507/gas/BIPOCz/BIPOCz_gas_S0_preOpt
          :  Hamiltonian                  GFN2-xTB          :
 * total energy  :  -122.7891565 Eh     change       -0.2755016E-08 Eh
 * total energy  :  -122.8008916 Eh     change       -0.1173511E-01 Eh
 * total energy  :  -122.8034117 Eh     change       -0.2520078E-02 Eh
 * total energy  :  -122.8040931 Eh     change       -0.6814496E-03 Eh
 * total energy  :  -122.8046610 Eh     change       -0.5678135E-03 Eh
 * total energy  :  -122.8050570 Eh     change       -0.3960549E-03 Eh
 * total energy  :  -122.8054785 Eh     change       -0.4214407E-03 Eh
 * total energy  :  -122.8059389 Eh     change       -0.4603918E-03 Eh
 * total energy  :  -122.8063981 Eh     change       -0.4592035E-03 Eh
 * total energy  :  -122.8068177 Eh     change       -0.4196509E-03 Eh
 * total energy  :  -122.8131976 Eh     change       -0.5131392E-06 Eh
 * total energy  :  -122.8131980 Eh     change       -0.4366240E-06 Eh
 * total energy  :  -122.8131984 Eh     change       -0.3796095E-06 Eh
 * total energy  :  -122.8131987 Eh     change       -0.3593600E-06 Eh
 * total energy  :  -122.8131991 Eh     change       -0.3973372E-06 Eh
 * total energy  :  -122.8131996 Eh     change       -0.4983076E-06 Eh
 * total energy  :  -122.8132003 Eh     change       -0.6672115E-06 Eh
 * total energy  :  -122.8132011 Eh     change       -0.7945853E-06 Eh
 * total energy  :  -122.8132011 Eh     change       -0.4609277E-08 Eh
   *** GEOMETRY OPTIMIZATION CONVERGED AFTER 122 ITERATIONS ***

 final structure:
================
82
 xtb: 6.7.1 (edcfbbe)
C           -7.13996584566603       -5.20015582691007        0.68693559311332
C           -5.79993456003200       -5.07466242492000        1.01594805061382
C           -5.15072182491063       -3.86948348158316        0.83352182757131
C           -5.83527658813876       -2.76746955574895        0.32241975456304
C           -5.11452492330695       -1.51671441302832        0.14029147999003
N           -3.76657864586437       -1.51730186477849       -0.05124533484739
C           -3.39848919759618       -0.27195010590103       -0.22115229463475
C           -2.01568305867228        0.13174284121747       -0.40295434080809
C           -1.14828419554570       -0.75198168272712       -1.04016646717723
C            0.18650378495710       -0.44465038206960       -1.21654431371153
C            0.68956853132266        0.76433710690205       -0.74361046963521
O            1.98049161568352        1.17039918653094       -0.85193066717272
C            2.93075735890179        0.28595039916051       -1.41277857374944
C            4.31070026269848        0.92011749113211       -1.26739795292374
C            4.72180394383061        1.12057059619317        0.19153194961130
C            5.02778151923281       -0.19315995669844        0.92595390649725
C            6.16957540896746       -0.93549516682012        0.29179384382535
C            5.96884234360180       -2.03086666541948       -0.53272711806389
C            7.02382697093661       -2.70074344919437       -1.14836087402667
C            8.32995934217424       -2.29877150032134       -0.96020473759682
C            8.57120592757575       -1.20710785831439       -0.13533345534125
C            7.49027264958203       -0.53430247554865        0.47989728830607
N            7.98602622752886        0.49893128360432        1.23748263727931
C            9.35367039570662        0.51550034834257        1.14366046928807
C           10.27118531221078        1.36859621369338        1.73766203958165
C           11.61005664860144        1.16041837800549        1.46759677153135
C           12.02908284544721        0.13062243891628        0.62730742464181
C           11.11918334616493       -0.72107959998261        0.03318043298882
C            9.76701070353138       -0.53326012534564        0.28910923557400
C           -0.17412476026132        1.64741709424171       -0.09127112548195
C           -1.50402358641073        1.33698909920454        0.08059521535404
N           -4.47790989808115        0.57230066977563       -0.15220288140687
C           -4.49196147354554        1.96570148447124       -0.33525163407460
C           -3.93616249246004        2.51586842622109       -1.48581681104094
C           -3.96012346417776        3.88533199947014       -1.67064227807435
C           -4.54396062665448        4.70763384201138       -0.72072159515618
C           -5.10028317396728        4.15779650648669        0.42201878370880
C           -5.07484560084599        2.78967460602248        0.62116785677965
C           -5.58410266690238       -0.21471512207930        0.09198508249882
C           -6.92307188943641        0.33348411056558        0.26068023451559
C           -7.45034686927978        1.24408577215798       -0.65319157401125
C           -8.71878986545356        1.76189904004370       -0.46869449075366
C           -9.47677316622641        1.37966648375378        0.62514946866214
C           -8.96220873092017        0.46959737222859        1.53488705049804
C           -7.69472769315536       -0.04972918250966        1.35750593232455
C           -7.17755402080650       -2.90691879378407       -0.02491314863101
C           -7.82236112393239       -4.11512081347853        0.16162011557861
H           -7.64937426993054       -6.14178393239310        0.83212356040220
H           -5.26102354837074       -5.92130657660973        1.41672800627179
H           -4.10636777442864       -3.75640387270426        1.08017764939111
H           -1.54152077975499       -1.69145032316893       -1.39565188172751
H            0.82355302797648       -1.15130579262464       -1.72470083642029
H            2.70971471017120        0.11933425192110       -2.47651436320976
H            2.89635978565124       -0.68102536830862       -0.89630659141312
H            4.28948661945887        1.89173926837895       -1.76372280762922
H            5.04082588022075        0.28805103647241       -1.77559150656489
H            3.91800073363204        1.64416991050118        0.71177190929925
H            5.60982593141229        1.75620408280387        0.21010354208034
H            4.13962144449118       -0.82594479502153        0.93202092785220
H            5.26999237710771        0.03672196680667        1.96750274093941
H            4.95993065063977       -2.38078837553539       -0.70007803415608
H            6.80815929738407       -3.54890725602755       -1.78121316117102
H            9.14703590731892       -2.81820520993802       -1.43702898400358
H            7.43719897240830        1.12455304465540        1.80067431760799
H            9.94944941842244        2.16740415213861        2.38998328862156
H           12.34826244880356        1.80838547488727        1.91692769669299
H           13.08498188427188        0.00067470549692        0.44148766681343
H           11.44812103315252       -1.51798457742134       -0.61673738038410
H            0.22989940021999        2.57500646251355        0.28309100617573
H           -2.14002599957079        2.02636844209358        0.61514601237490
H           -3.48800800034659        1.86613261283913       -2.22290887539659
H           -3.52699098959179        4.31087177473234       -2.56332375745190
H           -4.56525661081292        5.77633861384593       -0.87140887695559
H           -5.55460499473093        4.79584130028281        1.16505937965464
H           -5.50103817168611        2.35557498660862        1.51326917313412
H           -6.87049864771008        1.53555236276118       -1.51734882688210
H           -9.11783744358685        2.46538967497797       -1.18485284030694
H          -10.46683440638031        1.78691853198025        0.76714202454636
H           -9.55049510070158        0.16679254903355        2.38871069367334
H           -7.28877081431840       -0.75716531065431        2.06584737775146
H           -7.71264379009461       -2.07228952030879       -0.45309115951205
H           -8.86384437714761       -4.21245863803104       -0.11008139661591

          :  Hamiltonian                  GFN2-xTB          :
         :: gradient norm              0.000055995814 Eh/a0 ::
         :: HOMO-LUMO gap              2.806525094678 eV    ::
         :: SCC energy              -125.005996307152 Eh    ::
         :: -> dispersion             -0.106339982653 Eh    ::
         :: repulsion energy           2.192795200366 Eh    ::

    * Orbital Energies and Occupations

         #    Occupation            Energy/Eh            Energy/eV
      -------------------------------------------------------------
         1        2.0000           -0.7153717             -19.4663
       ...           ...                  ...                  ...
       102        2.0000           -0.4104711             -11.1695
       103        2.0000           -0.4099192             -11.1545
       104        2.0000           -0.4088656             -11.1258
       105        2.0000           -0.4063052             -11.0561
       106        2.0000           -0.4040919             -10.9959
       107        2.0000           -0.3988274             -10.8526
       108        2.0000           -0.3945270             -10.7356
       109        2.0000           -0.3918469             -10.6627
       110        2.0000           -0.3808452             -10.3633
       111        2.0000           -0.3745961             -10.1933
       112        2.0000           -0.3697811             -10.0623
       113        2.0000           -0.3624878              -9.8638
       114        2.0000           -0.3543147              -9.6414 (HOMO)
       115                         -0.2511767              -6.8349 (LUMO)
       116                         -0.2406036              -6.5472
       117                         -0.2385857              -6.4922
       118                         -0.2372111              -6.4548
       119                         -0.2315831              -6.3017
       120                         -0.2245032              -6.1090
       121                         -0.2233306              -6.0771
       122                         -0.2182641              -5.9393
       123                         -0.2123287              -5.7778
       124                         -0.2097325              -5.7071
       125                         -0.1900654              -5.1719
       ...                                ...                  ...
       223                          0.7487151              20.3736
      -------------------------------------------------------------
                  HL-Gap            0.1031379 Eh            2.8065 eV

     #   Z          covCN         q      C6AA      α(0)
     1   6 C        2.920    -0.033    28.816     8.803
     2   6 C        2.918    -0.030    28.752     8.793
     3   6 C        2.928    -0.030    28.758     8.795
     4   6 C        2.973     0.011    27.777     8.645
     5   6 C        3.164     0.051    26.523     8.417
     6   7 N        1.914    -0.292    28.418     7.904
     7   6 C        3.156     0.121    25.058     8.185
     8   6 C        2.973    -0.009    28.246     8.718
     9   6 C        2.929    -0.030    28.754     8.794
    10   6 C        2.916    -0.066    29.645     8.928
    11   6 C        2.864     0.144    24.865     8.174
    12   8 O        1.706    -0.272    18.509     5.809
    13   6 C        3.693     0.085    19.337     6.292
    14   6 C        3.801    -0.063    21.709     6.634
    15   6 C        3.802    -0.055    21.558     6.610
    16   6 C        3.806    -0.061    21.663     6.626
    17   6 C        2.960    -0.012    28.324     8.729
    18   6 C        2.929    -0.044    29.093     8.846
    19   6 C        2.919    -0.044    29.101     8.846
    20   6 C        2.912    -0.037    28.920     8.818
    21   6 C        3.072    -0.018    28.374     8.734
    22   6 C        3.075     0.046    26.882     8.501
    23   7 N        2.756    -0.122    23.654     7.223
    24   6 C        3.072     0.054    26.721     8.476
    25   6 C        2.909    -0.056    29.385     8.889
    26   6 C        2.924    -0.033    28.828     8.805
    27   6 C        2.920    -0.042    29.048     8.838
    28   6 C        2.912    -0.033    28.819     8.803
    29   6 C        3.072    -0.017    28.348     8.730
    30   6 C        2.920    -0.056    29.380     8.889
    31   6 C        2.921    -0.035    28.868     8.811
    32   7 N        2.851    -0.038    21.982     6.963
    33   6 C        2.914     0.068    26.482     8.438
    34   6 C        2.922    -0.038    28.951     8.824
    35   6 C        2.920    -0.027    28.664     8.780
    36   6 C        2.920    -0.031    28.769     8.796
    37   6 C        2.920    -0.027    28.675     8.781
    38   6 C        2.922    -0.038    28.947     8.823
    39   6 C        3.069     0.012    27.671     8.626
    40   6 C        2.971     0.009    27.810     8.650
    41   6 C        2.924    -0.034    28.847     8.808
    42   6 C        2.919    -0.030    28.738     8.791
    43   6 C        2.920    -0.031    28.782     8.798
    44   6 C        2.919    -0.028    28.712     8.787
    45   6 C        2.925    -0.033    28.811     8.802
    46   6 C        2.923    -0.037    28.928     8.820
    47   6 C        2.919    -0.031    28.764     8.795
    48   1 H        0.926     0.026     2.643     2.542
    49   1 H        0.926     0.028     2.615     2.529
    50   1 H        0.926     0.049     2.333     2.388
    51   1 H        0.926     0.056     2.250     2.346
    52   1 H        0.926     0.036     2.508     2.477
    53   1 H        0.923     0.026     2.639     2.541
    54   1 H        0.924     0.033     2.548     2.497
    55   1 H        0.924     0.048     2.340     2.392
    56   1 H        0.924     0.045     2.385     2.415
    57   1 H        0.924     0.048     2.346     2.395
    58   1 H        0.924     0.031     2.569     2.506
    59   1 H        0.924     0.039     2.462     2.454
    60   1 H        0.924     0.031     2.578     2.511
    61   1 H        0.926     0.024     2.668     2.555
    62   1 H        0.926     0.027     2.634     2.538
    63   1 H        0.926     0.030     2.584     2.514
    64   1 H        0.860     0.157     1.357     1.825
    65   1 H        0.926     0.022     2.697     2.568
    66   1 H        0.926     0.028     2.613     2.528
    67   1 H        0.926     0.027     2.631     2.536
    68   1 H        0.926     0.030     2.583     2.513
    69   1 H        0.926     0.045     2.377     2.411
    70   1 H        0.926     0.031     2.567     2.505
    71   1 H        0.926     0.040     2.450     2.448
    72   1 H        0.926     0.039     2.456     2.451
    73   1 H        0.926     0.038     2.472     2.459
    74   1 H        0.926     0.039     2.467     2.456
    75   1 H        0.926     0.040     2.451     2.448
    76   1 H        0.926     0.024     2.671     2.556
    77   1 H        0.926     0.029     2.602     2.522
    78   1 H        0.926     0.030     2.584     2.514
    79   1 H        0.926     0.032     2.563     2.504
    80   1 H        0.926     0.033     2.541     2.493
    81   1 H        0.926     0.025     2.661     2.551
    82   1 H        0.926     0.025     2.653     2.547

molecular dipole:
                 x           y           z       tot (Debye)
 q only:        0.197       1.181       0.081
   full:       -0.174       1.578       0.114       4.047

 projected vibrational frequencies (cm⁻¹)
eigval :       -0.00    -0.00    -0.00    -0.00     0.00     0.00
eigval :        5.66     7.29     9.74    20.16    22.77    24.28
eigval :       32.28    36.99    44.63    48.44    56.39    64.08
eigval :       69.93    74.81    82.00    89.24   107.72   118.80
eigval :      123.40   129.38   154.33   167.48   177.30   194.72
eigval :      219.89   228.28   228.54   236.65   245.86   256.94
eigval :      270.32   274.79   284.04   314.00   324.90   335.44
eigval :      361.63   371.16   376.22   378.33   382.96   385.15
eigval :      393.34   409.60   422.93   434.87   440.19   453.87
eigval :      465.33   482.30   485.65   487.28   494.21   511.11
eigval :      520.50   530.90   531.40   539.99   557.32   584.93
eigval :      586.51   588.99   597.86   601.39   614.63   618.02
eigval :      633.37   646.25   653.17   661.09   665.62   675.54
eigval :      683.17   686.53   693.81   702.73   706.51   711.25
eigval :      740.20   760.61   764.21   772.04   775.32   788.43
eigval :      797.08   808.97   841.13   850.71   859.82   860.14
eigval :      865.43   866.39   874.78   878.09   878.59   888.90
eigval :      892.15   898.86   900.41   901.52   902.37   906.43
eigval :      914.46   920.61   920.89   927.49   929.63   930.00
eigval :      931.31   931.38   932.04   942.81   952.05   961.21
eigval :      974.81   983.91   994.51   998.69  1019.35  1034.29
eigval :     1063.15  1069.49  1075.05  1080.06  1082.01  1083.90
eigval :     1092.85  1109.99  1110.84  1117.73  1118.99  1121.62
eigval :     1129.75  1136.68  1144.17  1155.80  1165.35  1172.12
eigval :     1176.54  1180.58  1181.86  1181.99  1185.32  1187.43
eigval :     1192.25  1195.87  1197.21  1201.56  1213.75  1215.94
eigval :     1234.62  1237.48  1253.29  1269.52  1273.72  1276.48
eigval :     1278.26  1282.04  1282.84  1288.06  1313.43  1315.68
eigval :     1317.40  1321.95  1324.24  1326.49  1329.80  1335.34
eigval :     1337.28  1352.94  1355.45  1356.76  1366.29  1374.68
eigval :     1397.23  1412.38  1415.26  1430.44  1431.91  1435.26
eigval :     1437.43  1452.67  1463.04  1467.06  1477.77  1479.70
eigval :     1483.81  1489.91  1489.96  1500.70  1506.94  1538.93
eigval :     1559.77  1567.13  1578.57  1580.28  1581.96  1584.74
eigval :     1595.49  1595.86  1597.76  1600.13  1603.31  1604.78
eigval :     1618.25  2876.83  2913.59  2952.18  2972.53  2984.99
eigval :     2995.40  2997.09  2999.99  3067.59  3070.17  3071.54
eigval :     3072.15  3072.24  3075.49  3077.75  3082.04  3082.07
eigval :     3082.20  3083.54  3084.47  3085.72  3087.61  3088.79
eigval :     3091.33  3091.50  3093.64  3094.31  3095.77  3096.27
eigval :     3097.99  3101.57  3103.35  3104.94  3109.74  3494.00

   temp. (K)  partition function   enthalpy   heat capacity  entropy
                                   cal/mol     cal/K/mol   cal/K/mol   J/K/mol
 298.15  VIB  0.479E+20            22941.103    141.445    146.051
         ROT  0.126E+09              888.752      2.981     40.043
         INT  0.603E+28            23829.856    144.426    186.094
         TR   0.146E+29             1481.254      4.968     45.086
         TOT                       25311.1097   149.3945   231.1807   967.2601

       T/K    H(0)-H(T)+PV         H(T)/Eh          T*S/Eh         G(T)/Eh
   ------------------------------------------------------------------------
    298.15    0.403358E-01    0.690647E+00    0.109841E+00    0.580806E+00
   ------------------------------------------------------------------------

         :::::::::::::::::::::::::::::::::::::::::::::::::::::
         ::                  THERMODYNAMIC                  ::
         :::::::::::::::::::::::::::::::::::::::::::::::::::::
         :: total free energy        -122.232395167350 Eh   ::
         ::.................................................::
         :: total energy             -122.813201106786 Eh   ::
         :: zero point energy           0.650311529820 Eh   ::
         :: G(RRHO) w/o ZPVE           -0.069505590385 Eh   ::
         :: G(RRHO) contrib.            0.580805939435 Eh   ::
         :::::::::::::::::::::::::::::::::::::::::::::::::::::

           -------------------------------------------------
          | TOTAL ENERGY             -122.813201106786 Eh   |
          | TOTAL ENTHALPY           -122.122553756160 Eh   |
          | TOTAL FREE ENERGY        -122.232395167350 Eh   |
          | GRADIENT NORM               0.000055990201 Eh/α |
          | HOMO-LUMO GAP               2.806525584910 eV   |
           -------------------------------------------------

 * finished run on 2025/09/11 at 10:48:45.045
