   * xtb version 6.7.1 (edcfbbe) compiled by 'albert@albert-system' on 2024-07-22

   ID    Z sym.   atoms
    1    6 C      1-5, 7-11, 13-22, 24-31, 33-47
    2    7 N      6, 23, 32
    3    8 O      12
    4    1 H      48-82

          program call               : xtb data2507/gas/BIPOCz/BIPOCz_gas_T1_crest.xyz --gfn 2 --spinpol --tblite --uhf 2 --ohess vtight --parallel 40 --molden --ceasefiles --namespace data2507/gas/BIPOCz/BIPOCz_gas_T1_finalOpt
 * total energy  :  -122.7379945 Eh     change        0.4632959E-07 Eh
 * total energy  :  -122.7380077 Eh     change       -0.1319389E-04 Eh
 * total energy  :  -122.7380126 Eh     change       -0.4926183E-05 Eh
 * total energy  :  -122.7380134 Eh     change       -0.8011825E-06 Eh
 * total energy  :  -122.7380145 Eh     change       -0.1068388E-05 Eh
 * total energy  :  -122.7380155 Eh     change       -0.9940916E-06 Eh
 * total energy  :  -122.7380164 Eh     change       -0.9043067E-06 Eh
 * total energy  :  -122.7380171 Eh     change       -0.7434551E-06 Eh
 * total energy  :  -122.7380177 Eh     change       -0.5780878E-06 Eh
 * total energy  :  -122.7380181 Eh     change       -0.4293257E-06 Eh
 * total energy  :  -122.7380185 Eh     change       -0.3959391E-06 Eh
 * total energy  :  -122.7380187 Eh     change       -0.2114621E-06 Eh
 * total energy  :  -122.7380189 Eh     change       -0.1528529E-06 Eh
 * total energy  :  -122.7380191 Eh     change       -0.2513508E-06 Eh
 * total energy  :  -122.7380194 Eh     change       -0.2234656E-06 Eh
 * total energy  :  -122.7380196 Eh     change       -0.2768506E-06 Eh
 * total energy  :  -122.7380200 Eh     change       -0.3934860E-06 Eh
 * total energy  :  -122.7380202 Eh     change       -0.2024555E-06 Eh
 * total energy  :  -122.7380203 Eh     change       -0.4695558E-07 Eh
   *** GEOMETRY OPTIMIZATION CONVERGED AFTER 19 ITERATIONS ***

 final structure:
================
82
 xtb: 6.7.1 (edcfbbe)
C           -5.66517338381074        4.29920132996948        0.10941553565369
C           -6.09685198223184        3.01653081612722        0.40997052211546
C           -5.18944233149034        1.98492355821838        0.54574935359276
C           -3.82067842976012        2.22426596082225        0.37634788269338
C           -2.82382580755267        1.19085767651879        0.52861795625649
N           -1.62662186436691        1.48187078035713        0.99173984622892
C           -0.92510360662465        0.34058679469537        1.11323206293059
C            0.44583867388500        0.36685093163319        1.41185405043151
C            1.35287760475570       -0.71443479900274        1.26725125654506
C            2.68965877244340       -0.56557188019677        1.54166609643644
C            3.20235459196955        0.66665218287441        1.95702047774151
O            4.49949441328488        0.93337166484044        2.24532608697095
C            5.53101420358889        0.07032700474398        1.80316190204988
C            6.69296885628468        0.93851200262716        1.31704118292567
C            6.28454470450509        1.86538666794742        0.16917335702667
C            6.27329458354586        1.19545076922342       -1.21217590802896
C            5.26598834572108        0.09070206423629       -1.37314487675369
C            5.66046700776160       -1.23608094849410       -1.46947529732875
C            4.74879185490604       -2.27476846046283       -1.64161080389374
C            3.39636246710427       -2.02246986264763       -1.74799204263383
C            2.96419928143038       -0.70519226835626       -1.66859235637010
C            3.89709174605158        0.33927042649613       -1.46462201080282
N            3.21740518896243        1.53127610796073       -1.41271183245552
C            1.87785861594208        1.30068590318484       -1.59608526765651
C            0.82235521120717        2.19786248820317       -1.65043451696407
C           -0.43854585753020        1.69207962608251       -1.89726746162382
C           -0.65086419844291        0.32578187309381       -2.07307154426808
C            0.39306404784184       -0.57363105933577       -2.00174892459924
C            1.67204577747258       -0.08730619678490       -1.76450503230952
C            2.31672931102947        1.75465238668970        2.10029160310515
C            0.98983231829226        1.61502954144573        1.83159002799468
N           -1.74855487597297       -0.76539175099279        0.79182522834890
C           -1.40306207286305       -2.11262890326725        0.84748666334707
C           -1.61581659108656       -2.95191601094596       -0.25047306126514
C           -1.28122609286890       -4.28799463449228       -0.17101544854207
C           -0.73836977106877       -4.81102731742768        0.99377335771872
C           -0.52994539579319       -3.98223526505866        2.08701991462993
C           -0.85949689273559       -2.64403423203537        2.02193886981336
C           -2.95218038082079       -0.24485511552646        0.33951278565526
C           -4.05608882477467       -0.97952339435737       -0.15726607061974
C           -4.85696283241067       -0.42914274700905       -1.18924062319949
C           -5.93065565318348       -1.12051424539788       -1.69355790061759
C           -6.26356484806295       -2.37660892113518       -1.19379484183327
C           -5.49675412895121       -2.92921441521021       -0.17184420341479
C           -4.41127039773264       -2.25813097323460        0.33624645627411
C           -3.39359333441349        3.53099134721735        0.10911143436749
C           -4.30730838293954        4.55313567856233       -0.03087157298709
H           -6.38135408664432        5.09966279486495       -0.00331284531543
H           -7.15069963284532        2.82066342044196        0.54524712709511
H           -5.53381683639146        0.99800213057463        0.81352257820203
H            1.00877470151969       -1.66582294165009        0.90119056139538
H            3.33859730704516       -1.41999200008989        1.42299814127068
H            5.18415910406976       -0.57192922891189        0.99174860735386
H            5.85591477863728       -0.55946383091133        2.64205665599332
H            7.51301226039649        0.28817384526511        1.00971628210758
H            7.03338959011149        1.54728736259953        2.15657564358701
H            6.99065880779622        2.69803944051755        0.12700863571503
H            5.30093035159967        2.27853495143272        0.39854600848704
H            7.26970194592761        0.79523521235344       -1.41274236938773
H            6.07228473878472        1.96710859939324       -1.96241751282972
H            6.71396257024083       -1.47095183407757       -1.40817965233503
H            5.11466194726806       -3.28911840873972       -1.70228581768485
H            2.68847558141626       -2.82424882261191       -1.89281630315661
H            3.63339017108581        2.43573177553080       -1.27678219708837
H            0.98259597548564        3.25671793934399       -1.51253843815014
H           -1.27958672526133        2.36643176481626       -1.95833936444545
H           -1.65320868720926       -0.02719239543419       -2.27063774960446
H            0.22737343338906       -1.63250338007235       -2.13355239316018
H            2.72637906618365        2.69848727898681        2.42664646189332
H            0.31030719938920        2.44520190962176        1.93236722141594
H           -2.03469911111392       -2.54531227490220       -1.15802514922064
H           -1.44146911228539       -4.92839077729171       -1.02612558332427
H           -0.48223916268930       -5.85799816262653        1.05048952891976
H           -0.11601367921895       -4.38546119656673        2.99958148296151
H           -0.70727325973390       -1.99592231960666        2.87257944177018
H           -4.58489267280640        0.52910070792685       -1.60605888140657
H           -6.51631664777985       -0.68869753788131       -2.49248339183116
H           -7.10874613927295       -2.91565872922555       -1.59333172898617
H           -5.76147776425146       -3.89550267817940        0.23321529703008
H           -3.85581526461747       -2.68298294321087        1.15799408046278
H           -2.33438643336727        3.71065703822320        0.00852114161706
H           -3.96700827414984        5.55473687190263       -0.25086585423654

 projected vibrational frequencies (cm⁻¹)
eigval :       -0.00    -0.00     0.00     0.00     0.00     0.00
eigval :       13.91    19.24    21.46    23.68    32.76    39.26
eigval :       41.66    48.89    58.53    61.95    66.45    75.71
eigval :       83.34    90.13    94.40   111.21   119.94   132.99
eigval :      136.38   139.47   161.68   177.86   189.26   202.92
eigval :      220.02   224.33   232.03   236.02   243.05   251.36
eigval :      264.33   278.11   284.33   296.17   307.41   328.39
eigval :      329.35   357.96   372.57   378.96   383.21   387.83
eigval :      393.32   408.26   414.66   429.62   433.07   439.79
eigval :      452.84   459.13   465.60   475.91   483.40   489.49
eigval :      500.41   516.68   532.72   541.26   555.74   575.15
eigval :      579.44   585.38   588.99   592.85   596.20   612.08
eigval :      614.19   621.43   638.44   641.28   650.15   658.40
eigval :      667.84   671.32   683.36   697.15   703.08   709.61
eigval :      732.90   741.20   758.53   764.18   775.09   788.14
eigval :      794.04   796.40   826.02   833.39   848.20   850.34
eigval :      856.40   863.65   865.13   868.57   869.90   872.38
eigval :      882.58   885.56   888.76   889.68   897.62   903.08
eigval :      911.92   913.52   913.77   918.00   921.05   923.50
eigval :      923.88   924.33   926.21   926.90   928.43   930.31
eigval :      952.63   965.33   982.59   985.20   996.09  1017.44
eigval :     1047.54  1054.50  1068.86  1069.94  1076.45  1078.32
eigval :     1080.76  1087.80  1098.06  1111.37  1116.69  1118.78
eigval :     1119.36  1123.02  1129.32  1145.32  1147.68  1156.35
eigval :     1162.85  1173.67  1176.42  1179.14  1180.00  1185.88
eigval :     1191.14  1193.41  1195.68  1200.82  1202.47  1215.90
eigval :     1223.01  1235.68  1237.99  1240.99  1260.04  1268.82
eigval :     1274.64  1276.25  1277.08  1283.73  1284.38  1316.43
eigval :     1321.30  1324.06  1324.44  1326.20  1330.83  1332.55
eigval :     1337.51  1342.17  1349.11  1354.85  1357.80  1374.56
eigval :     1378.72  1394.40  1405.28  1411.65  1412.20  1426.19
eigval :     1430.45  1431.83  1433.50  1446.40  1457.96  1460.61
eigval :     1464.94  1474.91  1481.66  1484.96  1488.82  1492.22
eigval :     1501.39  1504.72  1541.09  1542.41  1551.85  1559.39
eigval :     1569.71  1578.76  1580.20  1593.70  1598.46  1602.99
eigval :     1618.66  2895.43  2940.52  2967.17  2978.28  2979.42
eigval :     2988.76  2996.38  2998.68  3068.99  3069.42  3070.80
eigval :     3071.93  3072.60  3075.76  3076.70  3077.21  3078.48
eigval :     3081.48  3085.95  3087.33  3087.70  3088.96  3089.44
eigval :     3092.27  3093.37  3093.52  3095.25  3095.32  3098.47
eigval :     3099.92  3100.46  3102.41  3118.61  3137.59  3495.35

   temp. (K)  partition function   enthalpy   heat capacity  entropy
                                   cal/mol     cal/K/mol   cal/K/mol   J/K/mol
 298.15  VIB  0.210E+18            22906.433    145.269    141.932
         ROT  0.526E+08              888.752      2.981     38.312
         INT  0.111E+26            23795.185    148.250    180.245
         TR   0.146E+29             1481.254      4.968     45.086
         TOT                       25276.4390   153.2184   225.3310   942.7851

       T/K    H(0)-H(T)+PV         H(T)/Eh          T*S/Eh         G(T)/Eh
   ------------------------------------------------------------------------
    298.15    0.402806E-01    0.686873E+00    0.107062E+00    0.579811E+00
   ------------------------------------------------------------------------

         :::::::::::::::::::::::::::::::::::::::::::::::::::::
         ::                  THERMODYNAMIC                  ::
         :::::::::::::::::::::::::::::::::::::::::::::::::::::
         :: total free energy        -122.158208965357 Eh   ::
         ::.................................................::
         :: total energy             -122.738020364393 Eh   ::
         :: zero point energy           0.646592877146 Eh   ::
         :: G(RRHO) w/o ZPVE           -0.066781478110 Eh   ::
         :: G(RRHO) contrib.            0.579811399036 Eh   ::
         :::::::::::::::::::::::::::::::::::::::::::::::::::::

           -------------------------------------------------
          | TOTAL ENERGY             -122.738020364393 Eh   |
          | TOTAL ENTHALPY           -122.051146917692 Eh   |
          | TOTAL FREE ENERGY        -122.158208965357 Eh   |
          | GRADIENT NORM               0.000082839346 Eh/α |
           -------------------------------------------------

 * finished run on 2025/09/11 at 11:35:20.256
