   * xtb version 6.7.1 (edcfbbe) compiled by 'albert@albert-system' on 2024-07-22

   ID    Z sym.   atoms
    1    8 O      1, 3, 24, 25, 41, 42
    2   16 S      2, 23, 40
    3    6 C      4-15, 17-22, 26-32, 34-39, 43-49, 51
    4    7 N      16, 33, 50
    5    1 H      52-78

          program call               : xtb data2507/toluene/TRZ-3SO2/TRZ-3SO2.xyz --gfn 2 --gbsa toluene --ohess vtight --parallel 40 --molden --ceasefiles --namespace data2507/toluene/TRZ-3SO2/TRZ-3SO2_toluene_S0_preOpt
      * Solvation model:               GBSA
        Solvent                        toluene
        Solvent mass                       9.2140E+01 g/mol
          :  Hamiltonian                  GFN2-xTB          :
 * total energy  :  -140.1571997 Eh     change       -0.7098606E-09 Eh
 * total energy  :  -140.1678421 Eh     change       -0.1064244E-01 Eh
 * total energy  :  -140.1707223 Eh     change       -0.2880169E-02 Eh
 * total energy  :  -140.1713955 Eh     change       -0.6732009E-03 Eh
 * total energy  :  -140.1716359 Eh     change       -0.2403678E-03 Eh
 * total energy  :  -140.1717250 Eh     change       -0.8915997E-04 Eh
 * total energy  :  -140.1718125 Eh     change       -0.8748221E-04 Eh
 * total energy  :  -140.1718765 Eh     change       -0.6400282E-04 Eh
 * total energy  :  -140.1719399 Eh     change       -0.6338145E-04 Eh
 * total energy  :  -140.1720152 Eh     change       -0.7532824E-04 Eh
 * total energy  :  -140.1723866 Eh     change       -0.5161229E-06 Eh
 * total energy  :  -140.1723870 Eh     change       -0.4331966E-06 Eh
 * total energy  :  -140.1723876 Eh     change       -0.6149281E-06 Eh
 * total energy  :  -140.1723886 Eh     change       -0.9312932E-06 Eh
 * total energy  :  -140.1723897 Eh     change       -0.1099888E-05 Eh
 * total energy  :  -140.1723906 Eh     change       -0.9625717E-06 Eh
 * total energy  :  -140.1723912 Eh     change       -0.6012499E-06 Eh
 * total energy  :  -140.1723916 Eh     change       -0.3953487E-06 Eh
 * total energy  :  -140.1723916 Eh     change       -0.8783132E-08 Eh
   *** GEOMETRY OPTIMIZATION CONVERGED AFTER 94 ITERATIONS ***

 final structure:
================
78
 xtb: 6.7.1 (edcfbbe)
O           -5.51917712922331        0.70678573312522       -2.53897619288675
S           -5.71510278799664        2.03905962610308       -2.01008946781021
O           -6.16610271652134        3.05570714731922       -2.93534378114617
C           -6.84934447671035        1.96081405433322       -0.62262341781999
C           -7.74138016878571        2.99414892251100       -0.41148532878277
C           -8.58716757205186        2.93971516872545        0.68490121700159
C           -8.52470886681068        1.85956766639387        1.55189175441243
C           -7.62346468188511        0.82915439035908        1.32863531286627
C           -6.77584747017512        0.87873038388136        0.23409925390185
C           -4.16497312324944        2.58420331374797       -1.27111557135892
C           -3.95411015879045        3.93318933278077       -1.04765402029855
C           -2.76900444250248        4.34386988122109       -0.45551737662069
C           -1.81456623942618        3.40924039998493       -0.09317910089755
C           -2.03667642536044        2.05018681710096       -0.31822091106818
C           -1.03055396503021        1.05623759092259        0.06285900679538
N            0.16188192468216        1.49179669499936        0.45718189362409
C            1.04664762357826        0.55439827458254        0.78690886927564
C            2.38196345635429        0.98766411508605        1.20454139813030
C            3.34745980623251        0.05300912114795        1.58053930522993
C            4.60650367168056        0.46800289527760        1.97850030609573
C            4.91723946057831        1.81934778443276        2.00272159318419
C            3.95444763124368        2.74011306985149        1.62838914806298
S            4.37105788182478        4.49304417270798        1.61757369363331
O            5.21179367499216        4.77403522068479        2.76093418723597
O            3.14466935560892        5.25095283691546        1.49958023319138
C            5.33487926062204        4.68789007495213        0.11693014469461
C            6.71089615845865        4.78101649766757        0.19369041202179
C            7.44440896026444        4.88741164743642       -0.97738982536064
C            6.79349845935931        4.89372712525764       -2.20146817864905
C            5.41105821608845        4.79901954960368       -2.26407065299739
C            4.67314290542212        4.69271286672383       -1.09652448420606
C            2.69704272136765        2.34614962375859        1.22840872303765
N            0.79154957775427       -0.75035707437225        0.75747956647908
C           -0.42981583167826       -1.09762734026222        0.36083736221252
C           -0.76258397764343       -2.52381233012510        0.33055485979617
C           -1.95448041838871       -2.96330101407782       -0.24622128715886
C           -2.26954154828095       -4.31104405402331       -0.26314230556992
C           -1.39928024295268       -5.23493544784217        0.29566141460466
C           -0.22054952151484       -4.79071299233214        0.86840409573603
S            0.92255895790221       -5.99550876258118        1.56751247396838
O            0.16230351484172       -6.97095534600838        2.31838792847317
O            1.95713158982900       -5.27864936639915        2.28069679289671
C            1.63904571940761       -6.78971673595610        0.12716856262687
C            2.49786787034122       -6.05364189375307       -0.66740804815001
C            3.03458288596893       -6.64165157955208       -1.80084100311384
C            2.70235645532061       -7.94902251336854       -2.12428897580511
C            1.83920114599712       -8.67541697236504       -1.31861874837623
C            1.29893144844365       -8.09162830165433       -0.18354798423293
C            0.11259908389242       -3.45477399649796        0.88946539025754
N           -1.36747283751380       -0.22911306381219       -0.00586986730094
C           -3.22936994153282        1.63925738193894       -0.91232740666676
H           -7.76837757442844        3.81159346444592       -1.11474842318629
H           -9.29280070174286        3.73725758875801        0.85958470460741
H           -9.18469868356813        1.81828966274492        2.40520374011770
H           -7.58112952672844       -0.01164001460365        2.00384357813694
H           -6.07236740673301        0.08862169413931        0.02479438200792
H           -4.70845780700088        4.63965295006528       -1.35559008087494
H           -2.58877071702804        5.39273102758409       -0.27857916905057
H           -0.88845130975910        3.71500898339746        0.36814162897573
H            3.09081402366029       -0.99457013448602        1.56006385579917
H            5.34546007379605       -0.26107580244034        2.27216303467202
H            5.88523403107895        2.17172261404889        2.32165656258912
H            7.17991080070392        4.78295872223214        1.16522569588894
H            8.51979628715935        4.96572998036022       -0.93315640645971
H            7.36623291448551        4.97637787472001       -3.11280359371977
H            4.90830160869540        4.80869068414429       -3.21896428621666
H            3.59654386138590        4.62875590102542       -1.10874803465054
H            1.96398116355730        3.08614442893015        0.95147523841694
H           -2.62185112366601       -2.23351618309029       -0.67723757467168
H           -3.19352888069137       -4.64201474206955       -0.71094066024989
H           -1.62623323896987       -6.28908442609203        0.30868355522487
H            2.74319561511712       -5.04275040593118       -0.38234826256248
H            3.70963108510195       -6.08146014517082       -2.42932124337214
H            3.12160271161696       -8.40471364946881       -3.00855501981270
H            1.58588197034728       -9.69337412728972       -1.57175031220962
H            0.62875212437158       -8.62544174082330        0.47210432937380
H            1.03302530275127       -3.13847039162437        1.35294852335087
H           -3.41314247754804        0.59628858994714       -1.11167772528591

          :  Hamiltonian                  GFN2-xTB          :
         :: gradient norm              0.000053934433 Eh/a0 ::
         :: HOMO-LUMO gap              2.263169816326 eV    ::
         :: SCC energy              -142.311075383730 Eh    ::
         :: -> dispersion             -0.108554639898 Eh    ::
         :: -> Gsolv                  -0.083162701296 Eh    ::
         :: repulsion energy           2.138683741347 Eh    ::

    * Orbital Energies and Occupations

         #    Occupation            Energy/Eh            Energy/eV
      -------------------------------------------------------------
         1        2.0000           -0.7812104             -21.2578
       ...           ...                  ...                  ...
       114        2.0000           -0.4369752             -11.8907
       115        2.0000           -0.4369140             -11.8890
       116        2.0000           -0.4310732             -11.7301
       117        2.0000           -0.4310590             -11.7297
       118        2.0000           -0.4308425             -11.7238
       119        2.0000           -0.4296743             -11.6920
       120        2.0000           -0.4296305             -11.6908
       121        2.0000           -0.4294127             -11.6849
       122        2.0000           -0.4140752             -11.2676
       123        2.0000           -0.4138521             -11.2615
       124        2.0000           -0.4131671             -11.2428
       125        2.0000           -0.3994598             -10.8699
       126        2.0000           -0.3991456             -10.8613 (HOMO)
       127                         -0.3159757              -8.5981 (LUMO)
       128                         -0.3156490              -8.5892
       129                         -0.2788741              -7.5886
       130                         -0.2734462              -7.4408
       131                         -0.2729127              -7.4263
       132                         -0.2693880              -7.3304
       133                         -0.2552138              -6.9447
       134                         -0.2544842              -6.9249
       135                         -0.2541801              -6.9166
       136                         -0.2480634              -6.7501
       137                         -0.2479559              -6.7472
       ...                                ...                  ...
       246                          1.1664821              31.7416
      -------------------------------------------------------------
                  HL-Gap            0.0831700 Eh            2.2632 eV

     #   Z          covCN         q      C6AA      α(0)
     1   8 O        0.860    -0.571    25.418     6.760
     2  16 S        3.817     0.937   108.464    17.529
     3   8 O        0.860    -0.568    25.345     6.750
     4   6 C        2.972    -0.072    29.787     8.952
     5   6 C        2.955    -0.025    28.615     8.774
     6   6 C        2.922    -0.020    28.517     8.757
     7   6 C        2.920    -0.020    28.511     8.756
     8   6 C        2.922    -0.021    28.529     8.759
     9   6 C        2.960    -0.027    28.667     8.782
    10   6 C        2.969    -0.070    29.735     8.944
    11   6 C        2.953    -0.018    28.468     8.751
    12   6 C        2.920    -0.018    28.448     8.747
    13   6 C        2.922    -0.019    28.478     8.751
    14   6 C        2.985     0.002    27.978     8.677
    15   6 C        2.981     0.208    23.603     7.969
    16   7 N        1.844    -0.296    28.509     7.913
    17   6 C        2.980     0.208    23.605     7.970
    18   6 C        2.984     0.002    27.985     8.678
    19   6 C        2.922    -0.019    28.481     8.752
    20   6 C        2.920    -0.018    28.448     8.747
    21   6 C        2.954    -0.019    28.476     8.753
    22   6 C        2.969    -0.070    29.734     8.944
    23  16 S        3.817     0.938   108.460    17.528
    24   8 O        0.860    -0.569    25.360     6.752
    25   8 O        0.860    -0.571    25.418     6.760
    26   6 C        2.972    -0.072    29.780     8.951
    27   6 C        2.954    -0.024    28.607     8.773
    28   6 C        2.922    -0.020    28.515     8.757
    29   6 C        2.920    -0.020    28.509     8.756
    30   6 C        2.922    -0.021    28.525     8.758
    31   6 C        2.961    -0.027    28.670     8.783
    32   6 C        2.960    -0.022    28.554     8.765
    33   7 N        1.844    -0.295    28.500     7.912
    34   6 C        2.981     0.208    23.606     7.970
    35   6 C        2.985     0.002    27.976     8.676
    36   6 C        2.923    -0.019    28.478     8.751
    37   6 C        2.920    -0.017    28.445     8.746
    38   6 C        2.955    -0.019    28.483     8.754
    39   6 C        2.969    -0.069    29.723     8.943
    40  16 S        3.817     0.938   108.446    17.527
    41   8 O        0.860    -0.569    25.374     6.754
    42   8 O        0.860    -0.572    25.441     6.763
    43   6 C        2.972    -0.071    29.768     8.950
    44   6 C        2.962    -0.027    28.677     8.784
    45   6 C        2.922    -0.021    28.519     8.758
    46   6 C        2.920    -0.020    28.507     8.756
    47   6 C        2.922    -0.020    28.512     8.756
    48   6 C        2.953    -0.024    28.594     8.771
    49   6 C        2.960    -0.022    28.541     8.763
    50   7 N        1.844    -0.295    28.504     7.912
    51   6 C        2.962    -0.022    28.558     8.765
    52   1 H        0.926     0.061     2.183     2.311
    53   1 H        0.926     0.065     2.136     2.285
    54   1 H        0.926     0.066     2.130     2.282
    55   1 H        0.926     0.064     2.152     2.294
    56   1 H        0.926     0.055     2.252     2.347
    57   1 H        0.926     0.074     2.039     2.233
    58   1 H        0.926     0.079     1.994     2.208
    59   1 H        0.926     0.078     2.003     2.213
    60   1 H        0.926     0.079     1.992     2.207
    61   1 H        0.926     0.079     1.989     2.205
    62   1 H        0.926     0.073     2.048     2.238
    63   1 H        0.926     0.061     2.182     2.310
    64   1 H        0.926     0.066     2.131     2.283
    65   1 H        0.926     0.066     2.124     2.279
    66   1 H        0.926     0.064     2.153     2.295
    67   1 H        0.926     0.054     2.272     2.357
    68   1 H        0.926     0.077     2.012     2.218
    69   1 H        0.926     0.078     1.999     2.211
    70   1 H        0.926     0.079     1.986     2.204
    71   1 H        0.926     0.073     2.058     2.243
    72   1 H        0.926     0.053     2.281     2.362
    73   1 H        0.926     0.065     2.144     2.290
    74   1 H        0.926     0.067     2.124     2.279
    75   1 H        0.926     0.066     2.135     2.285
    76   1 H        0.926     0.061     2.183     2.310
    77   1 H        0.926     0.076     2.018     2.221
    78   1 H        0.926     0.076     2.021     2.223

molecular dipole:
                 x           y           z       tot (Debye)
 q only:        0.777      -0.982      -2.167
   full:        0.727      -0.915      -2.011       5.911

 projected vibrational frequencies (cm⁻¹)
eigval :       -0.00    -0.00    -0.00    -0.00     0.00     0.00
eigval :        6.11     7.07     9.07    10.31    12.50    16.95
eigval :       23.26    25.25    27.99    31.69    36.73    38.81
eigval :       39.68    42.88    43.85    59.57    87.81    88.38
eigval :      108.21   109.94   126.62   131.44   132.00   141.39
eigval :      142.15   142.34   172.45   180.51   184.01   198.47
eigval :      201.51   202.75   221.60   230.76   238.48   240.21
eigval :      279.41   280.93   281.87   297.65   302.72   303.78
eigval :      316.87   320.09   320.74   363.79   364.91   366.37
eigval :      369.68   371.31   374.87   383.55   388.17   394.29
eigval :      406.31   414.15   425.15   441.25   445.11   466.03
eigval :      467.15   486.48   511.08   512.03   515.82   526.67
eigval :      528.50   548.94   561.56   583.85   584.05   584.47
eigval :      609.94   610.06   631.27   638.23   639.37   655.34
eigval :      657.74   658.29   660.47   673.21   673.48   683.27
eigval :      689.01   691.64   704.00   705.44   743.58   749.09
eigval :      751.23   755.41   775.03   801.88   803.97   809.23
eigval :      878.10   879.17   879.67   887.00   887.30   892.75
eigval :      896.56   900.24   906.87   909.00   909.22   909.92
eigval :      911.76   915.14   926.12   928.49   928.77   929.54
eigval :      930.11   932.40   932.79   932.82   933.00   963.84
eigval :      965.75   965.90   973.01   986.67   986.87  1046.83
eigval :     1067.67  1067.99  1068.68  1070.69  1070.72  1071.10
eigval :     1079.63  1089.30  1090.94  1101.66  1102.17  1103.24
eigval :     1105.78  1105.98  1106.53  1115.17  1117.64  1118.03
eigval :     1120.22  1160.95  1162.86  1164.40  1172.51  1173.58
eigval :     1174.04  1176.49  1176.83  1179.06  1187.49  1188.02
eigval :     1194.10  1195.41  1195.87  1200.92  1221.69  1227.46
eigval :     1228.41  1256.94  1257.05  1258.15  1318.72  1318.87
eigval :     1319.04  1322.87  1323.09  1325.86  1355.05  1360.77
eigval :     1361.47  1412.56  1412.72  1413.99  1426.42  1426.59
eigval :     1426.84  1440.19  1440.22  1440.68  1445.40  1446.31
eigval :     1461.57  1507.49  1508.30  1559.13  1562.77  1562.92
eigval :     1571.74  1571.90  1572.03  1588.12  1589.22  1589.40
eigval :     1595.25  1595.32  1595.42  3086.77  3087.16  3087.21
eigval :     3092.44  3092.87  3093.61  3096.68  3096.93  3097.91
eigval :     3097.95  3099.01  3099.21  3103.60  3105.20  3105.74
eigval :     3105.95  3106.87  3106.94  3107.29  3107.47  3108.08
eigval :     3111.39  3111.56  3112.48  3114.98  3117.98  3119.63

   temp. (K)  partition function   enthalpy   heat capacity  entropy
                                   cal/mol     cal/K/mol   cal/K/mol   J/K/mol
 298.15  VIB  0.652E+25            26860.652    153.788    173.591
         ROT  0.181E+09              888.752      2.981     40.770
         INT  0.118E+34            27749.404    156.769    214.360
         TR   0.191E+29             1481.254      4.968     45.622
         TOT                       29230.6579   161.7368   259.9824  1087.7664

       T/K    H(0)-H(T)+PV         H(T)/Eh          T*S/Eh         G(T)/Eh
   ------------------------------------------------------------------------
    298.15    0.465820E-01    0.603058E+00    0.123526E+00    0.479532E+00
   ------------------------------------------------------------------------

         :::::::::::::::::::::::::::::::::::::::::::::::::::::
         ::                  THERMODYNAMIC                  ::
         :::::::::::::::::::::::::::::::::::::::::::::::::::::
         :: total free energy        -139.692859955905 Eh   ::
         ::.................................................::
         :: total energy             -140.172391639383 Eh   ::
         :: zero point energy           0.556475696008 Eh   ::
         :: G(RRHO) w/o ZPVE           -0.076944012530 Eh   ::
         :: G(RRHO) contrib.            0.479531683478 Eh   ::
         :::::::::::::::::::::::::::::::::::::::::::::::::::::

           -------------------------------------------------
          | TOTAL ENERGY             -140.172391639383 Eh   |
          | TOTAL ENTHALPY           -139.569333924881 Eh   |
          | TOTAL FREE ENERGY        -139.692859955905 Eh   |
          | GRADIENT NORM               0.000053937137 Eh/α |
          | HOMO-LUMO GAP               2.263169981743 eV   |
           -------------------------------------------------

 * finished run on 2025/09/04 at 01:15:23.120
