   * xtb version 6.7.1 (edcfbbe) compiled by 'albert@albert-system' on 2024-07-22

   ID    Z sym.   atoms
    1    8 O      1, 3, 24, 25, 41, 42
    2   16 S      2, 23, 40
    3    6 C      4-15, 17-22, 26-32, 34-39, 43-49, 51
    4    7 N      16, 33, 50
    5    1 H      52-78

          program call               : xtb data2507/toluene/TRZ-3SO2/TRZ-3SO2_toluene_S0_crest.xyz --gfn 2 --gbsa toluene --ohess vtight --parallel 40 --molden --ceasefiles --namespace data2507/toluene/TRZ-3SO2/TRZ-3SO2_toluene_S0_finalOpt
      * Solvation model:               GBSA
        Solvent                        toluene
        Solvent mass                       9.2140E+01 g/mol
          :  Hamiltonian                  GFN2-xTB          :
 * total energy  :  -140.1719742 Eh     change       -0.5668710E-09 Eh
 * total energy  :  -140.1723362 Eh     change       -0.3619822E-03 Eh
 * total energy  :  -140.1726820 Eh     change       -0.3458298E-03 Eh
 * total energy  :  -140.1728145 Eh     change       -0.1324721E-03 Eh
 * total energy  :  -140.1729885 Eh     change       -0.1740124E-03 Eh
 * total energy  :  -140.1731397 Eh     change       -0.1512390E-03 Eh
 * total energy  :  -140.1732637 Eh     change       -0.1240019E-03 Eh
 * total energy  :  -140.1733673 Eh     change       -0.1035824E-03 Eh
 * total energy  :  -140.1734637 Eh     change       -0.9633485E-04 Eh
 * total energy  :  -140.1735581 Eh     change       -0.9440329E-04 Eh
 * total energy  :  -140.1746581 Eh     change       -0.1291575E-05 Eh
 * total energy  :  -140.1746593 Eh     change       -0.1182775E-05 Eh
 * total energy  :  -140.1746596 Eh     change       -0.3280337E-06 Eh
 * total energy  :  -140.1746602 Eh     change       -0.6010732E-06 Eh
 * total energy  :  -140.1746604 Eh     change       -0.2397112E-06 Eh
 * total energy  :  -140.1746607 Eh     change       -0.2375438E-06 Eh
 * total energy  :  -140.1746610 Eh     change       -0.2892335E-06 Eh
 * total energy  :  -140.1746612 Eh     change       -0.1903158E-06 Eh
 * total energy  :  -140.1746612 Eh     change       -0.3739407E-07 Eh
   *** GEOMETRY OPTIMIZATION CONVERGED AFTER 100 ITERATIONS ***

 final structure:
================
78
 xtb: 6.7.1 (edcfbbe)
O           -6.05281748377534       -3.98248252133054       -0.42727630493394
S           -5.12564430166035       -2.87229629488752       -0.40852338152904
O           -5.17876410053652       -1.95499213212398       -1.52655882600144
C           -5.30346947367020       -1.95288813198803        1.11965641805697
C           -5.76817764663190       -2.60187784545747        2.24732815655137
C           -5.82765840456111       -1.90642993279086        3.44440112037335
C           -5.40496481704253       -0.58642666193518        3.49993515288032
C           -4.93780498437224        0.05477577490442        2.36173995626507
C           -4.89169730626155       -0.63407802220807        1.16000723006426
C           -3.44804132826511       -3.52331164203665       -0.29728804740190
C           -3.21558628463876       -4.88367093461937       -0.21302078736969
C           -1.90996976175344       -5.34216767878688       -0.10295660005347
C           -0.85859103342560       -4.44333806257706       -0.06486011560183
C           -1.10264032290554       -3.07161616714668       -0.14333715221724
C           -0.00818681422555       -2.10064120722156       -0.08724986115065
N           -0.33522260623730       -0.81399399066662        0.00120408097312
C            0.67697285712255        0.04573267789162        0.04690911167788
C            0.36019800447195        1.47444683481190        0.11886561128244
C            1.36569037953401        2.42866913791023       -0.04409620078099
C            1.06755157839518        3.77811939343773        0.01822018610796
C           -0.23837295904984        4.18923493422906        0.24335113586566
C           -1.22940523764111        3.23739335703787        0.40302172819617
S           -2.93634635318418        3.74959522285767        0.67155572042858
O           -2.96538891617663        5.19208435020877        0.78024374322458
O           -3.47288064763022        3.00702347672386        1.79211211272431
C           -3.80152940698017        3.25244454563911       -0.82058829124287
C           -3.24068835212886        3.56242224375997       -2.04525410477038
C           -3.90413239298105        3.18602117703300       -3.20180938640045
C           -5.11170126342582        2.50839078541932       -3.11831133076188
C           -5.66498742027488        2.20780696365706       -1.88366275992488
C           -5.00573323207856        2.58356169068451       -0.72363840486181
C           -0.95234049073719        1.88854843582002        0.34353698621024
N            1.95757853893931       -0.31352087922114        0.02538314322420
C            2.19499983242254       -1.62007545573384       -0.05679515641743
C            3.59248645966002       -2.05809885235527       -0.07764177210453
C            3.92378871209979       -3.36381252925763       -0.44169128235374
C            5.24667497442317       -3.76751483572307       -0.46995759735394
C            6.25233994886901       -2.87400562150032       -0.12941329934753
C            5.91503661183570       -1.58476724532895        0.23931583807286
S            7.20169407014878       -0.41955812530768        0.73019973157548
O            8.47115095981553       -0.91233272842363        0.24137229022238
O            7.09327543030212       -0.21046056610903        2.15832821709291
C            6.77985094646570        1.10314484432004       -0.11934094271136
C            6.87783707669420        1.13594523517353       -1.49784801683763
C            6.53201920603721        2.29807346410617       -2.16784429773434
C            6.09386545747011        3.40375116800067       -1.45350112824339
C            6.00243018864288        3.35734978711356       -0.07088028581090
C            6.34539795287359        2.19642125544798        0.60447271779166
C            4.60379312882262       -1.16248361037958        0.26833814285823
N            1.24395202282843       -2.54817703079954       -0.12469965430479
C           -2.41368893285334       -2.61424447032721       -0.26437662743140
H           -6.08661690190090       -3.62936536205626        2.16655669158231
H           -6.19751179738465       -2.39550972057832        4.33249150106061
H           -5.44215807791167       -0.04982369183734        4.43593508364741
H           -4.60007608055359        1.08011457043415        2.40852494325153
H           -4.55885772261781       -0.16016145061697        0.24983474568115
H           -4.05796323511976       -5.55722116152854       -0.24131362368507
H           -1.71623149639440       -6.40175680928097       -0.04238011815929
H            0.16027383029389       -4.78408032344912        0.03079899400416
H            2.37338200541973        2.08907668658620       -0.22382657807662
H            1.84928171769348        4.51038590579800       -0.10870459736433
H           -0.50952947751494        5.23211691741874        0.30253638113271
H           -2.30215681707682        4.09305942769078       -2.08389027189863
H           -3.47967941204103        3.42055118015097       -4.16580513842027
H           -5.62503569408550        2.21268677085153       -4.02055637142755
H           -6.60263502392080        1.67761424538492       -1.82103245251802
H           -5.40736159119684        2.36795452225432        0.25380438484415
H           -1.73660221762314        1.16248402723242        0.48311325877529
H            3.12979002694918       -4.04415149465848       -0.70644951968420
H            5.49814383785475       -4.77661813393910       -0.75699899171128
H            7.29468647475969       -3.15234437440544       -0.14546560788015
H            7.23223367748944        0.26215112267332       -2.02189448196842
H            6.60553273590539        2.34079298213013       -3.24355940521497
H            5.82595620750786        4.30809569346465       -1.97860541510637
H            5.66519949839079        4.22008215769883        0.48273261305912
H            6.29035740751663        2.11932889761145        1.67941047929409
H            4.35464523927424       -0.15601328143645        0.56351906328204
H           -2.61001713218341       -1.55807851951530       -0.34279581784270

          :  Hamiltonian                  GFN2-xTB          :
         :: gradient norm              0.000130233923 Eh/a0 ::
         :: HOMO-LUMO gap              2.269402519351 eV    ::
         :: SCC energy              -142.311685380500 Eh    ::
         :: -> dispersion             -0.114023010078 Eh    ::
         :: -> Gsolv                  -0.078105398450 Eh    ::
         :: repulsion energy           2.137024189609 Eh    ::

    * Orbital Energies and Occupations

         #    Occupation            Energy/Eh            Energy/eV
      -------------------------------------------------------------
         1        2.0000           -0.7827383             -21.2994
       ...           ...                  ...                  ...
       114        2.0000           -0.4382423             -11.9252
       115        2.0000           -0.4379239             -11.9165
       116        2.0000           -0.4324782             -11.7683
       117        2.0000           -0.4310837             -11.7304
       118        2.0000           -0.4309824             -11.7276
       119        2.0000           -0.4298682             -11.6973
       120        2.0000           -0.4296055             -11.6902
       121        2.0000           -0.4281378             -11.6502
       122        2.0000           -0.4160819             -11.3222
       123        2.0000           -0.4150377             -11.2938
       124        2.0000           -0.4128681             -11.2347
       125        2.0000           -0.4018691             -10.9354
       126        2.0000           -0.4002637             -10.8917 (HOMO)
       127                         -0.3168647              -8.6223 (LUMO)
       128                         -0.3165173              -8.6129
       129                         -0.2781357              -7.5685
       130                         -0.2723706              -7.4116
       131                         -0.2710206              -7.3748
       132                         -0.2685462              -7.3075
       133                         -0.2603366              -7.0841
       134                         -0.2582344              -7.0269
       135                         -0.2548358              -6.9344
       136                         -0.2493659              -6.7856
       137                         -0.2482308              -6.7547
       ...                                ...                  ...
       246                          1.1699903              31.8371
      -------------------------------------------------------------
                  HL-Gap            0.0833990 Eh            2.2694 eV

     #   Z          covCN         q      C6AA      α(0)
     1   8 O        0.860    -0.565    25.262     6.739
     2  16 S        3.819     0.941   108.365    17.520
     3   8 O        0.860    -0.573    25.472     6.767
     4   6 C        2.972    -0.074    29.832     8.959
     5   6 C        2.957    -0.027    28.674     8.783
     6   6 C        2.921    -0.021    28.531     8.759
     7   6 C        2.920    -0.020    28.505     8.755
     8   6 C        2.920    -0.025    28.618     8.773
     9   6 C        2.959    -0.026    28.653     8.780
    10   6 C        2.968    -0.070    29.734     8.944
    11   6 C        2.946    -0.016    28.413     8.742
    12   6 C        2.920    -0.018    28.448     8.747
    13   6 C        2.922    -0.019    28.491     8.753
    14   6 C        2.985     0.002    27.970     8.675
    15   6 C        2.981     0.205    23.649     7.977
    16   7 N        1.845    -0.297    28.554     7.919
    17   6 C        2.980     0.205    23.655     7.978
    18   6 C        2.985     0.003    27.960     8.674
    19   6 C        2.923    -0.019    28.486     8.752
    20   6 C        2.919    -0.018    28.447     8.746
    21   6 C        2.950    -0.017    28.424     8.744
    22   6 C        2.969    -0.069    29.711     8.941
    23  16 S        3.816     0.951   108.075    17.497
    24   8 O        0.860    -0.572    25.441     6.763
    25   8 O        0.860    -0.576    25.523     6.774
    26   6 C        2.972    -0.073    29.814     8.956
    27   6 C        2.960    -0.030    28.744     8.794
    28   6 C        2.922    -0.020    28.518     8.757
    29   6 C        2.920    -0.019    28.492     8.753
    30   6 C        2.921    -0.019    28.476     8.751
    31   6 C        2.955    -0.024    28.596     8.771
    32   6 C        2.963    -0.023    28.579     8.769
    33   7 N        1.844    -0.293    28.444     7.904
    34   6 C        2.982     0.205    23.665     7.980
    35   6 C        2.985     0.004    27.933     8.670
    36   6 C        2.922    -0.019    28.485     8.752
    37   6 C        2.920    -0.017    28.438     8.745
    38   6 C        2.950    -0.015    28.378     8.737
    39   6 C        2.969    -0.067    29.661     8.933
    40  16 S        3.816     0.941   108.373    17.521
    41   8 O        0.860    -0.570    25.399     6.757
    42   8 O        0.860    -0.576    25.532     6.775
    43   6 C        2.972    -0.070    29.744     8.946
    44   6 C        2.961    -0.027    28.662     8.781
    45   6 C        2.922    -0.020    28.515     8.757
    46   6 C        2.920    -0.021    28.522     8.758
    47   6 C        2.921    -0.021    28.542     8.761
    48   6 C        2.954    -0.024    28.605     8.772
    49   6 C        2.964    -0.026    28.640     8.778
    50   7 N        1.843    -0.288    28.318     7.887
    51   6 C        2.971    -0.025    28.625     8.776
    52   1 H        0.926     0.061     2.188     2.313
    53   1 H        0.926     0.066     2.135     2.285
    54   1 H        0.926     0.063     2.165     2.301
    55   1 H        0.926     0.073     2.056     2.242
    56   1 H        0.926     0.051     2.301     2.372
    57   1 H        0.926     0.077     2.014     2.219
    58   1 H        0.926     0.081     1.972     2.196
    59   1 H        0.926     0.082     1.955     2.186
    60   1 H        0.926     0.080     1.976     2.198
    61   1 H        0.926     0.083     1.950     2.184
    62   1 H        0.926     0.078     1.997     2.210
    63   1 H        0.926     0.053     2.289     2.366
    64   1 H        0.926     0.066     2.131     2.283
    65   1 H        0.926     0.065     2.147     2.291
    66   1 H        0.926     0.062     2.177     2.307
    67   1 H        0.926     0.060     2.193     2.316
    68   1 H        0.926     0.067     2.119     2.276
    69   1 H        0.926     0.082     1.960     2.189
    70   1 H        0.926     0.080     1.979     2.200
    71   1 H        0.926     0.074     2.046     2.237
    72   1 H        0.926     0.054     2.273     2.358
    73   1 H        0.926     0.066     2.131     2.283
    74   1 H        0.926     0.069     2.102     2.267
    75   1 H        0.926     0.067     2.122     2.278
    76   1 H        0.926     0.060     2.198     2.318
    77   1 H        0.926     0.066     2.124     2.279
    78   1 H        0.926     0.068     2.112     2.272

molecular dipole:
                 x           y           z       tot (Debye)
 q only:        0.631      -0.182      -1.994
   full:        0.630      -0.181      -1.868       5.031

 projected vibrational frequencies (cm⁻¹)
eigval :       -0.00    -0.00    -0.00    -0.00     0.00     0.00
eigval :        5.45     7.61    13.53    14.07    19.16    24.62
eigval :       30.22    33.24    35.08    38.78    40.54    43.77
eigval :       48.73    54.96    69.93    73.27    77.50    90.86
eigval :      101.76   109.46   115.18   123.77   128.92   138.33
eigval :      140.78   145.24   177.67   184.82   187.59   190.35
eigval :      212.43   223.95   228.90   229.33   235.16   264.23
eigval :      272.22   275.93   278.11   283.05   285.66   291.33
eigval :      293.34   318.97   333.40   346.44   350.18   365.93
eigval :      368.18   369.06   375.67   380.35   381.54   404.46
eigval :      420.43   424.17   434.92   445.89   456.02   467.38
eigval :      472.72   490.36   510.82   512.82   514.81   527.20
eigval :      530.28   537.27   569.66   583.57   583.75   584.36
eigval :      606.19   612.43   631.32   639.88   641.80   656.16
eigval :      657.74   658.81   660.18   672.71   675.09   685.00
eigval :      688.67   690.24   703.99   706.80   742.69   748.65
eigval :      752.32   759.19   774.87   804.24   805.60   809.56
eigval :      876.25   876.30   879.09   884.30   887.01   887.54
eigval :      888.12   888.76   906.83   907.68   913.38   915.43
eigval :      916.12   917.08   927.84   928.43   928.56   929.52
eigval :      930.58   931.66   932.01   935.36   949.50   963.47
eigval :      965.56   965.77   973.31   987.46   988.61  1047.08
eigval :     1066.36  1066.99  1069.60  1071.82  1072.06  1072.72
eigval :     1082.40  1089.16  1094.08  1100.09  1101.46  1102.95
eigval :     1104.73  1105.31  1105.74  1115.72  1116.72  1117.65
eigval :     1120.95  1159.64  1161.44  1163.99  1171.34  1173.83
eigval :     1174.04  1174.94  1177.44  1183.83  1186.23  1188.61
eigval :     1193.30  1194.28  1195.91  1200.99  1224.08  1226.83
eigval :     1232.46  1254.98  1256.82  1259.87  1317.76  1318.07
eigval :     1318.44  1321.65  1322.75  1325.32  1354.75  1359.71
eigval :     1362.41  1410.53  1413.88  1415.34  1425.49  1425.64
eigval :     1426.47  1439.31  1440.58  1442.06  1445.67  1446.55
eigval :     1461.50  1506.14  1508.10  1558.84  1561.24  1563.40
eigval :     1570.35  1571.20  1571.66  1588.04  1588.44  1589.94
eigval :     1594.10  1594.61  1595.40  3086.77  3087.82  3088.50
eigval :     3091.47  3092.25  3092.48  3096.53  3096.71  3096.99
eigval :     3097.36  3097.47  3098.17  3101.16  3102.55  3103.84
eigval :     3104.79  3104.90  3105.07  3105.51  3105.72  3109.41
eigval :     3111.15  3111.82  3112.36  3114.52  3115.54  3124.16

   temp. (K)  partition function   enthalpy   heat capacity  entropy
                                   cal/mol     cal/K/mol   cal/K/mol   J/K/mol
 298.15  VIB  0.244E+24            26731.248    155.326    171.855
         ROT  0.121E+09              888.752      2.981     39.969
         INT  0.296E+32            27620.000    158.307    211.824
         TR   0.191E+29             1481.254      4.968     45.622
         TOT                       29101.2544   163.2754   257.4459  1077.1537

       T/K    H(0)-H(T)+PV         H(T)/Eh          T*S/Eh         G(T)/Eh
   ------------------------------------------------------------------------
    298.15    0.463758E-01    0.603055E+00    0.122321E+00    0.480734E+00
   ------------------------------------------------------------------------

         :::::::::::::::::::::::::::::::::::::::::::::::::::::
         ::                  THERMODYNAMIC                  ::
         :::::::::::::::::::::::::::::::::::::::::::::::::::::
         :: total free energy        -139.693927024050 Eh   ::
         ::.................................................::
         :: total energy             -140.174661194196 Eh   ::
         :: zero point energy           0.556679234873 Eh   ::
         :: G(RRHO) w/o ZPVE           -0.075945064726 Eh   ::
         :: G(RRHO) contrib.            0.480734170146 Eh   ::
         :::::::::::::::::::::::::::::::::::::::::::::::::::::

           -------------------------------------------------
          | TOTAL ENERGY             -140.174661194196 Eh   |
          | TOTAL ENTHALPY           -139.571606158528 Eh   |
          | TOTAL FREE ENERGY        -139.693927024050 Eh   |
          | GRADIENT NORM               0.000130211028 Eh/α |
          | HOMO-LUMO GAP               2.269402458303 eV   |
           -------------------------------------------------

 * finished run on 2025/09/04 at 01:24:09.863
