   * xtb version 6.7.1 (edcfbbe) compiled by 'albert@albert-system' on 2024-07-22

   ID    Z sym.   atoms
    1    8 O      1, 3, 24, 25, 41, 42
    2   16 S      2, 23, 40
    3    6 C      4-15, 17-22, 26-32, 34-39, 43-49, 51
    4    7 N      16, 33, 50
    5    1 H      52-78

          program call               : xtb data2507/toluene/TRZ-3SO2/TRZ-3SO2_toluene_S0_finalOpt.xtbopt.xyz --gfn 2 --uhf 2 --gbsa toluene --ohess vtight --parallel 40 --molden --ceasefiles --namespace data2507/toluene/TRZ-3SO2/TRZ-3SO2_toluene_T1_preOpt
      * Solvation model:               GBSA
        Solvent                        toluene
        Solvent mass                       9.2140E+01 g/mol
          :  Hamiltonian                  GFN2-xTB          :
 * total energy  :  -140.0862974 Eh     change       -0.2697590E-08 Eh
 * total energy  :  -140.0883587 Eh     change       -0.2061329E-02 Eh
 * total energy  :  -140.0892171 Eh     change       -0.8584146E-03 Eh
 * total energy  :  -140.0892422 Eh     change       -0.2506861E-04 Eh
 * total energy  :  -140.0892769 Eh     change       -0.3473762E-04 Eh
 * total energy  :  -140.0893076 Eh     change       -0.3074828E-04 Eh
 * total energy  :  -140.0893852 Eh     change       -0.7752770E-04 Eh
 * total energy  :  -140.0894828 Eh     change       -0.9761542E-04 Eh
 * total energy  :  -140.0895362 Eh     change       -0.5343085E-04 Eh
 * total energy  :  -140.0895779 Eh     change       -0.4163825E-04 Eh
 * total energy  :  -140.0900086 Eh     change       -0.9413621E-06 Eh
 * total energy  :  -140.0900100 Eh     change       -0.1360378E-05 Eh
 * total energy  :  -140.0900116 Eh     change       -0.1572234E-05 Eh
 * total energy  :  -140.0900128 Eh     change       -0.1254741E-05 Eh
 * total energy  :  -140.0900139 Eh     change       -0.1066686E-05 Eh
 * total energy  :  -140.0900151 Eh     change       -0.1240876E-05 Eh
 * total energy  :  -140.0900167 Eh     change       -0.1602206E-05 Eh
 * total energy  :  -140.0900181 Eh     change       -0.1410463E-05 Eh
 * total energy  :  -140.0900182 Eh     change       -0.5298389E-07 Eh
   *** GEOMETRY OPTIMIZATION CONVERGED AFTER 122 ITERATIONS ***

 final structure:
================
78
 xtb: 6.7.1 (edcfbbe)
O           -6.08244269717441       -4.10662818681600       -0.38841249126265
S           -5.18883646359590       -2.96987787051321       -0.38874158789932
O           -5.31823270983018       -2.03873212343197       -1.48891271817007
C           -5.34333320036806       -2.07170512381326        1.15783050313709
C           -5.68203085069073       -2.76029906614560        2.30593233247625
C           -5.72959766637106       -2.07114807783900        3.50760595019728
C           -5.42139246024846       -0.71922214906037        3.54398616287895
C           -5.07785251236944       -0.03991715339483        2.38425739337457
C           -5.04176176121917       -0.72372758044905        1.17901072147128
C           -3.48611428247082       -3.56559735455476       -0.35128634298008
C           -3.21392766023132       -4.92113166127216       -0.42611239223612
C           -1.88595952309706       -5.33599404127741       -0.38460022111130
C           -0.86980572214107       -4.41333689111201       -0.25946667165045
C           -1.15422749192516       -3.03969618990369       -0.17292383902200
C           -0.11426370941444       -2.06464204291982       -0.02420277781157
N           -0.40590100785390       -0.78582277891836        0.12462276998768
C            0.53189046507093        0.13256567941143        0.26712275770752
C            0.20063472308578        1.51597376034286        0.43259979673407
C            1.21053631103117        2.48986709243624        0.53405573993732
C            0.89494474082943        3.82125303605764        0.69377019388559
C           -0.43546106555622        4.22393991849629        0.75588816816755
C           -1.42661830045611        3.26099987787744        0.65885673851349
S           -3.15821076976163        3.75413074579699        0.71870245028581
O           -3.22371066730649        5.19056285852177        0.87839149835319
O           -3.83628308721308        2.96261816277960        1.72375329600886
C           -3.80581674177281        3.31074656472786       -0.89756225815412
C           -3.15092648858426        3.78508122187761       -2.01818434529494
C           -3.63222906461723        3.44167927009919       -3.27114804446714
C           -4.75150563712668        2.62980137171809       -3.38381680322632
C           -5.40081204288268        2.16483971460629       -2.25096737780247
C           -4.92525116299594        2.50859921074678       -0.99486323678922
C           -1.14178690119948        1.92812263557508        0.49662892547391
N            1.84962447846822       -0.24859579385120        0.25499602210290
C            2.11364656701485       -1.53286498308159        0.11021080870170
C            3.52221296928787       -1.94813612957714        0.10317522594844
C            3.87922227018280       -3.25196610565068       -0.24469770200850
C            5.20788403546282       -3.63526367022167       -0.25403639298540
C            6.19695813248997       -2.72272455999779        0.08621226178406
C            5.83226307807511       -1.43599854857025        0.43574518761654
S            7.09204098188121       -0.22614710429992        0.89296126569538
O            8.39148513407262       -0.83256763207805        0.70853427552510
O            6.78005283798244        0.26851587287363        2.21588689580743
C            6.86860063659386        1.09738793911078       -0.29709143484049
C            7.33876830731502        0.91617859646203       -1.58380229450103
C            7.13066836153696        1.91546558952981       -2.52062509286792
C            6.45273148184133        3.07062582147326       -2.16010813248092
C            5.98653921619051        3.23843610836475       -0.86521742291643
C            6.19497999245193        2.24379727620143        0.07717536661177
C            4.51575880014968       -1.03212909210156        0.44681265035254
N            1.19586856259305       -2.47128605572703       -0.03162243730508
C           -2.49551681503726       -2.62576204661624       -0.22543453981164
H           -5.91499079233835       -3.81143327232090        2.24058081567589
H           -6.00152732948040       -2.59085796399524        4.41347954830494
H           -5.45016790190423       -0.18763602530607        4.48315534800056
H           -4.82855128063009        1.01095690190630        2.41360746956776
H           -4.79929237077735       -0.22695335575076        0.25259268595980
H           -4.03080092802068       -5.61800471117664       -0.51870102276770
H           -1.65544255954422       -6.38829317861577       -0.44784620771247
H            0.16195779730189       -4.72553554533210       -0.21913946059340
H            2.23741540458967        2.16394610108756        0.48209437576716
H            1.67927057647411        4.55810452783097        0.77159995374853
H           -0.71951931552063        5.25603733407962        0.88289151370089
H           -2.28387079100575        4.41615141224644       -1.90068348442034
H           -3.13394082487448        3.80497538956100       -4.15669220699400
H           -5.12170227180215        2.35882576411414       -4.36091573709170
H           -6.27033175594226        1.53207862000824       -2.34089394999020
H           -5.40690529654965        2.17092729820783       -0.09073364011642
H           -1.93382319180372        1.19934947529746        0.43101578644779
H            3.10028058410877       -3.94991175635530       -0.50859682106405
H            5.47683434707151       -4.64412336113213       -0.52571051603497
H            7.24292334349917       -2.98657079898331        0.09102606665755
H            7.87014087796003        0.00975238994336       -1.82728351505639
H            7.49695859199258        1.79235458111106       -3.52813540627632
H            6.29046183845500        3.84680525478966       -2.89259227086640
H            5.46438457501225        4.14103415713439       -0.58746687416173
H            5.86092170242660        2.34219764996223        1.09848896360355
H            4.25072020569531       -0.02651969215469        0.73044799119227
H           -2.72971789083708       -1.57484106315026       -0.17340379434447

          :  Hamiltonian                  GFN2-xTB          :
         :: gradient norm              0.000153143658 Eh/a0 ::
         :: HOMO-LUMO gap              0.126135432727 eV    ::
         :: SCC energy              -142.225025595744 Eh    ::
         :: -> dispersion             -0.113118706536 Eh    ::
         :: -> Gsolv                  -0.076772274725 Eh    ::
         :: repulsion energy           2.135007384696 Eh    ::

    * Orbital Energies and Occupations

         #    Occupation            Energy/Eh            Energy/eV
      -------------------------------------------------------------
         1        2.0000           -0.7841457             -21.3377
       ...           ...                  ...                  ...
       115        2.0000           -0.4327208             -11.7749
       116        2.0000           -0.4317499             -11.7485
       117        2.0000           -0.4316750             -11.7465
       118        2.0000           -0.4311619             -11.7325
       119        2.0000           -0.4302287             -11.7071
       120        2.0000           -0.4296198             -11.6906
       121        2.0000           -0.4289265             -11.6717
       122        2.0000           -0.4169391             -11.3455
       123        1.9999           -0.4150126             -11.2931
       124        1.9990           -0.4124368             -11.2230
       125        1.7175           -0.4067528             -11.0683
       126        1.2836           -0.4049871             -11.0203
       127        0.9198           -0.3176510              -8.6437 (HOMO)
       128        0.0802           -0.3130148              -8.5176 (LUMO)
       129                         -0.2773237              -7.5464
       130                         -0.2719745              -7.4008
       131                         -0.2676085              -7.2820
       132                         -0.2651306              -7.2146
       133                         -0.2592878              -7.0556
       134                         -0.2563925              -6.9768
       135                         -0.2533884              -6.8950
       136                         -0.2500558              -6.8044
       137                         -0.2488530              -6.7716
       138                         -0.2480539              -6.7499
       ...                                ...                  ...
       246                          1.1710148              31.8649
      -------------------------------------------------------------
                  HL-Gap            0.0046363 Eh            0.1262 eV

     #   Z          covCN         q      C6AA      α(0)
     1   8 O        0.860    -0.563    25.218     6.733
     2  16 S        3.823     0.957   107.897    17.483
     3   8 O        0.860    -0.571    25.418     6.760
     4   6 C        2.972    -0.072    29.793     8.953
     5   6 C        2.956    -0.026    28.655     8.780
     6   6 C        2.922    -0.020    28.507     8.756
     7   6 C        2.920    -0.019    28.488     8.753
     8   6 C        2.920    -0.023    28.586     8.768
     9   6 C        2.959    -0.025    28.637     8.777
    10   6 C        2.968    -0.069    29.711     8.941
    11   6 C        2.946    -0.029    28.712     8.788
    12   6 C        2.919    -0.019    28.492     8.753
    13   6 C        2.921    -0.028    28.693     8.784
    14   6 C        2.981     0.003    27.954     8.673
    15   6 C        2.921     0.164    24.469     8.112
    16   7 N        1.848    -0.205    26.280     7.598
    17   6 C        2.916     0.163    24.475     8.113
    18   6 C        2.980     0.002    27.985     8.678
    19   6 C        2.922    -0.028    28.697     8.785
    20   6 C        2.918    -0.020    28.507     8.756
    21   6 C        2.950    -0.030    28.742     8.793
    22   6 C        2.968    -0.069    29.726     8.943
    23  16 S        3.822     0.958   107.871    17.481
    24   8 O        0.860    -0.571    25.421     6.760
    25   8 O        0.860    -0.576    25.532     6.775
    26   6 C        2.972    -0.072    29.794     8.953
    27   6 C        2.961    -0.028    28.707     8.788
    28   6 C        2.922    -0.020    28.506     8.756
    29   6 C        2.920    -0.020    28.500     8.754
    30   6 C        2.921    -0.019    28.482     8.752
    31   6 C        2.953    -0.024    28.600     8.772
    32   6 C        2.967    -0.033    28.816     8.805
    33   7 N        1.846    -0.261    27.649     7.793
    34   6 C        2.921     0.198    23.804     8.001
    35   6 C        2.987     0.010    27.790     8.647
    36   6 C        2.922    -0.020    28.495     8.754
    37   6 C        2.920    -0.017    28.425     8.743
    38   6 C        2.948    -0.018    28.446     8.748
    39   6 C        2.970    -0.068    29.681     8.936
    40  16 S        3.818     0.950   108.111    17.500
    41   8 O        0.860    -0.566    25.298     6.744
    42   8 O        0.860    -0.572    25.436     6.762
    43   6 C        2.973    -0.071    29.771     8.950
    44   6 C        2.960    -0.026    28.651     8.780
    45   6 C        2.922    -0.020    28.499     8.755
    46   6 C        2.920    -0.020    28.500     8.754
    47   6 C        2.922    -0.021    28.522     8.758
    48   6 C        2.955    -0.025    28.618     8.774
    49   6 C        2.965    -0.025    28.626     8.776
    50   7 N        1.845    -0.264    27.710     7.801
    51   6 C        2.973    -0.034    28.851     8.811
    52   1 H        0.926     0.062     2.175     2.306
    53   1 H        0.926     0.068     2.111     2.272
    54   1 H        0.926     0.065     2.139     2.287
    55   1 H        0.926     0.075     2.027     2.226
    56   1 H        0.926     0.055     2.262     2.352
    57   1 H        0.926     0.067     2.116     2.275
    58   1 H        0.926     0.073     2.049     2.238
    59   1 H        0.926     0.075     2.027     2.226
    60   1 H        0.926     0.071     2.072     2.251
    61   1 H        0.926     0.073     2.058     2.243
    62   1 H        0.926     0.067     2.120     2.277
    63   1 H        0.926     0.055     2.262     2.352
    64   1 H        0.926     0.067     2.115     2.274
    65   1 H        0.926     0.066     2.130     2.282
    66   1 H        0.926     0.063     2.162     2.299
    67   1 H        0.926     0.060     2.194     2.316
    68   1 H        0.926     0.054     2.270     2.356
    69   1 H        0.926     0.082     1.959     2.189
    70   1 H        0.926     0.081     1.967     2.193
    71   1 H        0.926     0.076     2.016     2.220
    72   1 H        0.926     0.058     2.222     2.331
    73   1 H        0.926     0.067     2.122     2.278
    74   1 H        0.926     0.068     2.105     2.269
    75   1 H        0.926     0.067     2.113     2.273
    76   1 H        0.926     0.061     2.190     2.314
    77   1 H        0.926     0.068     2.107     2.270
    78   1 H        0.926     0.056     2.248     2.344

molecular dipole:
                 x           y           z       tot (Debye)
 q only:        1.602      -0.492      -2.409
   full:        1.518      -0.440      -2.254       6.997

 projected vibrational frequencies (cm⁻¹)
eigval :       -0.00    -0.00    -0.00    -0.00     0.00     0.00
eigval :        3.94     8.71    14.33    15.70    16.04    24.79
eigval :       28.25    33.36    34.01    39.48    45.24    46.07
eigval :       48.30    51.83    64.45    71.51    81.19    95.68
eigval :      101.07   110.56   118.82   126.76   128.84   140.60
eigval :      142.09   146.53   175.15   186.72   187.95   204.63
eigval :      210.77   219.97   224.37   227.14   232.65   258.67
eigval :      269.27   278.19   279.10   282.81   285.47   287.82
eigval :      290.55   317.00   322.14   341.66   351.04   361.90
eigval :      365.71   367.44   369.78   377.17   377.96   395.46
eigval :      400.46   401.76   425.52   433.20   448.45   460.59
eigval :      469.14   484.26   505.38   505.64   508.91   517.35
eigval :      520.30   532.33   547.07   554.94   556.36   581.89
eigval :      582.94   583.24   588.43   612.05   627.24   637.09
eigval :      640.97   651.81   652.28   653.63   654.65   656.60
eigval :      658.21   677.52   681.55   688.31   690.90   729.25
eigval :      748.35   750.55   760.70   778.67   779.96   795.13
eigval :      807.37   822.43   849.98   853.39   855.62   858.62
eigval :      877.14   877.64   878.32   879.39   881.69   887.40
eigval :      907.46   907.68   907.88   912.83   913.94   916.43
eigval :      924.29   925.97   926.33   930.13   932.01   936.90
eigval :      953.59   955.83   961.02   963.36   963.64   975.52
eigval :      977.41   985.32  1060.32  1064.36  1066.60  1067.80
eigval :     1068.46  1069.83  1071.69  1083.26  1089.41  1097.08
eigval :     1100.71  1101.54  1102.37  1102.91  1103.84  1109.49
eigval :     1111.81  1113.53  1116.39  1118.81  1154.65  1158.11
eigval :     1160.27  1171.82  1172.49  1172.97  1174.36  1176.31
eigval :     1180.61  1181.30  1189.84  1191.20  1195.19  1216.97
eigval :     1221.16  1223.06  1255.74  1256.02  1258.55  1265.72
eigval :     1310.26  1317.08  1317.51  1318.39  1323.82  1325.00
eigval :     1335.19  1369.52  1376.22  1410.80  1414.26  1415.30
eigval :     1422.78  1425.04  1425.48  1426.00  1434.50  1438.37
eigval :     1439.08  1440.55  1465.05  1501.96  1507.17  1545.27
eigval :     1560.76  1564.69  1567.19  1568.50  1568.81  1580.41
eigval :     1592.54  1594.17  1594.43  3087.01  3087.88  3088.90
eigval :     3092.18  3092.74  3092.76  3093.26  3093.72  3096.55
eigval :     3097.25  3098.07  3098.92  3100.80  3102.50  3103.40
eigval :     3104.35  3104.56  3104.88  3105.57  3105.65  3106.84
eigval :     3107.12  3109.19  3110.17  3111.13  3112.49  3113.13

   temp. (K)  partition function   enthalpy   heat capacity  entropy
                                   cal/mol     cal/K/mol   cal/K/mol   J/K/mol
 298.15  VIB  0.385E+24            27135.090    158.645    173.939
         ROT  0.124E+09              888.752      2.981     40.015
         INT  0.477E+32            28023.842    161.626    213.953
         TR   0.191E+29             1481.254      4.968     45.622
         TOT                       29505.0958   166.5944   259.5756  1086.0642

       T/K    H(0)-H(T)+PV         H(T)/Eh          T*S/Eh         G(T)/Eh
   ------------------------------------------------------------------------
    298.15    0.470194E-01    0.597061E+00    0.123333E+00    0.473729E+00
   ------------------------------------------------------------------------

         :::::::::::::::::::::::::::::::::::::::::::::::::::::
         ::                  THERMODYNAMIC                  ::
         :::::::::::::::::::::::::::::::::::::::::::::::::::::
         :: total free energy        -139.616289617828 Eh   ::
         ::.................................................::
         :: total energy             -140.090018208209 Eh   ::
         :: zero point energy           0.550041958275 Eh   ::
         :: G(RRHO) w/o ZPVE           -0.076313367894 Eh   ::
         :: G(RRHO) contrib.            0.473728590381 Eh   ::
         :::::::::::::::::::::::::::::::::::::::::::::::::::::

           -------------------------------------------------
          | TOTAL ENERGY             -140.090018208209 Eh   |
          | TOTAL ENTHALPY           -139.492956886832 Eh   |
          | TOTAL FREE ENERGY        -139.616289617828 Eh   |
          | GRADIENT NORM               0.000150158984 Eh/α |
          | HOMO-LUMO GAP               0.126158897434 eV   |
           -------------------------------------------------

 * finished run on 2025/09/04 at 01:24:26.703
