   * xtb version 6.7.1 (edcfbbe) compiled by 'albert@albert-system' on 2024-07-22

   ID    Z sym.   atoms
    1    8 O      1, 3, 24, 25, 41, 42
    2   16 S      2, 23, 40
    3    6 C      4-15, 17-22, 26-32, 34-39, 43-49, 51
    4    7 N      16, 33, 50
    5    1 H      52-78

          program call               : xtb data2507/toluene/TRZ-3SO2/TRZ-3SO2_toluene_T1_crest.xyz --gfn 2 --uhf 2 --gbsa toluene --ohess vtight --parallel 40 --molden --ceasefiles --namespace data2507/toluene/TRZ-3SO2/TRZ-3SO2_toluene_T1_finalOpt
      * Solvation model:               GBSA
        Solvent                        toluene
        Solvent mass                       9.2140E+01 g/mol
          :  Hamiltonian                  GFN2-xTB          :
 * total energy  :  -140.0868275 Eh     change       -0.3762068E-08 Eh
 * total energy  :  -140.0872102 Eh     change       -0.3826544E-03 Eh
 * total energy  :  -140.0876315 Eh     change       -0.4212787E-03 Eh
 * total energy  :  -140.0877806 Eh     change       -0.1491426E-03 Eh
 * total energy  :  -140.0879699 Eh     change       -0.1892870E-03 Eh
 * total energy  :  -140.0881461 Eh     change       -0.1762573E-03 Eh
 * total energy  :  -140.0882803 Eh     change       -0.1342018E-03 Eh
 * total energy  :  -140.0884023 Eh     change       -0.1219177E-03 Eh
 * total energy  :  -140.0885300 Eh     change       -0.1277183E-03 Eh
 * total energy  :  -140.0886622 Eh     change       -0.1322645E-03 Eh
 * total energy  :  -140.0900260 Eh     change       -0.1820557E-06 Eh
 * total energy  :  -140.0900261 Eh     change       -0.1572910E-06 Eh
 * total energy  :  -140.0900263 Eh     change       -0.1566765E-06 Eh
 * total energy  :  -140.0900265 Eh     change       -0.2193741E-06 Eh
 * total energy  :  -140.0900268 Eh     change       -0.2663781E-06 Eh
 * total energy  :  -140.0900270 Eh     change       -0.2104149E-06 Eh
 * total energy  :  -140.0900271 Eh     change       -0.1598396E-06 Eh
 * total energy  :  -140.0900273 Eh     change       -0.1272957E-06 Eh
 * total energy  :  -140.0900273 Eh     change       -0.2043748E-07 Eh
   *** GEOMETRY OPTIMIZATION CONVERGED AFTER 221 ITERATIONS ***

 final structure:
================
78
 xtb: 6.7.1 (edcfbbe)
O           -6.06315858199615       -4.13246612572676       -0.32235495118734
S           -5.17216236903962       -2.99370571426589       -0.33419995628148
O           -5.29450558608025       -2.08119398347674       -1.45070545202145
C           -5.34151282469419       -2.07020445362309        1.19577068603926
C           -5.69037454664104       -2.73971141552104        2.35208964482279
C           -5.74814210299539       -2.03082382988361        3.54178030241272
C           -5.43978028560451       -0.67854789805940        3.55855074022986
C           -5.08649672404570       -0.01842312156610        2.39070555835100
C           -5.04019169497009       -0.72202268406169        1.19727597151424
C           -3.46848049740004       -3.58505406005103       -0.27366114846054
C           -3.19386900398713       -4.94137112325372       -0.31901625843144
C           -1.86543213107307       -5.35311200138843       -0.26413205313022
C           -0.85116540312884       -4.42629517901766       -0.15510830227975
C           -1.13813291632802       -3.05170419981768       -0.09749939238637
C           -0.10037080968980       -2.07181393998762        0.03449740709129
N           -0.39535623059639       -0.79107770996816        0.15853435167669
C            0.54026080932797        0.13212524425849        0.28377553975318
C            0.20572144740238        1.51763872375203        0.42308971258867
C            1.21337009652615        2.49561046451486        0.50574190204956
C            0.89474442264462        3.82900866177515        0.64112905774669
C           -0.43651034498299        4.22950428891377        0.69861390440672
C           -1.42540357973319        3.26249573457008        0.62074305875708
S           -3.15812524632146        3.75179979161441        0.67565375236681
O           -3.22766002752704        5.18866038856281        0.82983333882746
O           -3.83620532726044        2.96245880126447        1.68231528217320
C           -3.80161557298606        3.30114852945897       -0.94020188280451
C           -4.91757702741997        2.49416112706514       -1.03702464376172
C           -5.39055500807834        2.14619803522426       -2.29292488470424
C           -4.74221863063715        2.61188802073575       -3.42604481020435
C           -3.62605368172883        3.42809195945888       -3.31383149229761
C           -3.14730112676780        3.77566972544639       -2.06107330508117
C           -1.13755819089754        1.92766335422101        0.48159701092708
N            1.85883081081348       -0.24589708982952        0.27913389917387
C            2.12613835056985       -1.53217558491004        0.16036367739194
C            3.53561298788187       -1.94411970053573        0.16264092339184
C            3.89553256280558       -3.25447395185183       -0.15659037684652
C            5.22495672350286       -3.63515936975314       -0.15681998232659
C            6.21194281854488       -2.71342189202721        0.16410672297565
C            5.84445375836140       -1.42007061609385        0.48527725241611
S            7.10191333827058       -0.19859760188176        0.91767456363912
O            8.40214388041536       -0.81059909783698        0.75865977964652
O            6.78131570444759        0.33201947845202        2.22447967084484
C            6.88893688797920        1.09251813767376       -0.30948335806323
C            7.37645788402515        0.87936415106873       -1.58480399312428
C            7.17843370126421        1.85349725215916       -2.54990558479616
C            6.49337551253770        3.01591559476322       -2.22828826015683
C            6.00946433095678        3.21576390277164       -0.94447455681013
C            6.20777084841747        2.24644361465242        0.02608673173266
C            4.52714085150548       -1.01869936910481        0.48653136854943
N            1.21058455561466       -2.47551873137423        0.03701665365866
C           -2.47989525991688       -2.64113892246399       -0.16349051346284
H           -5.92291680748866       -3.79178405104559        2.30209997245848
H           -6.02779264498137       -2.53553454915142        4.45375634791318
H           -5.47581084169409       -0.13175428186763        4.48870417725426
H           -4.83702430216207        1.03270240831782        2.40456733745045
H           -4.79006862838754       -0.24045443953881        0.26488417236269
H           -4.00941741565360       -5.64122468976444       -0.40010104781507
H           -1.63303811640515       -6.40613060727687       -0.30452249163501
H            0.18096524774204       -4.73587857979834       -0.10515518793023
H            2.24097690678248        2.17119881487037        0.45853553017015
H            1.67739745913487        4.56903833558866        0.70433035756721
H           -0.72274336501114        5.26298436052468        0.80838990538585
H           -5.39864464490890        2.15602349104261       -0.13276296317791
H           -6.25760486655885        1.50998926871265       -2.38238537661413
H           -5.11064392105807        2.33805117323920       -4.40300894875576
H           -3.12837324931255        3.79173982840860       -4.19955249694844
H           -2.28282583257681        4.41027942461657       -1.94385756102256
H           -1.92815298490990        1.19617600554406        0.43072643430269
H            3.11806285324648       -3.95962223795512       -0.40525179217129
H            5.49609488047317       -4.64925786315384       -0.40590071953981
H            7.25834533657566       -2.97529231163038        0.17588098825465
H            7.91332818863668       -0.03156597920765       -1.79747886624529
H            7.55849468720979        1.70540049208944       -3.54893516782174
H            6.33903105204355        3.77250995826161       -2.98266087258344
H            5.48165460948102        4.12390612682988       -0.69709802507395
H            5.86021034247609        2.37081003320115        1.04003455963233
H            4.26006526134552       -0.00761548545812        0.74791201590210
H           -2.71590620057827       -1.58974191154079       -0.13447861750321

          :  Hamiltonian                  GFN2-xTB          :
         :: gradient norm              0.000068819075 Eh/a0 ::
         :: HOMO-LUMO gap              0.125422758580 eV    ::
         :: SCC energy              -142.225009278966 Eh    ::
         :: -> dispersion             -0.113025079707 Eh    ::
         :: -> Gsolv                  -0.076844178720 Eh    ::
         :: repulsion energy           2.134981991665 Eh    ::

    * Orbital Energies and Occupations

         #    Occupation            Energy/Eh            Energy/eV
      -------------------------------------------------------------
         1        2.0000           -0.7841209             -21.3370
       ...           ...                  ...                  ...
       115        2.0000           -0.4327044             -11.7745
       116        2.0000           -0.4317209             -11.7477
       117        2.0000           -0.4316742             -11.7465
       118        2.0000           -0.4311253             -11.7315
       119        2.0000           -0.4302332             -11.7072
       120        2.0000           -0.4295745             -11.6893
       121        2.0000           -0.4289099             -11.6712
       122        2.0000           -0.4169059             -11.3446
       123        1.9999           -0.4149807             -11.2922
       124        1.9990           -0.4124087             -11.2222
       125        1.7173           -0.4067291             -11.0677
       126        1.2838           -0.4049649             -11.0197
       127        0.9187           -0.3176141              -8.6427 (HOMO)
       128        0.0813           -0.3130056              -8.5173 (LUMO)
       129                         -0.2773332              -7.5466
       130                         -0.2720032              -7.4016
       131                         -0.2676328              -7.2827
       132                         -0.2651914              -7.2162
       133                         -0.2591978              -7.0531
       134                         -0.2563117              -6.9746
       135                         -0.2533298              -6.8935
       136                         -0.2500364              -6.8038
       137                         -0.2488325              -6.7711
       138                         -0.2480053              -6.7486
       ...                                ...                  ...
       246                          1.1711499              31.8686
      -------------------------------------------------------------
                  HL-Gap            0.0046084 Eh            0.1254 eV

     #   Z          covCN         q      C6AA      α(0)
     1   8 O        0.860    -0.563    25.218     6.733
     2  16 S        3.823     0.957   107.899    17.483
     3   8 O        0.860    -0.571    25.419     6.760
     4   6 C        2.972    -0.072    29.793     8.953
     5   6 C        2.956    -0.026    28.655     8.780
     6   6 C        2.922    -0.020    28.507     8.756
     7   6 C        2.920    -0.019    28.488     8.753
     8   6 C        2.920    -0.023    28.586     8.768
     9   6 C        2.960    -0.025    28.635     8.777
    10   6 C        2.968    -0.069    29.711     8.941
    11   6 C        2.946    -0.029    28.713     8.788
    12   6 C        2.919    -0.019    28.493     8.753
    13   6 C        2.921    -0.028    28.693     8.784
    14   6 C        2.981     0.003    27.954     8.673
    15   6 C        2.921     0.164    24.467     8.111
    16   7 N        1.848    -0.205    26.284     7.598
    17   6 C        2.916     0.164    24.474     8.112
    18   6 C        2.980     0.002    27.986     8.678
    19   6 C        2.922    -0.028    28.697     8.785
    20   6 C        2.918    -0.020    28.508     8.756
    21   6 C        2.950    -0.030    28.744     8.793
    22   6 C        2.968    -0.070    29.728     8.943
    23  16 S        3.822     0.958   107.872    17.481
    24   8 O        0.860    -0.571    25.421     6.760
    25   8 O        0.860    -0.576    25.531     6.775
    26   6 C        2.972    -0.072    29.795     8.954
    27   6 C        2.953    -0.024    28.599     8.771
    28   6 C        2.921    -0.019    28.483     8.752
    29   6 C        2.920    -0.020    28.500     8.755
    30   6 C        2.922    -0.020    28.506     8.756
    31   6 C        2.961    -0.028    28.707     8.788
    32   6 C        2.967    -0.033    28.815     8.805
    33   7 N        1.846    -0.261    27.648     7.793
    34   6 C        2.921     0.198    23.804     8.001
    35   6 C        2.987     0.010    27.791     8.648
    36   6 C        2.922    -0.020    28.495     8.754
    37   6 C        2.920    -0.017    28.426     8.743
    38   6 C        2.949    -0.018    28.447     8.748
    39   6 C        2.970    -0.068    29.681     8.936
    40  16 S        3.818     0.949   108.114    17.500
    41   8 O        0.860    -0.566    25.299     6.744
    42   8 O        0.860    -0.572    25.436     6.762
    43   6 C        2.973    -0.071    29.770     8.950
    44   6 C        2.960    -0.026    28.651     8.780
    45   6 C        2.922    -0.020    28.499     8.755
    46   6 C        2.920    -0.020    28.500     8.754
    47   6 C        2.922    -0.021    28.522     8.758
    48   6 C        2.955    -0.025    28.618     8.774
    49   6 C        2.965    -0.025    28.624     8.776
    50   7 N        1.845    -0.264    27.712     7.802
    51   6 C        2.973    -0.034    28.849     8.810
    52   1 H        0.926     0.062     2.174     2.306
    53   1 H        0.926     0.068     2.111     2.272
    54   1 H        0.926     0.065     2.139     2.287
    55   1 H        0.926     0.076     2.025     2.225
    56   1 H        0.926     0.055     2.263     2.352
    57   1 H        0.926     0.067     2.115     2.274
    58   1 H        0.926     0.073     2.049     2.238
    59   1 H        0.926     0.075     2.027     2.227
    60   1 H        0.926     0.071     2.072     2.251
    61   1 H        0.926     0.072     2.058     2.243
    62   1 H        0.926     0.067     2.120     2.277
    63   1 H        0.926     0.060     2.195     2.317
    64   1 H        0.926     0.063     2.162     2.299
    65   1 H        0.926     0.066     2.129     2.282
    66   1 H        0.926     0.067     2.115     2.274
    67   1 H        0.926     0.055     2.261     2.352
    68   1 H        0.926     0.054     2.269     2.355
    69   1 H        0.926     0.082     1.959     2.189
    70   1 H        0.926     0.081     1.967     2.193
    71   1 H        0.926     0.077     2.015     2.220
    72   1 H        0.926     0.058     2.220     2.330
    73   1 H        0.926     0.067     2.122     2.278
    74   1 H        0.926     0.068     2.105     2.269
    75   1 H        0.926     0.067     2.113     2.273
    76   1 H        0.926     0.061     2.191     2.315
    77   1 H        0.926     0.068     2.106     2.269
    78   1 H        0.926     0.056     2.247     2.344

molecular dipole:
                 x           y           z       tot (Debye)
 q only:        1.606      -0.517      -2.417
   full:        1.522      -0.461      -2.261       7.027

 projected vibrational frequencies (cm⁻¹)
eigval :       -0.00    -0.00    -0.00    -0.00     0.00     0.00
eigval :       -5.30    10.88    13.82    15.61    15.79    23.80
eigval :       27.86    33.86    35.17    38.50    43.64    48.21
eigval :       50.13    53.13    64.23    71.42    80.31    93.30
eigval :      101.24   110.66   119.58   127.90   130.40   140.59
eigval :      142.19   147.11   175.41   187.00   189.66   205.04
eigval :      211.77   220.34   224.15   227.25   233.10   258.85
eigval :      268.98   278.29   279.26   282.87   285.96   287.96
eigval :      290.51   317.07   322.31   341.74   351.17   362.32
eigval :      366.68   367.90   370.77   375.90   379.89   394.45
eigval :      400.96   403.34   425.23   433.70   448.06   460.53
eigval :      469.13   483.84   505.57   505.91   509.43   517.60
eigval :      520.33   531.88   547.45   554.92   557.23   581.96
eigval :      583.03   583.17   590.36   612.88   627.16   637.23
eigval :      642.54   651.94   653.34   653.92   655.15   657.09
eigval :      658.34   678.44   681.27   687.86   690.79   729.55
eigval :      749.56   751.22   759.80   778.90   780.23   797.85
eigval :      803.61   822.47   852.14   854.16   856.80   858.33
eigval :      872.90   877.54   877.85   878.30   880.93   886.66
eigval :      907.12   908.14   910.32   913.41   914.15   916.22
eigval :      927.01   927.94   929.50   931.27   931.28   937.21
eigval :      953.41   955.70   961.00   962.96   963.53   975.33
eigval :      977.22   985.21  1060.31  1063.86  1066.74  1067.70
eigval :     1068.61  1069.77  1071.61  1083.30  1089.33  1097.15
eigval :     1100.43  1101.35  1102.35  1103.15  1103.85  1109.36
eigval :     1112.10  1113.67  1115.85  1119.24  1155.20  1158.20
eigval :     1160.24  1171.93  1172.18  1173.49  1173.72  1176.59
eigval :     1180.03  1181.88  1189.86  1191.12  1195.23  1217.22
eigval :     1221.28  1222.75  1255.53  1255.96  1258.40  1265.94
eigval :     1310.40  1317.26  1317.56  1318.32  1323.83  1324.96
eigval :     1335.09  1369.42  1376.42  1410.83  1414.06  1415.39
eigval :     1422.87  1425.09  1425.62  1425.93  1434.48  1438.33
eigval :     1438.95  1440.57  1465.37  1501.95  1507.29  1545.23
eigval :     1560.74  1564.78  1567.25  1568.52  1568.83  1580.34
eigval :     1592.60  1594.24  1594.37  3087.00  3087.78  3089.09
eigval :     3092.52  3092.67  3092.88  3093.19  3093.91  3096.52
eigval :     3097.16  3097.95  3099.02  3101.01  3102.63  3103.31
eigval :     3104.40  3104.85  3105.02  3105.67  3105.87  3106.83
eigval :     3107.16  3109.15  3110.20  3111.00  3112.30  3113.17

   temp. (K)  partition function   enthalpy   heat capacity  entropy
                                   cal/mol     cal/K/mol   cal/K/mol   J/K/mol
 298.15  VIB  0.233E+24            27114.815    158.652    173.404
         ROT  0.124E+09              888.752      2.981     40.022
         INT  0.290E+32            28003.567    161.633    213.425
         TR   0.191E+29             1481.254      4.968     45.622
         TOT                       29484.8213   166.6012   259.0475  1083.8547

       T/K    H(0)-H(T)+PV         H(T)/Eh          T*S/Eh         G(T)/Eh
   ------------------------------------------------------------------------
    298.15    0.469871E-01    0.597108E+00    0.123082E+00    0.474026E+00
   ------------------------------------------------------------------------

         :::::::::::::::::::::::::::::::::::::::::::::::::::::
         ::                  THERMODYNAMIC                  ::
         :::::::::::::::::::::::::::::::::::::::::::::::::::::
         :: total free energy        -139.616001129373 Eh   ::
         ::.................................................::
         :: total energy             -140.090027284000 Eh   ::
         :: zero point energy           0.550120924098 Eh   ::
         :: G(RRHO) w/o ZPVE           -0.076094769471 Eh   ::
         :: G(RRHO) contrib.            0.474026154627 Eh   ::
         :::::::::::::::::::::::::::::::::::::::::::::::::::::

           -------------------------------------------------
          | TOTAL ENERGY             -140.090027284000 Eh   |
          | TOTAL ENTHALPY           -139.492919306333 Eh   |
          | TOTAL FREE ENERGY        -139.616001129373 Eh   |
          | GRADIENT NORM               0.000071550612 Eh/α |
          | HOMO-LUMO GAP               0.125402091514 eV   |
           -------------------------------------------------

 * finished run on 2025/09/04 at 01:40:29.229
