   * xtb version 6.7.1 (edcfbbe) compiled by 'albert@albert-system' on 2024-07-22

   ID    Z sym.   atoms
    1    6 C      1-16, 18-25, 27-46
    2    7 N      17
    3   16 S      26
    4    1 H      47-73

          program call               : xtb data2507/gas/ATDBT/ATDBT_gas_S0_crest.xyz --gfn 2 --ohess vtight --parallel 40 --molden --ceasefiles --namespace data2507/gas/ATDBT/ATDBT_gas_S0_finalOpt
          :  Hamiltonian                  GFN2-xTB          :
 * total energy  :  -114.2196837 Eh     change       -0.3639826E-08 Eh
 * total energy  :  -114.2196851 Eh     change       -0.1321340E-05 Eh
 * total energy  :  -114.2196863 Eh     change       -0.1232201E-05 Eh
 * total energy  :  -114.2196881 Eh     change       -0.1786473E-05 Eh
 * total energy  :  -114.2196884 Eh     change       -0.3514740E-06 Eh
 * total energy  :  -114.2196888 Eh     change       -0.3335533E-06 Eh
 * total energy  :  -114.2196892 Eh     change       -0.4484653E-06 Eh
 * total energy  :  -114.2196895 Eh     change       -0.3123202E-06 Eh
 * total energy  :  -114.2196897 Eh     change       -0.2202503E-06 Eh
 * total energy  :  -114.2196900 Eh     change       -0.2168474E-06 Eh
 * total energy  :  -114.2196901 Eh     change       -0.1879906E-06 Eh
 * total energy  :  -114.2196903 Eh     change       -0.1617482E-06 Eh
 * total energy  :  -114.2196905 Eh     change       -0.1954067E-06 Eh
 * total energy  :  -114.2196908 Eh     change       -0.2530671E-06 Eh
 * total energy  :  -114.2196910 Eh     change       -0.2509970E-06 Eh
 * total energy  :  -114.2196912 Eh     change       -0.1590552E-06 Eh
 * total energy  :  -114.2196913 Eh     change       -0.9789221E-07 Eh
   *** GEOMETRY OPTIMIZATION CONVERGED AFTER 17 ITERATIONS ***

 final structure:
================
73
 xtb: 6.7.1 (edcfbbe)
C          -10.18786681420209       -1.16677238499884       -0.10470836323108
C           -9.51308667366695       -0.87582976916794       -1.27855429852489
C           -8.15227735613358       -0.62937459758193       -1.25500745454410
C           -7.44900449164208       -0.67617981955083       -0.05538864281096
C           -5.99366052884266       -0.41560839451061       -0.02954064612524
C           -5.10137775590250       -1.46763473972024        0.21987355294053
C           -5.55403722995160       -2.79791019173546        0.42372467034913
C           -4.68119027738086       -3.80758713090457        0.68826586788537
C           -3.29853423875935       -3.54823890234011        0.77118130510780
C           -2.82189742321323       -2.29128451165797        0.56100809356078
C           -3.69513542668612       -1.21326370766580        0.25869562209096
C           -3.21477927113807        0.08172882445223        0.01841308411786
C           -1.76046137178369        0.34191163101362        0.04341336255134
C           -1.19451960044682        1.10098593614766        1.06371188642271
C            0.16549321631250        1.33850319837391        1.09531671050800
C            0.98523912534596        0.83131724085182        0.09138414556381
N            2.36561916577902        1.07803475850979        0.11564186581391
C            2.96083413075286        2.31624281079839        0.25509355487809
C            2.38052451597942        3.57201370841780        0.36040639232158
C            3.22160227507385        4.66305058577315        0.46545538986583
C            4.60787976042692        4.51885714387985        0.45834262851557
C            5.19289852819084        3.27566680676458        0.33071155996121
C            4.36617567007190        2.16443998873099        0.22370822267551
C            4.61572439801893        0.76355821463687        0.06211695145534
C            5.75876289148557       -0.02019001455703       -0.02308438278174
S            7.41395524547483        0.53088652610317        0.02443398694778
C            7.98884660141244       -1.11415126017808       -0.14587769953061
C            9.31555751384314       -1.50595009192533       -0.19481831345817
C            9.59982165382589       -2.85100383464050       -0.33291989473655
C            8.57397899470504       -3.78708961576973       -0.42037591900005
C            7.25250986224437       -3.39400753701582       -0.37130232175083
C            6.93913470323694       -2.04451542615959       -0.23250314982704
C            5.64818096685866       -1.41231667011286       -0.15973503144483
C            4.38458111807523       -2.01299441021772       -0.19527681857561
C            3.23665463313921       -1.25773520425442       -0.11496039479845
C            3.35542906565918        0.12679456460442       -0.00332085406469
C            0.42529930252791        0.07926377321636       -0.93728900162434
C           -0.93319902763349       -0.16804545824928       -0.95307985250218
C           -4.10600130301834        1.13121361616350       -0.24563776306680
C           -3.65098875662932        2.44672862564115       -0.52572506921341
C           -4.52653590039247        3.46160868977895       -0.75960543572584
C           -5.91531974351134        3.22512078374595       -0.72391998231857
C           -6.39236870266162        1.97402499622505       -0.48209094160492
C           -5.51366412081563        0.88200861371375       -0.25522942075771
C           -8.13369624746214       -0.97160822353452        1.11922906939374
C           -9.49543992635701       -1.21283446470856        1.09373852512597
H          -11.25080521745432       -1.35716085446157       -0.12388476705285
H          -10.04896876988656       -0.84009445703004       -2.21595518219354
H           -7.62270272993588       -0.40409259791981       -2.16983326125221
H           -6.61382819916151       -2.99603639023570        0.36241205851135
H           -5.04083089115708       -4.81456881379745        0.84094133938314
H           -2.62116924252820       -4.35780108488680        1.00063298356513
H           -1.76213413717543       -2.09363110467020        0.62593227172798
H           -1.82882215903422        1.49340989073322        1.84524717757161
H            0.60213549227064        1.90594370089437        1.90353416934892
H            1.30814826925319        3.69643981333146        0.35026535845831
H            2.79442566084820        5.65130101801053        0.55177238419114
H            5.22949973800900        5.39732982932395        0.54548113313583
H            6.26585168185974        3.15968565667800        0.30926470116456
H           10.10385102511265       -0.77221515537872       -0.12617735791629
H           10.62805234690864       -3.17767850184634       -0.37337257076272
H            8.81749146383510       -4.83370583656873       -0.52806296372656
H            6.46047492415150       -4.12452502304805       -0.43989271231596
H            4.31608724868426       -3.08641205050228       -0.28311206544792
H            2.26590864189664       -1.72887852989551       -0.12602954714829
H            1.05772337473124       -0.29667566623217       -1.72767963444427
H           -1.36611799422756       -0.75027346498558       -1.75355449894794
H           -2.58689065380082        2.62904675466088       -0.55435048249705
H           -4.16455320159813        4.45696219217690       -0.97187557311424
H           -6.59642251039998        4.04584459482417       -0.89467689902583
H           -7.45654131262013        1.79214010432702       -0.45704629835898
H           -7.59116948295644       -1.00488482190339        2.05340789360904
H          -10.01795575243346       -1.43817434248352        2.01208101760224

          :  Hamiltonian                  GFN2-xTB          :
         :: gradient norm              0.000034791579 Eh/a0 ::
         :: HOMO-LUMO gap              2.082096757605 eV    ::
         :: SCC energy              -116.393447210006 Eh    ::
         :: -> dispersion             -0.108333010519 Eh    ::
         :: repulsion energy           2.173755944181 Eh    ::

    * Orbital Energies and Occupations

         #    Occupation            Energy/Eh            Energy/eV
      -------------------------------------------------------------
         1        2.0000           -0.7189538             -19.5637
       ...           ...                  ...                  ...
        95        2.0000           -0.4162353             -11.3263
        96        2.0000           -0.4153152             -11.3013
        97        2.0000           -0.4087930             -11.1238
        98        2.0000           -0.4083082             -11.1106
        99        2.0000           -0.4067300             -11.0677
       100        2.0000           -0.4032574             -10.9732
       101        2.0000           -0.4011816             -10.9167
       102        2.0000           -0.3989135             -10.8550
       103        2.0000           -0.3961115             -10.7787
       104        2.0000           -0.3860661             -10.5054
       105        2.0000           -0.3642717              -9.9123
       106        2.0000           -0.3623984              -9.8614
       107        2.0000           -0.3588424              -9.7646 (HOMO)
       108                         -0.2823268              -7.6825 (LUMO)
       109                         -0.2513720              -6.8402
       110                         -0.2448387              -6.6624
       111                         -0.2355033              -6.4084
       112                         -0.2350970              -6.3973
       113                         -0.2328787              -6.3370
       114                         -0.2261860              -6.1548
       115                         -0.2257653              -6.1434
       116                         -0.2243112              -6.1038
       117                         -0.2219948              -6.0408
       118                         -0.2119294              -5.7669
       ...                                ...                  ...
       216                          0.7544736              20.5303
      -------------------------------------------------------------
                  HL-Gap            0.0765156 Eh            2.0821 eV

     #   Z          covCN         q      C6AA      α(0)
     1   6 C        2.920    -0.031    28.784     8.798
     2   6 C        2.919    -0.030    28.739     8.791
     3   6 C        2.924    -0.032    28.798     8.800
     4   6 C        2.977     0.016    27.655     8.626
     5   6 C        2.977    -0.006    28.155     8.704
     6   6 C        2.984     0.006    27.871     8.660
     7   6 C        2.917    -0.034    28.847     8.807
     8   6 C        2.914    -0.030    28.751     8.793
     9   6 C        2.914    -0.030    28.742     8.791
    10   6 C        2.917    -0.035    28.870     8.811
    11   6 C        2.984     0.006    27.876     8.661
    12   6 C        2.977    -0.008    28.203     8.711
    13   6 C        2.977     0.014    27.693     8.632
    14   6 C        2.924    -0.031    28.782     8.798
    15   6 C        2.921    -0.043    29.069     8.841
    16   6 C        2.913     0.062    26.619     8.460
    17   7 N        2.806    -0.041    22.023     6.970
    18   6 C        3.080     0.046    26.881     8.500
    19   6 C        2.910    -0.050    29.242     8.867
    20   6 C        2.924    -0.033    28.819     8.804
    21   6 C        2.921    -0.039    28.971     8.827
    22   6 C        2.912    -0.032    28.792     8.799
    23   6 C        3.068    -0.014    28.288     8.721
    24   6 C        3.087    -0.027    28.581     8.763
    25   6 C        2.996     0.035    27.207     8.556
    26  16 S        2.210    -0.094   144.967    20.265
    27   6 C        3.004     0.037    27.162     8.549
    28   6 C        2.936    -0.039    28.970     8.827
    29   6 C        2.923    -0.033    28.811     8.802
    30   6 C        2.918    -0.035    28.878     8.812
    31   6 C        2.918    -0.034    28.847     8.808
    32   6 C        3.108    -0.002    27.942     8.661
    33   6 C        3.103    -0.015    28.258     8.711
    34   6 C        2.920    -0.037    28.918     8.818
    35   6 C        2.909    -0.056    29.393     8.890
    36   6 C        3.075     0.046    26.900     8.504
    37   6 C        2.921    -0.043    29.075     8.842
    38   6 C        2.924    -0.031    28.784     8.798
    39   6 C        2.984     0.006    27.875     8.661
    40   6 C        2.917    -0.035    28.869     8.811
    41   6 C        2.914    -0.030    28.741     8.791
    42   6 C        2.914    -0.030    28.749     8.792
    43   6 C        2.917    -0.034    28.847     8.807
    44   6 C        2.984     0.006    27.871     8.660
    45   6 C        2.924    -0.032    28.798     8.800
    46   6 C        2.919    -0.030    28.740     8.791
    47   1 H        0.926     0.030     2.591     2.517
    48   1 H        0.926     0.030     2.584     2.514
    49   1 H        0.926     0.030     2.592     2.517
    50   1 H        0.926     0.032     2.553     2.499
    51   1 H        0.926     0.029     2.596     2.520
    52   1 H        0.926     0.029     2.601     2.522
    53   1 H        0.926     0.029     2.599     2.521
    54   1 H        0.926     0.037     2.484     2.465
    55   1 H        0.926     0.042     2.427     2.436
    56   1 H        0.926     0.027     2.624     2.533
    57   1 H        0.926     0.030     2.586     2.515
    58   1 H        0.926     0.030     2.584     2.514
    59   1 H        0.926     0.040     2.453     2.449
    60   1 H        0.926     0.037     2.483     2.464
    61   1 H        0.926     0.033     2.539     2.492
    62   1 H        0.926     0.031     2.567     2.505
    63   1 H        0.926     0.033     2.547     2.496
    64   1 H        0.926     0.035     2.513     2.479
    65   1 H        0.926     0.031     2.575     2.509
    66   1 H        0.926     0.041     2.436     2.441
    67   1 H        0.926     0.037     2.487     2.466
    68   1 H        0.926     0.029     2.595     2.519
    69   1 H        0.926     0.029     2.598     2.520
    70   1 H        0.926     0.029     2.595     2.519
    71   1 H        0.926     0.032     2.553     2.499
    72   1 H        0.926     0.030     2.592     2.517
    73   1 H        0.926     0.030     2.584     2.514

molecular dipole:
                 x           y           z       tot (Debye)
 q only:       -1.017      -0.171      -0.012
   full:       -1.169      -0.419      -0.036       3.157

 projected vibrational frequencies (cm⁻¹)
eigval :       -0.00     0.00     0.00     0.00     0.00     0.00
eigval :        9.83    12.42    14.43    27.65    34.81    45.88
eigval :       49.89    62.09    69.80    73.32    80.40    86.55
eigval :      101.05   112.34   117.31   127.26   140.99   173.22
eigval :      187.40   198.96   210.37   214.21   215.88   227.95
eigval :      240.85   248.34   265.16   282.88   319.72   347.31
eigval :      356.09   369.13   380.63   384.11   387.12   394.42
eigval :      399.77   406.96   408.47   418.80   438.96   442.01
eigval :      447.75   458.83   461.02   472.18   481.77   490.66
eigval :      495.89   506.70   513.33   544.39   566.92   578.11
eigval :      583.44   585.57   588.68   594.15   594.51   604.86
eigval :      610.08   620.44   635.07   651.38   662.57   665.73
eigval :      674.52   683.02   687.44   693.29   698.58   703.14
eigval :      706.33   730.11   739.26   759.00   771.99   774.49
eigval :      775.80   775.98   780.23   816.58   824.44   838.04
eigval :      869.48   870.56   874.09   874.94   880.75   881.93
eigval :      895.95   897.49   901.86   904.09   904.40   904.74
eigval :      911.80   917.88   918.39   921.30   921.40   925.40
eigval :      926.46   927.87   928.40   931.36   932.52   933.82
eigval :      935.38   970.90   996.14  1006.20  1031.70  1049.27
eigval :     1072.73  1077.38  1081.56  1082.25  1083.38  1116.20
eigval :     1118.40  1127.88  1132.85  1135.24  1146.01  1151.46
eigval :     1162.04  1178.40  1180.51  1181.42  1181.95  1184.52
eigval :     1186.36  1195.66  1199.02  1214.67  1222.28  1228.80
eigval :     1232.82  1245.38  1258.68  1262.58  1266.63  1268.83
eigval :     1281.14  1297.72  1309.49  1312.18  1316.29  1325.32
eigval :     1340.85  1350.23  1352.99  1362.33  1375.32  1382.79
eigval :     1385.09  1402.58  1404.87  1417.40  1420.22  1426.73
eigval :     1427.92  1430.41  1444.41  1452.11  1461.52  1470.98
eigval :     1485.22  1490.34  1500.95  1527.20  1530.94  1542.85
eigval :     1555.77  1562.78  1569.77  1575.79  1580.38  1586.38
eigval :     1593.67  1596.63  1599.56  1608.70  1611.21  1622.96
eigval :     3071.45  3072.25  3073.95  3074.18  3077.36  3078.12
eigval :     3079.45  3080.04  3080.45  3080.72  3082.22  3084.36
eigval :     3084.43  3084.61  3087.73  3089.62  3090.13  3091.00
eigval :     3092.34  3092.40  3093.60  3094.19  3094.55  3095.34
eigval :     3098.23  3099.11  3099.93

   temp. (K)  partition function   enthalpy   heat capacity  entropy
                                   cal/mol     cal/K/mol   cal/K/mol   J/K/mol
 298.15  VIB  0.319E+16            20372.860    132.382    125.882
         ROT  0.913E+08              888.752      2.981     39.407
         INT  0.291E+24            21261.613    135.363    165.289
         TR   0.143E+29             1481.254      4.968     45.047
         TOT                       22742.8665   140.3311   210.3364   880.0477

       T/K    H(0)-H(T)+PV         H(T)/Eh          T*S/Eh         G(T)/Eh
   ------------------------------------------------------------------------
    298.15    0.362431E-01    0.590902E+00    0.999376E-01    0.490964E+00
   ------------------------------------------------------------------------

         :::::::::::::::::::::::::::::::::::::::::::::::::::::
         ::                  THERMODYNAMIC                  ::
         :::::::::::::::::::::::::::::::::::::::::::::::::::::
         :: total free energy        -113.728726926844 Eh   ::
         ::.................................................::
         :: total energy             -114.219691265818 Eh   ::
         :: zero point energy           0.554658904692 Eh   ::
         :: G(RRHO) w/o ZPVE           -0.063694565719 Eh   ::
         :: G(RRHO) contrib.            0.490964338973 Eh   ::
         :::::::::::::::::::::::::::::::::::::::::::::::::::::

           -------------------------------------------------
          | TOTAL ENERGY             -114.219691265818 Eh   |
          | TOTAL ENTHALPY           -113.628789296425 Eh   |
          | TOTAL FREE ENERGY        -113.728726926844 Eh   |
          | GRADIENT NORM               0.000034766335 Eh/α |
          | HOMO-LUMO GAP               2.082096666677 eV   |
           -------------------------------------------------

 * finished run on 2025/08/29 at 11:27:08.149
