   * xtb version 6.7.1 (edcfbbe) compiled by 'albert@albert-system' on 2024-07-22

   ID    Z sym.   atoms
    1    6 C      1-16, 18-25, 27-46
    2    7 N      17
    3   16 S      26
    4    1 H      47-73

          program call               : xtb data2507/gas/ATDBT/ATDBT_gas_T1_crest.xyz --gfn 2 --spinpol --tblite --uhf 2 --ohess vtight --parallel 40 --molden --ceasefiles --namespace data2507/gas/ATDBT/ATDBT_gas_T1_finalOpt
 * total energy  :  -114.1562734 Eh     change       -0.1796167E-07 Eh
 * total energy  :  -114.1563156 Eh     change       -0.4215867E-04 Eh
 * total energy  :  -114.1563307 Eh     change       -0.1505947E-04 Eh
 * total energy  :  -114.1563378 Eh     change       -0.7118466E-05 Eh
 * total energy  :  -114.1563477 Eh     change       -0.9921090E-05 Eh
 * total energy  :  -114.1563540 Eh     change       -0.6329166E-05 Eh
 * total energy  :  -114.1563591 Eh     change       -0.5065166E-05 Eh
 * total energy  :  -114.1563624 Eh     change       -0.3322153E-05 Eh
 * total energy  :  -114.1563648 Eh     change       -0.2379518E-05 Eh
 * total energy  :  -114.1563667 Eh     change       -0.1914385E-05 Eh
 * total energy  :  -114.1563872 Eh     change       -0.4727964E-06 Eh
 * total energy  :  -114.1563877 Eh     change       -0.5234843E-06 Eh
 * total energy  :  -114.1563882 Eh     change       -0.4364383E-06 Eh
 * total energy  :  -114.1563885 Eh     change       -0.3836299E-06 Eh
 * total energy  :  -114.1563889 Eh     change       -0.3288813E-06 Eh
 * total energy  :  -114.1563892 Eh     change       -0.3324521E-06 Eh
 * total energy  :  -114.1563895 Eh     change       -0.2726835E-06 Eh
 * total energy  :  -114.1563897 Eh     change       -0.2675558E-06 Eh
 * total energy  :  -114.1563898 Eh     change       -0.8746781E-07 Eh
   *** GEOMETRY OPTIMIZATION CONVERGED AFTER 38 ITERATIONS ***

 final structure:
================
73
 xtb: 6.7.1 (edcfbbe)
C          -10.19184167680216       -1.19152627243328        0.02163219180812
C           -9.62596927351353       -0.45399290002981       -1.00595537349416
C           -8.26819225133573       -0.19937079317342       -1.01508867436097
C           -7.44466123860991       -0.68834875362381        0.00136219897759
C           -6.00451656004724       -0.42481222631273       -0.00759531452561
C           -5.08402513479670       -1.51785278964958       -0.01163375548901
C           -5.52056266173568       -2.84293450307072       -0.08136238090035
C           -4.62614193243387       -3.90863226812575        0.00100123520529
C           -3.28180104451379       -3.66183973160261        0.16626517610610
C           -2.81505876173223       -2.34796942867466        0.18711211363302
C           -3.68169291842226       -1.26304522073464        0.04348290011510
C           -3.20317529117081        0.08553601609532       -0.01108366669514
C           -1.76983224762286        0.34729459131543       -0.00579490387787
C           -1.19748022589759        1.20724757350190        0.93923972854435
C            0.15929503892912        1.44502146510009        0.95689120151715
C            0.99001314567746        0.84433475673626        0.01222226545950
N            2.36800999152848        1.09081789683314        0.02325057667518
C            2.96456386727042        2.33581080616323        0.07045014872730
C            2.38574123111527        3.59673107146458        0.07073075056193
C            3.22801236207726        4.69186178013097        0.09476896022784
C            4.61389170008160        4.54594529380193        0.10908691105378
C            5.19778264664701        3.29554695155444        0.08382400502600
C            4.36991401508203        2.18070318088759        0.05966323062149
C            4.61851843640146        0.77091199885275        0.00894032880226
C            5.76113551308654       -0.01738199977945       -0.00533061427296
S            7.41638893791706        0.53460169721163        0.01168288048903
C            7.99049757146308       -1.11922479550404       -0.02235105469673
C            9.31706319374520       -1.51439814190403       -0.02897813815035
C            9.60072725156921       -2.86639373406455       -0.05723742355194
C            8.57450382559857       -3.80595461184937       -0.07844907467825
C            7.25316530098384       -3.40953527798165       -0.07169484429692
C            6.94036978411580       -2.05298340565405       -0.04325935732709
C            5.64974599296250       -1.41638356150316       -0.03145905848378
C            4.38570436300752       -2.01700066589111       -0.02725537084786
C            3.23811424254204       -1.25687843148722       -0.01568127833428
C            3.35766420792927        0.13217719181428       -0.01522876533514
C            0.43247245992136       -0.00371467244128       -0.94349013340137
C           -0.92211215594746       -0.25435005360172       -0.94358899354636
C           -4.12694439616936        1.17825170260263       -0.06840848110558
C           -3.69798232259093        2.49834835126135       -0.21656334925469
C           -4.59765267197290        3.56363767364819       -0.19867882823722
C           -5.94253075150175        3.32146457659543       -0.03077832902085
C           -6.40414842210546        2.00936161195152        0.05750953902709
C           -5.52900686681492        0.92266549511864       -0.01005054795453
C           -8.02692624160229       -1.43520613927174        1.02794649003464
C           -9.38672121091358       -1.67828129030577        1.03900020813007
H          -11.25403748072733       -1.38593031314445        0.02953633332803
H          -10.24700947587751       -0.07699900446838       -1.80572337274334
H           -7.82655608307886        0.36145042064897       -1.82646775698671
H           -6.57283579608986       -3.04891462769339       -0.20375677703945
H           -4.99766970919386       -4.92116375840266       -0.05039247810603
H           -2.58113007573286       -4.47698620455732        0.26932740934772
H           -1.75939418778153       -2.17173058457963        0.32576271438916
H           -1.82899891623783        1.65499724197332        1.69251502311936
H            0.59115832031124        2.07948659630270        1.71654296573188
H            1.31390815872289        3.72150033198700        0.04122433582550
H            2.80190882581490        5.68425354012312        0.09859442291596
H            5.23655964125758        5.42768862516183        0.13055937630391
H            6.27063770747475        3.17709572586027        0.07800658706584
H           10.10566643387369       -0.77801002706486       -0.01247737560819
H           10.62883662569972       -3.19581393152917       -0.06297355522331
H            8.81765534921705       -4.85791161404573       -0.10048987726081
H            6.46083886174005       -4.14271507654447       -0.08840776210250
H            4.31639636747568       -3.09390819673103       -0.02811448735721
H            2.26721007693967       -1.72698030784888        0.00656111534594
H            1.06773087659375       -0.44481909369522       -1.69726540467624
H           -1.34835812371456       -0.89129332653389       -1.70475351753825
H           -2.64788061561538        2.70458131607680       -0.35629766231904
H           -4.22925182832446        4.57298322422739       -0.30580008257831
H           -6.64689548612720        4.13837150172623        0.01851471150796
H           -7.46126947407675        1.83210062459097        0.18291837672427
H           -7.40340643096905       -1.80166117146820        1.83097240918059
H           -9.82230014797323       -2.24898311014328        1.84646900935017

 projected vibrational frequencies (cm⁻¹)
eigval :       -0.00    -0.00    -0.00    -0.00     0.00     0.00
eigval :       10.58    13.43    15.63    26.59    47.20    47.61
eigval :       54.13    58.56    72.14    77.93    83.53    90.57
eigval :      102.69   116.70   126.35   134.59   143.91   174.80
eigval :      194.09   195.59   210.55   215.24   227.48   233.10
eigval :      248.98   249.78   266.26   283.05   319.54   344.35
eigval :      352.13   366.25   370.75   383.90   385.64   389.84
eigval :      393.84   401.54   407.11   410.79   419.85   425.12
eigval :      441.80   460.85   470.31   471.40   481.39   490.44
eigval :      495.35   505.70   510.67   545.28   564.85   566.54
eigval :      574.94   579.50   583.71   587.72   594.06   597.02
eigval :      605.30   617.02   622.39   648.76   661.40   663.71
eigval :      672.52   673.59   681.05   687.67   693.55   703.01
eigval :      706.04   715.03   728.24   747.33   755.51   760.90
eigval :      771.98   775.61   778.54   816.61   825.48   837.84
eigval :      843.56   846.69   869.44   869.90   876.46   882.11
eigval :      887.47   891.43   893.00   898.51   900.15   904.09
eigval :      904.61   904.88   906.10   908.15   909.44   921.42
eigval :      922.14   925.30   930.82   931.53   933.66   939.47
eigval :      945.49   968.95   992.80  1004.53  1028.81  1049.35
eigval :     1073.06  1077.30  1082.98  1101.46  1104.19  1113.55
eigval :     1115.97  1120.01  1125.90  1127.96  1135.40  1151.01
eigval :     1161.64  1177.71  1179.66  1180.75  1181.26  1182.18
eigval :     1182.41  1186.79  1190.75  1199.57  1205.46  1231.50
eigval :     1232.00  1243.80  1253.98  1256.85  1266.35  1268.60
eigval :     1280.29  1294.37  1296.61  1298.06  1311.08  1313.45
eigval :     1316.14  1335.28  1340.58  1355.12  1362.84  1365.78
eigval :     1374.28  1376.71  1382.18  1402.09  1408.61  1409.25
eigval :     1415.10  1424.78  1425.73  1427.51  1449.82  1461.15
eigval :     1462.29  1474.24  1483.65  1485.26  1485.63  1518.24
eigval :     1530.81  1534.29  1557.53  1558.11  1565.19  1569.23
eigval :     1574.01  1576.21  1585.80  1586.36  1592.06  1608.58
eigval :     3070.37  3071.27  3076.65  3076.92  3078.20  3078.34
eigval :     3079.88  3079.93  3081.30  3083.35  3084.84  3085.24
eigval :     3085.30  3085.55  3088.85  3091.48  3091.99  3092.30
eigval :     3092.63  3093.03  3094.57  3095.19  3098.14  3098.52
eigval :     3098.92  3099.36  3100.51

   temp. (K)  partition function   enthalpy   heat capacity  entropy
                                   cal/mol     cal/K/mol   cal/K/mol   J/K/mol
 298.15  VIB  0.146E+16            20404.993    133.702    125.444
         ROT  0.917E+08              888.752      2.981     39.415
         INT  0.134E+24            21293.746    136.683    164.859
         TR   0.143E+29             1481.254      4.968     45.047
         TOT                       22774.9995   141.6515   209.9061   878.2470

       T/K    H(0)-H(T)+PV         H(T)/Eh          T*S/Eh         G(T)/Eh
   ------------------------------------------------------------------------
    298.15    0.362943E-01    0.588498E+00    0.997332E-01    0.488765E+00
   ------------------------------------------------------------------------

         :::::::::::::::::::::::::::::::::::::::::::::::::::::
         ::                  THERMODYNAMIC                  ::
         :::::::::::::::::::::::::::::::::::::::::::::::::::::
         :: total free energy        -113.667624911537 Eh   ::
         ::.................................................::
         :: total energy             -114.156389878198 Eh   ::
         :: zero point energy           0.552203845729 Eh   ::
         :: G(RRHO) w/o ZPVE           -0.063438879068 Eh   ::
         :: G(RRHO) contrib.            0.488764966661 Eh   ::
         :::::::::::::::::::::::::::::::::::::::::::::::::::::

           -------------------------------------------------
          | TOTAL ENERGY             -114.156389878198 Eh   |
          | TOTAL ENTHALPY           -113.567891760558 Eh   |
          | TOTAL FREE ENERGY        -113.667624911537 Eh   |
          | GRADIENT NORM               0.000053640486 Eh/α |
           -------------------------------------------------

 * finished run on 2025/08/29 at 11:30:41.341
