   * xtb version 6.7.1 (edcfbbe) compiled by 'albert@albert-system' on 2024-07-22

   ID    Z sym.   atoms
    1    6 C      1-16, 18-25, 27-46
    2    7 N      17
    3   16 S      26
    4    1 H      47-73

          program call               : xtb data2507/gas/ATDBT/ATDBT_gas_S0_finalOpt.xtbopt.xyz --gfn 2 --spinpol --tblite --uhf 2 --ohess vtight --parallel 40 --molden --ceasefiles --namespace data2507/gas/ATDBT/ATDBT_gas_T1_preOpt
 * total energy  :  -114.1470546 Eh     change       -0.2542228E-07 Eh
 * total energy  :  -114.1534031 Eh     change       -0.6348565E-02 Eh
 * total energy  :  -114.1548667 Eh     change       -0.1463594E-02 Eh
 * total energy  :  -114.1549913 Eh     change       -0.1246191E-03 Eh
 * total energy  :  -114.1551226 Eh     change       -0.1312497E-03 Eh
 * total energy  :  -114.1552052 Eh     change       -0.8255460E-04 Eh
 * total energy  :  -114.1553230 Eh     change       -0.1178978E-03 Eh
 * total energy  :  -114.1554374 Eh     change       -0.1143383E-03 Eh
 * total energy  :  -114.1555244 Eh     change       -0.8703591E-04 Eh
 * total energy  :  -114.1555808 Eh     change       -0.5634704E-04 Eh
 * total energy  :  -114.1563832 Eh     change       -0.5341668E-06 Eh
 * total energy  :  -114.1563838 Eh     change       -0.6304616E-06 Eh
 * total energy  :  -114.1563845 Eh     change       -0.6252591E-06 Eh
 * total energy  :  -114.1563850 Eh     change       -0.5895711E-06 Eh
 * total energy  :  -114.1563861 Eh     change       -0.1027575E-05 Eh
 * total energy  :  -114.1563874 Eh     change       -0.1305957E-05 Eh
 * total energy  :  -114.1563893 Eh     change       -0.1891193E-05 Eh
 * total energy  :  -114.1563907 Eh     change       -0.1432660E-05 Eh
 * total energy  :  -114.1563908 Eh     change       -0.8756220E-07 Eh
   *** GEOMETRY OPTIMIZATION CONVERGED AFTER 57 ITERATIONS ***

 final structure:
================
73
 xtb: 6.7.1 (edcfbbe)
C          -10.19661848940482       -1.16735423877399       -0.01298988664102
C           -9.60806346192067       -0.47808416533118       -1.06116092069997
C           -8.24939732791944       -0.22843339064864       -1.05510102264256
C           -7.44752758014445       -0.67440662642091       -0.00214141355260
C           -6.00639778109329       -0.41650487046145        0.00320362262485
C           -5.09012278576891       -1.51135324798187        0.06436812515765
C           -5.52974437995462       -2.83718151905201        0.05220112729794
C           -4.63964614632615       -3.89987419930988        0.19736612658241
C           -3.29668407874726       -3.64900295771129        0.36762048967764
C           -2.82606344342795       -2.33684851758257        0.33090499415667
C           -3.68777850395593       -1.25805032024442        0.12518685112601
C           -3.20376393898783        0.08469316811101        0.01177178669042
C           -1.76912431313671        0.34027359093627        0.01187786377260
C           -1.19508074892969        1.23776833326348        0.91999215372608
C            0.16232569449829        1.47308207995492        0.92763330743520
C            0.99139416679955        0.83288704416365        0.00779660563980
N            2.36897271267027        1.08119951186591        0.00362880517738
C            2.96359741201227        2.32817297752945       -0.00313344833837
C            2.38271314511358        3.58748704581169       -0.04423728821099
C            3.22321322376067        4.68393632303523       -0.07046381347075
C            4.60940429847878        4.54066784918224       -0.06579014315931
C            5.19514181332336        3.29098272042287       -0.05072383868344
C            4.36903731214344        2.17489289770375       -0.02376035408567
C            4.61989815251305        0.76459550325984       -0.02485882504309
C            5.76393998413911       -0.02175370343066       -0.02485102938849
S            7.41811994271939        0.53314065375643       -0.05071927016013
C            7.99519822602489       -1.11991152776098       -0.03327526736671
C            9.32234396468865       -1.51301817596188       -0.04507725555879
C            9.60836750269477       -2.86471786424505       -0.02874228188065
C            8.58391695711138       -3.80604039815862       -0.00094140992771
C            7.26199422579486       -3.41168725789665        0.01080270138038
C            6.94685555192557       -2.05548209189253       -0.00525631242617
C            5.65520505346595       -1.42094053677770        0.00158506563200
C            4.39262883272863       -2.02305851292395        0.04486897066176
C            3.24366793692166       -1.26493700985956        0.04304876392168
C            3.36016165630378        0.12339266732848       -0.01021803762814
C            0.43212528219369       -0.05529359258179       -0.90982369927654
C           -0.92264014187202       -0.30422594979119       -0.89798928590576
C           -4.12233014428693        1.17679913063031       -0.10485277440624
C           -3.68684907629050        2.48772272829385       -0.30616029822514
C           -4.58300291412515        3.55530099475529       -0.34774792489922
C           -5.93076750857881        3.32476729551704       -0.18689910344079
C           -6.39806179662933        2.01923234336967       -0.04592091591101
C           -5.52591231229922        0.92812578922574       -0.05313564463873
C           -8.05253838381845       -1.37253915428645        1.04532157002575
C           -9.41330264176587       -1.61053144015962        1.04064857138744
H          -11.25952541225624       -1.35794942048689       -0.01718730361732
H          -10.21201645879049       -0.13501371892112       -1.88879197507899
H           -7.78986388143211        0.29448743617207       -1.88171349245442
H           -6.58085578546701       -3.04641373528852       -0.07447294960930
H           -5.01368928907168       -4.91276057424261        0.18983321468868
H           -2.60000492608955       -4.46009471974173        0.51858247541514
H           -1.77152980884442       -2.15642926353861        0.47304057199245
H           -1.82577548371426        1.71878747911922        1.65319513561381
H            0.59555442342861        2.13764399794284        1.66026673573468
H            1.31048825856959        3.70997238025833       -0.06725199365598
H            2.79528325886310        5.67513362742298       -0.09919868448918
H            5.23067256208986        5.42345907245733       -0.08424712365064
H            6.26806558958361        3.17381698816436       -0.06424108106658
H           10.10959228351758       -0.77531516865368       -0.06675281036409
H           10.63696477084828       -3.19253845281039       -0.03782201012640
H            8.82891043336782       -4.85772472428622        0.01140051106424
H            6.47100903916440       -4.14619206295055        0.03209971572749
H            4.32558694064999       -3.09936855572216        0.08477500825149
H            2.27425256891538       -1.73568356341594        0.09551647732436
H            1.06601566551795       -0.52878149251233       -1.64482343709638
H           -1.35019324387785       -0.97406595628057       -1.62960643023233
H           -2.63433654288899        2.68444499289499       -0.44128373392144
H           -4.20975862306126        4.55773583995457       -0.49536472448157
H           -6.63289829863525        4.14506324615753       -0.18371710167798
H           -7.45736187649680        1.85082885968995        0.07320919318397
H           -7.44626931706615       -1.70442936037227        1.87610128957421
H           -9.86674864653377       -2.14317865506758        1.86411998777218

 projected vibrational frequencies (cm⁻¹)
eigval :       -0.00    -0.00    -0.00     0.00     0.00     0.00
eigval :       10.51    13.41    15.68    26.73    47.26    47.92
eigval :       54.42    58.57    72.19    78.09    83.77    90.61
eigval :      102.33   116.73   126.37   134.39   144.05   174.66
eigval :      194.08   195.72   210.61   215.36   227.73   233.08
eigval :      248.97   249.80   266.09   283.23   319.61   344.45
eigval :      352.09   366.22   370.82   383.96   385.73   389.81
eigval :      393.70   401.54   407.27   410.87   419.53   425.16
eigval :      441.39   460.74   470.20   471.38   481.49   490.48
eigval :      495.38   505.89   510.73   545.38   564.83   566.57
eigval :      574.93   579.54   583.70   587.75   594.10   597.04
eigval :      605.26   617.01   622.41   648.58   661.32   663.74
eigval :      672.44   673.60   681.01   687.69   693.58   703.11
eigval :      706.04   714.98   728.13   747.30   755.48   760.94
eigval :      772.14   775.73   778.26   816.70   825.74   837.73
eigval :      843.64   846.67   869.59   870.04   876.65   882.31
eigval :      887.47   891.42   892.98   898.65   900.23   904.17
eigval :      904.77   904.98   906.17   908.15   909.36   921.59
eigval :      922.28   925.36   930.85   931.68   933.82   939.58
eigval :      945.23   968.99   992.67  1004.18  1028.33  1049.23
eigval :     1073.04  1077.22  1082.74  1100.76  1103.92  1113.59
eigval :     1115.88  1120.21  1126.12  1128.12  1135.59  1151.36
eigval :     1161.79  1178.30  1180.06  1180.64  1181.57  1182.55
eigval :     1182.73  1187.21  1192.07  1199.83  1205.76  1231.82
eigval :     1232.11  1244.08  1254.12  1256.98  1266.65  1268.83
eigval :     1280.57  1294.66  1296.74  1298.23  1311.09  1313.47
eigval :     1316.44  1335.53  1340.51  1355.23  1363.01  1365.95
eigval :     1374.44  1376.93  1382.25  1402.38  1408.82  1409.36
eigval :     1415.31  1425.12  1425.28  1427.66  1449.82  1461.35
eigval :     1462.67  1474.49  1483.77  1485.15  1485.90  1518.18
eigval :     1530.86  1534.47  1557.49  1558.18  1564.88  1569.36
eigval :     1574.06  1576.43  1585.75  1586.36  1592.03  1608.55
eigval :     3070.96  3071.63  3076.82  3077.14  3078.85  3078.95
eigval :     3080.38  3080.39  3081.93  3083.91  3085.32  3085.45
eigval :     3085.83  3085.89  3089.33  3092.25  3092.57  3092.75
eigval :     3093.34  3093.64  3094.76  3095.42  3098.53  3099.13
eigval :     3099.35  3099.86  3100.91

   temp. (K)  partition function   enthalpy   heat capacity  entropy
                                   cal/mol     cal/K/mol   cal/K/mol   J/K/mol
 298.15  VIB  0.144E+16            20403.014    133.711    125.435
         ROT  0.917E+08              888.752      2.981     39.414
         INT  0.132E+24            21291.766    136.692    164.850
         TR   0.143E+29             1481.254      4.968     45.047
         TOT                       22773.0198   141.6600   209.8967   878.2079

       T/K    H(0)-H(T)+PV         H(T)/Eh          T*S/Eh         G(T)/Eh
   ------------------------------------------------------------------------
    298.15    0.362911E-01    0.588552E+00    0.997287E-01    0.488823E+00
   ------------------------------------------------------------------------

         :::::::::::::::::::::::::::::::::::::::::::::::::::::
         ::                  THERMODYNAMIC                  ::
         :::::::::::::::::::::::::::::::::::::::::::::::::::::
         :: total free energy        -113.667567927220 Eh   ::
         ::.................................................::
         :: total energy             -114.156390790631 Eh   ::
         :: zero point energy           0.552260451970 Eh   ::
         :: G(RRHO) w/o ZPVE           -0.063437588559 Eh   ::
         :: G(RRHO) contrib.            0.488822863411 Eh   ::
         :::::::::::::::::::::::::::::::::::::::::::::::::::::

           -------------------------------------------------
          | TOTAL ENERGY             -114.156390790631 Eh   |
          | TOTAL ENTHALPY           -113.567839221517 Eh   |
          | TOTAL FREE ENERGY        -113.667567927220 Eh   |
          | GRADIENT NORM               0.000047942182 Eh/α |
           -------------------------------------------------

 * finished run on 2025/08/29 at 11:27:16.841
