   * xtb version 6.7.1 (edcfbbe) compiled by 'albert@albert-system' on 2024-07-22

   ID    Z sym.   atoms
    1    6 C      1-16, 18-25, 27-46
    2    7 N      17
    3   16 S      26
    4    1 H      47-73

          program call               : xtb data2507/gas/ATDBT/ATDBT.xyz --gfn 2 --ohess vtight --parallel 40 --molden --ceasefiles --namespace data2507/gas/ATDBT/ATDBT_gas_S0_preOpt
          :  Hamiltonian                  GFN2-xTB          :
 * total energy  :  -114.1906669 Eh     change       -0.5724360E-08 Eh
 * total energy  :  -114.2102693 Eh     change       -0.1960242E-01 Eh
 * total energy  :  -114.2158362 Eh     change       -0.5566878E-02 Eh
 * total energy  :  -114.2169918 Eh     change       -0.1155594E-02 Eh
 * total energy  :  -114.2178940 Eh     change       -0.9021697E-03 Eh
 * total energy  :  -114.2183574 Eh     change       -0.4634689E-03 Eh
 * total energy  :  -114.2186706 Eh     change       -0.3131740E-03 Eh
 * total energy  :  -114.2188707 Eh     change       -0.2000447E-03 Eh
 * total energy  :  -114.2189595 Eh     change       -0.8881506E-04 Eh
 * total energy  :  -114.2190259 Eh     change       -0.6644241E-04 Eh
 * total energy  :  -114.2195647 Eh     change       -0.2099534E-05 Eh
 * total energy  :  -114.2195665 Eh     change       -0.1823524E-05 Eh
 * total energy  :  -114.2195681 Eh     change       -0.1554960E-05 Eh
 * total energy  :  -114.2195696 Eh     change       -0.1474905E-05 Eh
 * total energy  :  -114.2195710 Eh     change       -0.1441763E-05 Eh
 * total energy  :  -114.2195721 Eh     change       -0.1055615E-05 Eh
 * total energy  :  -114.2195728 Eh     change       -0.7011162E-06 Eh
 * total energy  :  -114.2195732 Eh     change       -0.4547354E-06 Eh
 * total energy  :  -114.2195732 Eh     change       -0.8028465E-08 Eh
   *** GEOMETRY OPTIMIZATION CONVERGED AFTER 68 ITERATIONS ***

 final structure:
================
73
 xtb: 6.7.1 (edcfbbe)
C           -9.65422748259613       -1.20623569000742       -0.31711616254246
C           -8.83721582563468       -1.46065170547401       -1.40596990702171
C           -7.48144266972081       -1.19647763240900       -1.33407463073458
C           -6.92599749089355       -0.67817226485639       -0.16848980152615
C           -5.47582537709818       -0.39914731749291       -0.09038170763393
C           -4.65134469980550       -1.21146242991597        0.70056457664957
C           -5.16597927416933       -2.32269553284646        1.41911238225178
C           -4.35469360614127       -3.11170303893421        2.17454087760051
C           -2.97281786026201       -2.84571648102033        2.24909973572517
C           -2.43725585833216       -1.79856454217851        1.56510820924912
C           -3.24907481529811       -0.94315559330092        0.77433703362201
C           -2.70638284220904        0.12827350176262        0.05173508493346
C           -1.25477869884295        0.39991671062531        0.12358325416407
C           -0.69018443170822        0.92969679498512        1.27997196781006
C            0.66712030885149        1.17417522739244        1.35403748882475
C            1.48571410925394        0.89508985337125        0.26379260489247
N            2.86505772038711        1.14039043833955        0.33597824126001
C            3.45390530994978        2.32955760720215        0.71734774000397
C            2.86651259262751        3.53623823206854        1.06894915490836
C            3.70185230414039        4.58981084596374        1.38673940416389
C            5.08893010106255        4.45760629401983        1.35069755298440
C            5.68072690214729        3.26710144665130        0.98114230438712
C            4.86001138050654        2.19408089450336        0.65735543937502
C            5.11658076026052        0.85348383893612        0.22387134384562
C            6.26318365490454        0.10631750134063       -0.01111634747233
S            7.91595931908482        0.64390978768348        0.14734298647204
C            8.49824797284157       -0.93417982003316       -0.33874614922868
C            9.82668786349957       -1.30422753494422       -0.45868459902137
C           10.11688253062153       -2.59571646453663       -0.85479994213026
C            9.09518773290026       -3.50060199560433       -1.12605851744478
C            7.77198317423334       -3.12924748448509       -1.00594956279537
C            7.45266788661427       -1.83367646625795       -0.60827543484168
C            6.15884848758488       -1.23269122785216       -0.41748320478740
C            4.89799467280130       -1.81987052225844       -0.57355033591318
C            3.74655448630250       -1.09980112954174       -0.34935564626552
C            3.85939812464824        0.23605534709441        0.03297447495914
C            0.92723639754560        0.37108516189716       -0.89826497015984
C           -0.43014195594714        0.12474597720945       -0.96308401587123
C           -3.52992946047410        0.94042268236482       -0.73967395770496
C           -3.01409005090384        2.04840582308342       -1.46238688401812
C           -3.82604420139483        2.83952851076565       -2.21479553809195
C           -5.20951410036953        2.57948888661158       -2.28143011868794
C           -5.74551283909445        1.53366208147957       -1.59559998445822
C           -4.93289578370738        0.67464456402400       -0.80965556110693
C           -7.75309000387710       -0.42723250649619        0.92171979883075
C           -9.10935074771186       -0.68803164104930        0.84581095588956
H          -10.71302834115322       -1.41131643007030       -0.37473187439400
H           -9.25771864899500       -1.86597131165240       -2.31484504044657
H           -6.84102305516412       -1.39613162562375       -2.18149265015828
H           -6.22216638692729       -2.53651867702365        1.34907063086196
H           -4.76135288361933       -3.95340372198341        2.71568171469338
H           -2.34189927069450       -3.48706080376831        2.84695723365670
H           -1.37551920942339       -1.60557035366376        1.60974234532172
H           -1.32454207523795        1.14636945713573        2.12719348766903
H            1.10278728081343        1.56828086260731        2.26003874317016
H            1.79332406647233        3.65338291587640        1.08454134742506
H            3.26945598465761        5.53920182420428        1.66646185066496
H            5.70582886921725        5.30530452894125        1.60872036829135
H            6.75428456019742        3.16354000055040        0.93750898979753
H           10.61183267768539       -0.59516159293558       -0.24595132568024
H           11.14657205265546       -2.90463663710964       -0.95442517868613
H            9.34332458151518       -4.50544992373849       -1.43432141666870
H            6.98309803620546       -3.83525078600950       -1.21788089485322
H            4.83445360177569       -2.85543090535659       -0.87055567313785
H            2.77762917761910       -1.56293506418021       -0.45557331724114
H            1.55997775800995        0.17084839577889       -1.75011753629594
H           -0.86192976279698       -0.28433416922734       -1.86495886780204
H           -1.95651499719687        2.25825868455399       -1.39838760444871
H           -3.41859857797002        3.67873139956205       -2.75934000112771
H           -5.84096348831217        3.22415555319991       -2.87503353135035
H           -6.80801911988981        1.34436231822704       -1.63377527810514
H           -7.32556809700033       -0.02083804000196        1.82735628090916
H           -9.74317844900010       -0.48685588617200        1.69724956459303

          :  Hamiltonian                  GFN2-xTB          :
         :: gradient norm              0.000061010115 Eh/a0 ::
         :: HOMO-LUMO gap              2.099895833380 eV    ::
         :: SCC energy              -116.393372464415 Eh    ::
         :: -> dispersion             -0.108118404110 Eh    ::
         :: repulsion energy           2.173799249520 Eh    ::

    * Orbital Energies and Occupations

         #    Occupation            Energy/Eh            Energy/eV
      -------------------------------------------------------------
         1        2.0000           -0.7188204             -19.5601
       ...           ...                  ...                  ...
        95        2.0000           -0.4158091             -11.3147
        96        2.0000           -0.4151696             -11.2973
        97        2.0000           -0.4090328             -11.1304
        98        2.0000           -0.4073194             -11.0837
        99        2.0000           -0.4066075             -11.0644
       100        2.0000           -0.4042241             -10.9995
       101        2.0000           -0.4012579             -10.9188
       102        2.0000           -0.3991625             -10.8618
       103        2.0000           -0.3959920             -10.7755
       104        2.0000           -0.3859096             -10.5011
       105        2.0000           -0.3640630              -9.9067
       106        2.0000           -0.3619492              -9.8491
       107        2.0000           -0.3592757              -9.7764 (HOMO)
       108                         -0.2821059              -7.6765 (LUMO)
       109                         -0.2512141              -6.8359
       110                         -0.2446819              -6.6581
       111                         -0.2356155              -6.4114
       112                         -0.2351694              -6.3993
       113                         -0.2329056              -6.3377
       114                         -0.2261708              -6.1544
       115                         -0.2257691              -6.1435
       116                         -0.2241868              -6.1004
       117                         -0.2220410              -6.0420
       118                         -0.2117521              -5.7621
       ...                                ...                  ...
       216                          0.7546276              20.5345
      -------------------------------------------------------------
                  HL-Gap            0.0771697 Eh            2.0999 eV

     #   Z          covCN         q      C6AA      α(0)
     1   6 C        2.920    -0.031    28.785     8.798
     2   6 C        2.919    -0.030    28.739     8.791
     3   6 C        2.924    -0.032    28.799     8.801
     4   6 C        2.977     0.016    27.654     8.626
     5   6 C        2.977    -0.006    28.154     8.704
     6   6 C        2.984     0.006    27.871     8.660
     7   6 C        2.917    -0.034    28.847     8.808
     8   6 C        2.914    -0.030    28.749     8.792
     9   6 C        2.914    -0.030    28.740     8.791
    10   6 C        2.917    -0.035    28.872     8.811
    11   6 C        2.984     0.006    27.876     8.661
    12   6 C        2.977    -0.008    28.202     8.711
    13   6 C        2.977     0.014    27.688     8.631
    14   6 C        2.924    -0.031    28.783     8.798
    15   6 C        2.921    -0.043    29.064     8.841
    16   6 C        2.913     0.062    26.620     8.460
    17   7 N        2.806    -0.041    22.030     6.971
    18   6 C        3.080     0.046    26.881     8.500
    19   6 C        2.910    -0.050    29.245     8.868
    20   6 C        2.924    -0.033    28.819     8.804
    21   6 C        2.921    -0.039    28.973     8.827
    22   6 C        2.912    -0.032    28.793     8.799
    23   6 C        3.068    -0.014    28.289     8.721
    24   6 C        3.087    -0.027    28.583     8.764
    25   6 C        2.996     0.035    27.208     8.556
    26  16 S        2.210    -0.094   144.972    20.265
    27   6 C        3.004     0.037    27.162     8.549
    28   6 C        2.936    -0.039    28.970     8.827
    29   6 C        2.923    -0.033    28.812     8.803
    30   6 C        2.918    -0.035    28.878     8.812
    31   6 C        2.918    -0.034    28.848     8.808
    32   6 C        3.108    -0.002    27.942     8.661
    33   6 C        3.103    -0.015    28.259     8.711
    34   6 C        2.920    -0.037    28.917     8.818
    35   6 C        2.909    -0.056    29.396     8.890
    36   6 C        3.075     0.046    26.900     8.504
    37   6 C        2.921    -0.043    29.069     8.841
    38   6 C        2.924    -0.032    28.786     8.799
    39   6 C        2.984     0.006    27.875     8.661
    40   6 C        2.917    -0.035    28.870     8.811
    41   6 C        2.914    -0.030    28.738     8.791
    42   6 C        2.914    -0.030    28.748     8.792
    43   6 C        2.917    -0.034    28.847     8.807
    44   6 C        2.984     0.006    27.871     8.660
    45   6 C        2.924    -0.032    28.799     8.801
    46   6 C        2.919    -0.030    28.739     8.791
    47   1 H        0.926     0.030     2.592     2.517
    48   1 H        0.926     0.030     2.584     2.514
    49   1 H        0.926     0.030     2.593     2.518
    50   1 H        0.926     0.032     2.552     2.498
    51   1 H        0.926     0.029     2.595     2.519
    52   1 H        0.926     0.029     2.598     2.520
    53   1 H        0.926     0.029     2.595     2.519
    54   1 H        0.926     0.037     2.486     2.466
    55   1 H        0.926     0.042     2.427     2.436
    56   1 H        0.926     0.028     2.622     2.532
    57   1 H        0.926     0.030     2.587     2.515
    58   1 H        0.926     0.030     2.585     2.514
    59   1 H        0.926     0.040     2.454     2.450
    60   1 H        0.926     0.037     2.483     2.464
    61   1 H        0.926     0.033     2.539     2.492
    62   1 H        0.926     0.031     2.567     2.506
    63   1 H        0.926     0.033     2.547     2.496
    64   1 H        0.926     0.035     2.514     2.479
    65   1 H        0.926     0.031     2.572     2.508
    66   1 H        0.926     0.041     2.436     2.441
    67   1 H        0.926     0.037     2.489     2.467
    68   1 H        0.926     0.030     2.593     2.518
    69   1 H        0.926     0.029     2.596     2.519
    70   1 H        0.926     0.029     2.595     2.519
    71   1 H        0.926     0.032     2.553     2.499
    72   1 H        0.926     0.030     2.592     2.518
    73   1 H        0.926     0.030     2.584     2.514

molecular dipole:
                 x           y           z       tot (Debye)
 q only:       -1.030      -0.176      -0.047
   full:       -1.180      -0.416      -0.120       3.195

 projected vibrational frequencies (cm⁻¹)
eigval :       -0.00    -0.00    -0.00     0.00     0.00     0.00
eigval :        8.68    11.72    14.66    28.75    34.78    42.90
eigval :       49.45    64.78    71.43    72.32    79.84    86.04
eigval :      100.26   107.82   117.45   127.02   140.68   176.73
eigval :      179.28   202.95   210.35   211.98   214.25   226.16
eigval :      239.11   253.16   264.67   282.79   318.48   344.93
eigval :      353.67   369.00   378.63   384.45   387.35   397.77
eigval :      398.89   406.82   408.40   423.27   435.10   439.41
eigval :      447.60   458.70   462.44   475.06   481.50   490.60
eigval :      495.88   506.14   511.36   544.04   566.93   577.63
eigval :      583.12   585.35   589.38   594.07   594.91   604.40
eigval :      611.23   620.92   634.51   650.56   662.52   665.43
eigval :      674.82   683.21   687.42   692.74   698.65   703.08
eigval :      706.39   730.28   739.56   758.50   771.99   774.52
eigval :      775.86   776.05   780.45   816.84   824.00   838.01
eigval :      869.49   870.91   874.44   875.42   880.64   881.52
eigval :      895.86   897.57   901.87   904.07   904.40   904.89
eigval :      911.71   917.99   918.49   921.00   921.36   925.05
eigval :      926.56   927.91   928.47   931.27   932.27   933.76
eigval :      934.54   970.86   996.08  1006.25  1031.76  1049.24
eigval :     1072.51  1077.38  1081.37  1082.13  1083.35  1116.14
eigval :     1118.34  1127.77  1132.34  1135.26  1146.02  1151.36
eigval :     1162.04  1178.37  1180.46  1181.45  1181.97  1184.46
eigval :     1186.22  1195.58  1198.78  1214.43  1222.06  1228.93
eigval :     1232.82  1245.38  1258.78  1262.44  1266.42  1268.72
eigval :     1281.16  1297.87  1309.05  1312.20  1316.35  1325.46
eigval :     1340.84  1350.33  1352.93  1362.36  1375.30  1382.80
eigval :     1385.07  1402.39  1404.62  1417.50  1420.26  1426.80
eigval :     1427.84  1430.60  1444.66  1452.16  1461.50  1471.15
eigval :     1485.27  1490.35  1501.25  1527.26  1531.27  1543.09
eigval :     1555.99  1563.06  1569.78  1575.76  1580.45  1586.38
eigval :     1593.68  1597.56  1599.64  1608.74  1611.24  1623.06
eigval :     3071.45  3072.23  3074.07  3074.09  3077.31  3078.05
eigval :     3079.43  3079.94  3080.34  3080.55  3082.11  3084.17
eigval :     3084.43  3084.55  3087.50  3089.35  3089.89  3090.84
eigval :     3092.28  3092.45  3093.27  3094.13  3094.32  3095.22
eigval :     3098.16  3098.90  3099.88

   temp. (K)  partition function   enthalpy   heat capacity  entropy
                                   cal/mol     cal/K/mol   cal/K/mol   J/K/mol
 298.15  VIB  0.398E+16            20390.435    132.374    126.166
         ROT  0.918E+08              888.752      2.981     39.417
         INT  0.365E+24            21279.187    135.355    165.583
         TR   0.143E+29             1481.254      4.968     45.047
         TOT                       22760.4412   140.3233   210.6302   881.2767

       T/K    H(0)-H(T)+PV         H(T)/Eh          T*S/Eh         G(T)/Eh
   ------------------------------------------------------------------------
    298.15    0.362711E-01    0.590881E+00    0.100077E+00    0.490804E+00
   ------------------------------------------------------------------------

         :::::::::::::::::::::::::::::::::::::::::::::::::::::
         ::                  THERMODYNAMIC                  ::
         :::::::::::::::::::::::::::::::::::::::::::::::::::::
         :: total free energy        -113.728769194634 Eh   ::
         ::.................................................::
         :: total energy             -114.219573214895 Eh   ::
         :: zero point energy           0.554610151703 Eh   ::
         :: G(RRHO) w/o ZPVE           -0.063806131442 Eh   ::
         :: G(RRHO) contrib.            0.490804020262 Eh   ::
         :::::::::::::::::::::::::::::::::::::::::::::::::::::

           -------------------------------------------------
          | TOTAL ENERGY             -114.219573214895 Eh   |
          | TOTAL ENTHALPY           -113.628691991389 Eh   |
          | TOTAL FREE ENERGY        -113.728769194634 Eh   |
          | GRADIENT NORM               0.000061010099 Eh/α |
          | HOMO-LUMO GAP               2.099895619572 eV   |
           -------------------------------------------------

 * finished run on 2025/08/29 at 11:23:24.578
