   * xtb version 6.7.1 (edcfbbe) compiled by 'albert@albert-system' on 2024-07-22

   ID    Z sym.   atoms
    1    6 C      1-8, 10-18, 22-29, 31-50, 52-67
    2    7 N      9, 30, 51
    3   16 S      19
    4    8 O      20, 21
    5    1 H      68-112

          program call               : xtb data2507/gas/PSBC/PSBC_gas_S0_finalOpt.xtbopt.xyz --gfn 2 --spinpol --tblite --uhf 2 --ohess vtight --parallel 40 --molden --ceasefiles --namespace data2507/gas/PSBC/PSBC_gas_T1_preOpt
 * total energy  :  -173.7008177 Eh     change        0.8522534E-08 Eh
 * total energy  :  -173.7047378 Eh     change       -0.3920016E-02 Eh
 * total energy  :  -173.7067411 Eh     change       -0.2003366E-02 Eh
 * total energy  :  -173.7071536 Eh     change       -0.4124782E-03 Eh
 * total energy  :  -173.7077833 Eh     change       -0.6296799E-03 Eh
 * total energy  :  -173.7081524 Eh     change       -0.3690926E-03 Eh
 * total energy  :  -173.7085092 Eh     change       -0.3568692E-03 Eh
 * total energy  :  -173.7087570 Eh     change       -0.2477787E-03 Eh
 * total energy  :  -173.7089394 Eh     change       -0.1823401E-03 Eh
 * total energy  :  -173.7091146 Eh     change       -0.1752421E-03 Eh
 * total energy  :  -173.7110255 Eh     change       -0.1266836E-05 Eh
 * total energy  :  -173.7110265 Eh     change       -0.1018831E-05 Eh
 * total energy  :  -173.7110269 Eh     change       -0.3882039E-06 Eh
 * total energy  :  -173.7110275 Eh     change       -0.6273928E-06 Eh
 * total energy  :  -173.7110281 Eh     change       -0.5500817E-06 Eh
 * total energy  :  -173.7110287 Eh     change       -0.6153967E-06 Eh
 * total energy  :  -173.7110286 Eh     change        0.1149573E-06 Eh
 * total energy  :  -173.7110287 Eh     change       -0.1110855E-06 Eh
 * total energy  :  -173.7110287 Eh     change       -0.8537086E-08 Eh
   *** GEOMETRY OPTIMIZATION CONVERGED AFTER 96 ITERATIONS ***

 final structure:
================
112
 xtb: 6.7.1 (edcfbbe)
C           -1.81229895458138       -8.23849665669431        1.66454150304113
C           -2.42031998776655       -7.73004067109130        0.35477981460044
C           -3.87483778950938       -8.21646638724849        0.28063548144525
C           -1.61259844938507       -8.32137530324083       -0.80933294492639
C           -2.40197497188853       -6.21423017254037        0.25069597088739
C           -1.88725781826629       -5.39251454836928        1.24762589110864
C           -1.89079362955720       -4.01595962812984        1.12148839529833
C           -2.41705806213646       -3.42020560748293       -0.01866201720795
N           -2.39994993780017       -2.02520327069544       -0.16033154078928
C           -1.24744666919364       -1.23120578900702       -0.04558936785119
C            0.07043374687472       -1.66955472594625        0.17396486865354
C            0.62926268013970       -2.88789447932596       -0.30894887772638
C            1.97415666850232       -3.10511484485483       -0.24753035545721
C            2.85420793905585       -2.18949954394849        0.38373837583995
C            4.28464754447934       -2.24057592822603        0.28249025314878
C            5.10057654629653       -1.66716372631221        1.28590108701759
C            6.40242056339681       -1.33409506314457        1.02470706190264
C            6.93292029446114       -1.55706980499275       -0.24558949046574
S            8.14822554254527       -0.37398310366461       -0.80272670101637
O            9.13581188575182       -0.09942576088947        0.20717903248297
O            8.59723530440833       -0.69304647506262       -2.13188154440519
C            6.91984578437811        0.94518160008833       -0.82873908866277
C            5.94429464718303        0.90350974818312       -1.81125153879659
C            4.75418767704713        1.57575439270400       -1.62350153122354
C            4.51950393367377        2.29194152839790       -0.44645228261406
C            3.18231012755184        2.82595112567515       -0.15428653817876
C            2.06142754310004        2.05281127906830       -0.45831939760823
C            0.78990952893490        2.47445765219419       -0.12939567696492
C            0.60536033869780        3.70234613315715        0.50193117269630
N           -0.69191293609091        4.14313252203073        0.81155771616857
C           -1.67884696722740        3.39178606361556        1.41716167544259
C           -1.59518856033729        2.14663287038238        2.02215647148365
C           -2.75389382798239        1.59872226110324        2.53574562476588
C           -3.96828479242479        2.27780199406479        2.47494613713879
C           -4.04656860476798        3.54455339746149        1.92926257715901
C           -2.89577202271408        4.11204835435868        1.40243426423757
C           -2.61675478658406        5.36585896789767        0.75920404908257
C           -3.39733579264818        6.46672168018573        0.43796745662385
C           -2.81108502467164        7.51896710356101       -0.23956528137920
C           -1.46888728514542        7.47354884539102       -0.60890180217998
C           -0.67122568803639        6.38774148526999       -0.29978359480026
C           -1.24775853049637        5.33882138210929        0.40289127198620
C            1.71526142191334        4.49014609306074        0.79981865630293
C            2.98629155851643        4.05137850778181        0.48150258792377
C            5.55033191326703        2.40014036176209        0.48805734832226
C            6.73888398022837        1.71878092778779        0.30479803348790
C            6.20162061303157       -2.27535649412547       -1.18743039177945
C            4.90984599551770       -2.65590280422921       -0.91222815128738
C            2.26957014640291       -1.05157947198067        1.00017324772889
C            0.95015614597392       -0.77600843712144        0.85032696983556
N           -1.54632629650657        0.06926184951793       -0.22501502371118
C           -2.84708597935729        0.12939537527820       -0.47977543495019
C           -3.62012128755155        1.26442844528349       -0.86572289920906
C           -3.01119718691735        2.46168707603337       -1.24551131857887
C           -3.76994570592023        3.53762321797238       -1.65193604251297
C           -5.15258191356260        3.42098098646751       -1.67074893385426
C           -5.76551400477728        2.23376635252348       -1.32127442948013
C           -5.02549109346283        1.11569989165275       -0.92075287526936
C           -5.64277749185484       -0.15918630558742       -0.59095786142280
C           -7.02748734912320       -0.29849846034912       -0.49308161182846
C           -7.62677124510688       -1.50594584759618       -0.19778400648770
C           -6.84355891067283       -2.63773585014567        0.02731796432995
C           -5.47916521912377       -2.54814155851108       -0.04935577658752
C           -4.84174766361397       -1.32612590458663       -0.35975808208011
C           -3.44539191756719       -1.16418179920135       -0.38252630401047
C           -2.92961257435327       -4.22756696588745       -1.03166479317628
C           -2.92066431239829       -5.59908366961729       -0.88878869187489
H           -0.77063812460422       -7.93955713363480        1.75532017281739
H           -2.36695608684391       -7.86940104682232        2.52416827967960
H           -1.85157856191890       -9.32556411378114        1.68274126896265
H           -4.33998703135478       -7.93887407019994       -0.66118526205207
H           -3.91120992045549       -9.29973833177518        0.37129873389718
H           -4.45815123493423       -7.78312143123074        1.09062190441538
H           -2.04045529042407       -8.04920106478557       -1.77016375132491
H           -1.59780655848095       -9.40670582866366       -0.73963303090495
H           -0.58690312423998       -7.95983024372808       -0.77702754930596
H           -1.47401278239237       -5.81482779536099        2.14820229756639
H           -1.48684079875296       -3.39619042541491        1.90808177623782
H           -0.00525948868839       -3.60408846234270       -0.80861462906717
H            2.38574649377166       -4.00680670895817       -0.67721094139905
H            4.67850125921288       -1.47105531141773        2.25991722924848
H            7.02102364476639       -0.84983356234703        1.76436645856556
H            6.12282345298728        0.31480547848113       -2.69763682145014
H            3.98655943872818        1.53208349028860       -2.38158321200169
H            2.18925601483648        1.09178229409240       -0.93246152207518
H           -0.05752206286921        1.84241471331349       -0.35328497861768
H           -0.65546430938359        1.62394037001392        2.09136041181923
H           -2.71758684442426        0.62176751231052        2.99528421615083
H           -4.85612139033079        1.80972441492301        2.87377133123100
H           -4.98262172116547        4.08142653015101        1.90505863650929
H           -4.44214601654269        6.49238849311501        0.70792775407721
H           -3.40018893408254        8.38639483171397       -0.49730352705260
H           -1.04249921212333        8.30342943559321       -1.15265308370538
H            0.36254070066118        6.35450834640097       -0.60825784044073
H            1.57802087581829        5.43630197772847        1.30235161243552
H            3.83732389835878        4.67275929744206        0.71811230379791
H            5.39278338013465        2.96887399328262        1.39270112513277
H            7.52503740500287        1.74846137377078        1.04323031774954
H            6.65473721854828       -2.47521091770875       -2.14622967645130
H            4.32770963278966       -3.16489615077172       -1.66558987521718
H            2.90647194019818       -0.34816697876024        1.51497045089835
H            0.52827606547190        0.12441897190939        1.26186916806064
H           -1.93490119310290        2.51192901195367       -1.24470455269338
H           -3.29601349447094        4.45920975794479       -1.95379676496777
H           -5.75766751435353        4.26056010064075       -1.98026778385476
H           -6.84063707570906        2.18048502465359       -1.38522877159918
H           -7.66383672293876        0.55986379831767       -0.63734575163922
H           -8.70220930778206       -1.57141422174199       -0.13127701380068
H           -7.31146911136304       -3.57957028999918        0.27194513935950
H           -4.87731391821377       -3.41867700053323        0.15502348363097
H           -3.33053820906694       -3.77097921536687       -1.92522182402967
H           -3.32363360005384       -6.19754899572478       -1.69128166687225

 projected vibrational frequencies (cm⁻¹)
eigval :       -0.00    -0.00     0.00     0.00     0.00     0.00
eigval :       10.06    12.24    15.81    19.54    23.77    26.70
eigval :       29.97    35.77    37.13    44.43    47.11    54.05
eigval :       61.39    65.38    71.37    76.83    82.44    90.44
eigval :      100.64   102.26   104.45   116.61   120.41   122.97
eigval :      125.36   134.06   138.10   140.62   147.64   156.20
eigval :      158.50   172.11   177.33   183.19   202.58   211.70
eigval :      215.71   225.20   229.77   234.27   240.11   247.92
eigval :      265.52   268.95   274.25   284.85   287.63   300.75
eigval :      307.34   314.54   316.78   322.26   348.11   354.37
eigval :      356.34   363.00   367.97   372.42   373.29   374.84
eigval :      383.35   388.80   391.42   394.05   395.54   398.28
eigval :      404.94   414.11   419.47   423.88   431.19   433.82
eigval :      436.94   445.37   451.57   456.37   464.71   475.50
eigval :      493.40   498.67   500.26   510.14   517.53   525.17
eigval :      526.86   535.39   538.82   540.06   545.16   556.96
eigval :      581.23   582.46   584.59   590.01   592.30   593.04
eigval :      603.23   603.63   615.80   616.95   628.96   633.93
eigval :      644.95   659.48   665.55   667.03   670.46   673.57
eigval :      678.49   680.43   693.59   696.42   705.38   709.82
eigval :      716.05   727.84   746.09   754.20   755.44   756.13
eigval :      766.98   774.14   776.10   778.01   787.00   792.28
eigval :      804.54   805.45   814.55   820.29   836.22   838.41
eigval :      854.00   862.09   867.37   868.83   870.03   870.88
eigval :      881.90   887.22   897.08   899.17   899.28   902.79
eigval :      903.74   907.12   910.08   912.70   913.02   913.87
eigval :      916.42   917.35   918.99   920.28   922.80   924.91
eigval :      925.55   927.52   928.96   929.01   939.26   956.14
eigval :      960.55   960.77   962.91   963.95   964.66   976.92
eigval :      993.70  1009.04  1012.13  1012.35  1034.76  1035.34
eigval :     1035.42  1055.08  1067.55  1071.10  1071.89  1073.54
eigval :     1083.38  1091.91  1098.87  1103.77  1116.65  1117.52
eigval :     1122.01  1123.20  1138.32  1139.14  1141.75  1143.07
eigval :     1147.01  1147.82  1157.27  1173.89  1175.38  1179.49
eigval :     1179.74  1181.53  1182.73  1184.94  1186.53  1190.29
eigval :     1204.96  1211.02  1222.87  1227.48  1232.54  1233.77
eigval :     1239.65  1240.59  1240.87  1248.47  1250.61  1255.39
eigval :     1256.02  1268.12  1268.84  1276.18  1282.29  1285.28
eigval :     1288.36  1293.69  1298.66  1308.41  1313.49  1317.01
eigval :     1321.51  1322.41  1330.22  1336.43  1337.49  1352.80
eigval :     1356.78  1357.23  1363.02  1382.34  1384.02  1391.46
eigval :     1395.27  1400.29  1404.86  1406.24  1407.69  1411.01
eigval :     1411.52  1418.60  1421.79  1425.11  1426.64  1429.02
eigval :     1443.09  1448.14  1453.15  1468.16  1469.20  1476.56
eigval :     1486.88  1487.83  1491.45  1492.69  1493.21  1494.83
eigval :     1501.39  1505.59  1509.32  1514.32  1518.61  1534.32
eigval :     1539.75  1551.17  1553.00  1556.32  1559.41  1563.08
eigval :     1564.74  1570.55  1573.80  1579.41  1585.89  1589.52
eigval :     1590.18  1594.48  1609.72  3025.85  3026.88  3029.26
eigval :     3031.46  3034.45  3037.18  3041.05  3046.83  3050.44
eigval :     3075.75  3075.98  3078.38  3079.14  3079.42  3079.44
eigval :     3079.91  3081.21  3081.74  3082.65  3083.68  3084.46
eigval :     3085.22  3085.37  3087.44  3088.25  3090.25  3091.65
eigval :     3092.48  3092.83  3093.89  3094.43  3095.18  3096.92
eigval :     3097.60  3097.76  3098.18  3099.49  3100.99  3101.47
eigval :     3109.46  3109.83  3119.40  3121.15  3122.19  3132.87

   temp. (K)  partition function   enthalpy   heat capacity  entropy
                                   cal/mol     cal/K/mol   cal/K/mol   J/K/mol
 298.15  VIB  0.176E+26            33326.858    209.904    206.220
         ROT  0.206E+09              888.752      2.981     41.020
         INT  0.362E+34            34215.610    212.885    247.240
         TR   0.254E+29             1481.254      4.968     46.193
         TOT                       35696.8642   217.8533   293.4336  1227.7263

       T/K    H(0)-H(T)+PV         H(T)/Eh          T*S/Eh         G(T)/Eh
   ------------------------------------------------------------------------
    298.15    0.568866E-01    0.921264E+00    0.139420E+00    0.781844E+00
   ------------------------------------------------------------------------

         :::::::::::::::::::::::::::::::::::::::::::::::::::::
         ::                  THERMODYNAMIC                  ::
         :::::::::::::::::::::::::::::::::::::::::::::::::::::
         :: total free energy        -172.929184371446 Eh   ::
         ::.................................................::
         :: total energy             -173.711028701368 Eh   ::
         :: zero point energy           0.864377536068 Eh   ::
         :: G(RRHO) w/o ZPVE           -0.082533206146 Eh   ::
         :: G(RRHO) contrib.            0.781844329922 Eh   ::
         :::::::::::::::::::::::::::::::::::::::::::::::::::::

           -------------------------------------------------
          | TOTAL ENERGY             -173.711028701368 Eh   |
          | TOTAL ENTHALPY           -172.789764591269 Eh   |
          | TOTAL FREE ENERGY        -172.929184371446 Eh   |
          | GRADIENT NORM               0.000093655636 Eh/α |
           -------------------------------------------------

 * finished run on 2025/09/07 at 02:11:09.596
