   * xtb version 6.7.1 (edcfbbe) compiled by 'albert@albert-system' on 2024-07-22

   ID    Z sym.   atoms
    1    6 C      1-8, 10-18, 22-29, 31-50, 52-67
    2    7 N      9, 30, 51
    3   16 S      19
    4    8 O      20, 21
    5    1 H      68-112

          program call               : xtb data2507/gas/PSBC/PSBC.xyz --gfn 2 --ohess vtight --parallel 40 --molden --ceasefiles --namespace data2507/gas/PSBC/PSBC_gas_S0_preOpt
          :  Hamiltonian                  GFN2-xTB          :
 * total energy  :  -173.7646485 Eh     change       -0.3468017E-08 Eh
 * total energy  :  -173.7827759 Eh     change       -0.1812738E-01 Eh
 * total energy  :  -173.7874994 Eh     change       -0.4723540E-02 Eh
 * total energy  :  -173.7887962 Eh     change       -0.1296802E-02 Eh
 * total energy  :  -173.7896920 Eh     change       -0.8958071E-03 Eh
 * total energy  :  -173.7901978 Eh     change       -0.5058050E-03 Eh
 * total energy  :  -173.7906658 Eh     change       -0.4679515E-03 Eh
 * total energy  :  -173.7911026 Eh     change       -0.4368105E-03 Eh
 * total energy  :  -173.7914589 Eh     change       -0.3563451E-03 Eh
 * total energy  :  -173.7917046 Eh     change       -0.2456947E-03 Eh
 * total energy  :  -173.7945176 Eh     change       -0.1915814E-05 Eh
 * total energy  :  -173.7945196 Eh     change       -0.2039820E-05 Eh
 * total energy  :  -173.7945216 Eh     change       -0.1946250E-05 Eh
 * total energy  :  -173.7945232 Eh     change       -0.1671574E-05 Eh
 * total energy  :  -173.7945246 Eh     change       -0.1374749E-05 Eh
 * total energy  :  -173.7945258 Eh     change       -0.1167996E-05 Eh
 * total energy  :  -173.7945270 Eh     change       -0.1208045E-05 Eh
 * total energy  :  -173.7945286 Eh     change       -0.1574612E-05 Eh
 * total energy  :  -173.7945286 Eh     change       -0.4282015E-08 Eh
   *** GEOMETRY OPTIMIZATION CONVERGED AFTER 152 ITERATIONS ***

 final structure:
================
112
 xtb: 6.7.1 (edcfbbe)
C           -2.76484803035999        5.22641359332307        0.05774378917327
C           -2.96188005335069        4.19346083919743        1.17053373582778
C           -3.46120232932728        4.92859402865717        2.42250121751325
C           -1.60586061166495        3.53370101947096        1.45848975121471
C           -3.96567041887399        3.11447254548813        0.79828045910693
C           -4.61877851174669        3.08157311067045       -0.42912618378246
C           -5.52675411242949        2.08390630389194       -0.73404103007089
C           -5.80900353874744        1.09135745230509        0.19579094319847
N           -6.71711203349533        0.05972584810722       -0.11507426988969
C           -6.39576935426545       -1.27289974394799       -0.25152380172193
C           -5.06836375299164       -1.84443994272911       -0.10914855745802
C           -3.89381771060464       -1.17119517612017       -0.44232239503237
C           -2.66971038072221       -1.79502894477524       -0.30522153939129
C           -2.57792109767608       -3.10134140901208        0.16947751399784
C           -1.27714192467169       -3.77011790318654        0.31052914483691
C           -0.30213757816496       -3.64222818496421       -0.67989826030885
C            0.90500184685655       -4.30617370486598       -0.56672789001336
C            1.14497292963054       -5.09152892728407        0.54479786687258
S            2.69357652930207       -5.99496414841859        0.66108707978799
O            2.80164743931219       -6.53875534167505        1.98961478871951
O            2.77651545747610       -6.90235960108299       -0.45361877325805
C            3.94899705761645       -4.72819484362930        0.44910447036394
C            4.70101859532072       -4.69477616535731       -0.70887243270732
C            5.67297920450736       -3.72337338856086       -0.85977956799297
C            5.89281185675093       -2.78051361992470        0.14465700826324
C            6.93971917248698       -1.76051845224019       -0.00930579332008
C            8.17658253818414       -2.09223274826004       -0.55989283366154
C            9.16577482960275       -1.14146540934849       -0.70545503071971
C            8.94036986819993        0.17195313367954       -0.30000631246114
N            9.94102267739111        1.13818296882238       -0.44615447582430
C            9.78429712973009        2.38415987221902       -1.02313771514217
C            8.66606330378143        2.94809402547851       -1.62009647276997
C            8.79033065656467        4.21655404715904       -2.15415160468498
C            9.99702022771553        4.91081460391452       -2.10781578196089
C           11.11976870565558        4.34455396959076       -1.53811069388595
C           11.01963618646483        3.07063791609824       -0.99488390257234
C           11.96212057990327        2.19049097543739       -0.36240345160512
C           13.30700369790460        2.30749742848086       -0.03711395627924
C           13.92580507934351        1.25435108588006        0.60599455812694
C           13.21652082547685        0.10262870694424        0.93898413284243
C           11.87780120533245       -0.03687146666738        0.62600547216639
C           11.25702843259116        1.00767885946212       -0.04363601414623
C            7.70762976676578        0.51192962887643        0.25223439806149
C            6.72262346806779       -0.44423331811189        0.39382114665158
C            5.11355228900837       -2.82835349389400        1.30175896403538
C            4.14377893427070       -3.80122086661854        1.45518510333736
C            0.20289347068115       -5.21790346262473        1.54647518699894
C           -1.00812534633275       -4.56172551510644        1.42717201803462
C           -3.75570873797374       -3.77720742992688        0.48880958852059
C           -4.97979653416731       -3.16285588426273        0.34407586030825
N           -7.44600822904231       -2.00338557108273       -0.54081080491006
C           -8.49461110240400       -1.14564956811792       -0.60727655870183
C           -9.84743846246759       -1.44455238214701       -0.93177608021099
C          -10.24620991449904       -2.74828805359436       -1.24369976219221
C          -11.54931951965118       -3.01127513098915       -1.58475386600101
C          -12.47075520214165       -1.96669516225489       -1.62159571515808
C          -12.09026210962839       -0.68191402265547       -1.31149099450094
C          -10.76994796059209       -0.37400662491655       -0.94915545871439
C          -10.34362061638165        0.96618407544824       -0.58369249364192
C          -11.25160762771314        2.03245568421425       -0.51850222334402
C          -10.86881789255428        3.29513242825983       -0.13255937877775
C           -9.54807110499570        3.54471108336669        0.22534129159056
C           -8.62485166917739        2.53004853409693        0.16775113160796
C           -8.98860332408027        1.24191587098539       -0.25026063820571
C           -8.07299630870457        0.15456451154769       -0.33007049896014
C           -5.16437961860676        1.10513039026663        1.42595373395179
C           -4.25738216287564        2.10518434399876        1.71377908521080
H           -2.38271681629151        4.76071643362989       -0.84776624455615
H           -3.69577411294692        5.74066144293429       -0.16939654243490
H           -2.04137103312439        5.97180350425385        0.38119423053148
H           -3.55364540991621        4.25496823372020        3.26974111019161
H           -2.76614626806203        5.72053253753063        2.69239501720203
H           -4.43534106739430        5.37484562615992        2.23344570145187
H           -1.67241000731164        2.83176033757008        2.28502061438429
H           -0.86903647439724        4.29192658526440        1.71417552113280
H           -1.25558769666104        2.99446067595868        0.58063630174738
H           -4.42842006703104        3.83597873329019       -1.17425471937155
H           -6.02616268689140        2.07318542328645       -1.69215426307651
H           -3.93012619310127       -0.16559804458571       -0.83198109161259
H           -1.76830697943219       -1.25491680241520       -0.55608947956275
H           -0.50799065552534       -3.04359064356637       -1.55460554080003
H            1.65695700679188       -4.23314533598691       -1.33772567691251
H            4.51813593540690       -5.44120417790730       -1.46631204671100
H            6.25791154930105       -3.68369502043069       -1.76645843290044
H            8.36930589918514       -3.11059793066419       -0.86251250260935
H           10.11453904201713       -1.40617499353413       -1.14732659836508
H            7.73110576153236        2.41143159483898       -1.67935031268012
H            7.93305640947975        4.67807309115574       -2.62179190097716
H           10.05256217827538        5.90138092335079       -2.53402740719281
H           12.05982816705361        4.87481178464809       -1.51750951986589
H           13.85151940541390        3.20736742412331       -0.28020772892296
H           14.97166120925174        1.32339995772136        0.86546268297385
H           13.72302240343302       -0.69837034221604        1.45692098071546
H           11.33352157928097       -0.92606453581750        0.90640117414796
H            7.53442654301058        1.52516272747204        0.58250071306973
H            5.76612667822376       -0.16486195422708        0.81020901698842
H            5.29071634135206       -2.11539671397838        2.09304652017639
H            3.54822607209676       -3.86630322662937        2.35259397927787
H            0.43540383012145       -5.83596782257368        2.39966024853031
H           -1.74881780667617       -4.65115608205535        2.20764775275527
H           -3.70579313575443       -4.80145424926399        0.82719082214173
H           -5.89376901057032       -3.68774891482607        0.57301889371057
H           -9.49843259897541       -3.52538706744325       -1.21256634877039
H          -11.86186398231492       -4.01603276160028       -1.82796943384438
H          -13.49625554236569       -2.16718976904653       -1.89677518536898
H          -12.83822219095009        0.09370527897030       -1.35696768991889
H          -12.28781755385691        1.86996739019281       -0.76717914194804
H          -11.59778039988671        4.09123054733108       -0.09463490160076
H           -9.24990435751155        4.53021356548166        0.55155780170768
H           -7.60645930762537        2.72450727014260        0.46408830094165
H           -5.37727649857111        0.33081256408547        2.14806443418196
H           -3.77297423721265        2.09213545882967        2.67780366614578

          :  Hamiltonian                  GFN2-xTB          :
         :: gradient norm              0.000053525712 Eh/a0 ::
         :: HOMO-LUMO gap              2.371067906670 eV    ::
         :: SCC energy              -176.901045666256 Eh    ::
         :: -> dispersion             -0.156126015942 Eh    ::
         :: repulsion energy           3.106517108477 Eh    ::

    * Orbital Energies and Occupations

         #    Occupation            Energy/Eh            Energy/eV
      -------------------------------------------------------------
         1        2.0000           -0.7648133             -20.8116
       ...           ...                  ...                  ...
       149        2.0000           -0.4147918             -11.2871
       150        2.0000           -0.4128386             -11.2339
       151        2.0000           -0.4082197             -11.1082
       152        2.0000           -0.4080802             -11.1044
       153        2.0000           -0.4057476             -11.0410
       154        2.0000           -0.4022171             -10.9449
       155        2.0000           -0.4005326             -10.8990
       156        2.0000           -0.3955131             -10.7625
       157        2.0000           -0.3816051             -10.3840
       158        2.0000           -0.3803404             -10.3496
       159        2.0000           -0.3763218             -10.2402
       160        2.0000           -0.3663235              -9.9682
       161        2.0000           -0.3634375              -9.8896 (HOMO)
       162                         -0.2763024              -7.5186 (LUMO)
       163                         -0.2710135              -7.3747
       164                         -0.2529124              -6.8821
       165                         -0.2484384              -6.7604
       166                         -0.2478950              -6.7456
       167                         -0.2472590              -6.7283
       168                         -0.2451509              -6.6709
       169                         -0.2417984              -6.5797
       170                         -0.2413893              -6.5685
       171                         -0.2394271              -6.5151
       172                         -0.2349066              -6.3921
       ...                                ...                  ...
       318                          1.2112365              32.9594
      -------------------------------------------------------------
                  HL-Gap            0.0871351 Eh            2.3711 eV

     #   Z          covCN         q      C6AA      α(0)
     1   6 C        3.761    -0.109    22.632     6.782
     2   6 C        3.903     0.026    20.079     6.369
     3   6 C        3.762    -0.107    22.586     6.775
     4   6 C        3.762    -0.106    22.579     6.774
     5   6 C        2.973     0.010    27.786     8.646
     6   6 C        2.925    -0.038    28.952     8.824
     7   6 C        2.920    -0.040    28.999     8.831
     8   6 C        2.913     0.063    26.586     8.455
     9   7 N        2.841    -0.044    22.089     6.980
    10   6 C        3.192     0.125    24.795     8.121
    11   6 C        2.974     0.004    27.926     8.668
    12   6 C        2.920    -0.035    28.868     8.811
    13   6 C        2.923    -0.034    28.839     8.807
    14   6 C        2.977     0.010    27.800     8.649
    15   6 C        2.977     0.018    27.596     8.617
    16   6 C        2.926    -0.030    28.744     8.792
    17   6 C        2.955    -0.029    28.718     8.790
    18   6 C        2.971    -0.075    29.866     8.964
    19  16 S        3.814     0.939   108.433    17.526
    20   8 O        0.860    -0.541    24.712     6.665
    21   8 O        0.860    -0.542    24.729     6.667
    22   6 C        2.971    -0.075    29.855     8.963
    23   6 C        2.953    -0.026    28.650     8.779
    24   6 C        2.926    -0.031    28.762     8.795
    25   6 C        2.977     0.018    27.612     8.619
    26   6 C        2.976     0.006    27.876     8.661
    27   6 C        2.924    -0.032    28.804     8.801
    28   6 C        2.920    -0.043    29.057     8.840
    29   6 C        2.913     0.066    26.528     8.446
    30   7 N        2.802    -0.043    22.075     6.978
    31   6 C        3.074     0.046    26.886     8.502
    32   6 C        2.910    -0.051    29.274     8.872
    33   6 C        2.924    -0.033    28.834     8.806
    34   6 C        2.920    -0.041    29.006     8.832
    35   6 C        2.913    -0.033    28.810     8.802
    36   6 C        3.068    -0.016    28.346     8.730
    37   6 C        3.068    -0.016    28.349     8.731
    38   6 C        2.913    -0.033    28.810     8.802
    39   6 C        2.920    -0.040    28.999     8.831
    40   6 C        2.924    -0.033    28.822     8.804
    41   6 C        2.910    -0.051    29.265     8.871
    42   6 C        3.074     0.046    26.885     8.501
    43   6 C        2.920    -0.043    29.068     8.841
    44   6 C        2.924    -0.033    28.820     8.804
    45   6 C        2.926    -0.030    28.754     8.794
    46   6 C        2.956    -0.028    28.691     8.786
    47   6 C        2.953    -0.025    28.616     8.774
    48   6 C        2.927    -0.030    28.742     8.792
    49   6 C        2.923    -0.032    28.787     8.799
    50   6 C        2.928    -0.028    28.689     8.784
    51   7 N        1.897    -0.291    28.395     7.900
    52   6 C        3.206     0.057    26.139     8.327
    53   6 C        2.986     0.003    27.958     8.673
    54   6 C        2.922    -0.031    28.776     8.797
    55   6 C        2.917    -0.030    28.751     8.793
    56   6 C        2.918    -0.033    28.815     8.803
    57   6 C        2.922    -0.035    28.866     8.811
    58   6 C        2.979    -0.001    28.056     8.689
    59   6 C        2.980     0.002    27.972     8.676
    60   6 C        2.922    -0.034    28.840     8.807
    61   6 C        2.916    -0.033    28.829     8.805
    62   6 C        2.917    -0.032    28.796     8.800
    63   6 C        2.919    -0.040    29.001     8.831
    64   6 C        2.978    -0.002    28.065     8.690
    65   6 C        3.075     0.020    27.473     8.594
    66   6 C        2.920    -0.041    29.018     8.834
    67   6 C        2.928    -0.033    28.817     8.804
    68   1 H        0.925     0.037     2.493     2.469
    69   1 H        0.925     0.038     2.477     2.461
    70   1 H        0.925     0.040     2.453     2.449
    71   1 H        0.925     0.038     2.478     2.462
    72   1 H        0.925     0.041     2.438     2.442
    73   1 H        0.925     0.036     2.507     2.476
    74   1 H        0.925     0.037     2.485     2.465
    75   1 H        0.925     0.041     2.439     2.442
    76   1 H        0.925     0.034     2.532     2.488
    77   1 H        0.926     0.046     2.374     2.409
    78   1 H        0.926     0.040     2.448     2.446
    79   1 H        0.926     0.032     2.563     2.504
    80   1 H        0.926     0.033     2.544     2.494
    81   1 H        0.926     0.049     2.338     2.391
    82   1 H        0.926     0.043     2.415     2.430
    83   1 H        0.926     0.065     2.142     2.289
    84   1 H        0.926     0.050     2.317     2.380
    85   1 H        0.926     0.042     2.424     2.435
    86   1 H        0.926     0.046     2.375     2.410
    87   1 H        0.926     0.026     2.640     2.541
    88   1 H        0.926     0.029     2.600     2.522
    89   1 H        0.926     0.029     2.603     2.523
    90   1 H        0.926     0.032     2.558     2.501
    91   1 H        0.926     0.032     2.559     2.501
    92   1 H        0.926     0.029     2.595     2.519
    93   1 H        0.926     0.030     2.581     2.512
    94   1 H        0.926     0.028     2.621     2.532
    95   1 H        0.926     0.044     2.393     2.419
    96   1 H        0.926     0.038     2.470     2.458
    97   1 H        0.926     0.049     2.334     2.389
    98   1 H        0.926     0.050     2.317     2.380
    99   1 H        0.926     0.065     2.138     2.286
   100   1 H        0.926     0.051     2.302     2.372
   101   1 H        0.926     0.041     2.431     2.438
   102   1 H        0.926     0.059     2.212     2.326
   103   1 H        0.926     0.050     2.316     2.380
   104   1 H        0.926     0.030     2.580     2.512
   105   1 H        0.926     0.028     2.613     2.528
   106   1 H        0.926     0.031     2.579     2.511
   107   1 H        0.926     0.034     2.524     2.485
   108   1 H        0.926     0.028     2.608     2.525
   109   1 H        0.926     0.026     2.642     2.542
   110   1 H        0.926     0.026     2.640     2.541
   111   1 H        0.926     0.037     2.491     2.468
   112   1 H        0.926     0.039     2.468     2.457

molecular dipole:
                 x           y           z       tot (Debye)
 q only:        0.222       3.175       0.025
   full:        0.217       3.492       0.094       8.895

 projected vibrational frequencies (cm⁻¹)
eigval :       -0.00    -0.00    -0.00     0.00     0.00     0.00
eigval :        0.67     3.26     4.67    10.19    14.72    18.37
eigval :       19.58    24.71    26.92    29.97    31.68    41.99
eigval :       48.98    53.46    61.94    66.15    68.97    71.48
eigval :       83.43    89.72    92.56   102.14   105.01   106.17
eigval :      118.12   123.24   129.48   132.14   144.26   146.22
eigval :      158.38   172.63   177.61   185.29   202.50   212.21
eigval :      214.06   224.91   228.55   233.38   237.57   253.74
eigval :      263.81   269.91   271.79   278.64   297.12   301.60
eigval :      309.85   316.48   319.50   332.60   355.20   358.52
eigval :      364.59   366.00   366.57   373.76   376.53   382.27
eigval :      383.34   391.70   395.31   396.41   399.52   403.45
eigval :      413.59   419.73   422.71   431.34   432.96   434.39
eigval :      449.25   451.13   451.96   464.70   480.15   489.31
eigval :      505.27   505.84   515.90   518.18   527.56   531.96
eigval :      534.94   535.77   541.17   542.78   546.33   563.71
eigval :      582.47   585.11   592.73   593.60   600.95   603.28
eigval :      603.88   609.45   617.75   636.08   645.14   653.27
eigval :      661.66   669.94   671.91   673.91   678.23   681.24
eigval :      685.83   696.85   700.62   704.46   706.68   710.67
eigval :      721.19   735.86   755.85   757.34   764.84   766.82
eigval :      769.83   780.05   781.67   782.64   799.68   802.83
eigval :      805.23   823.68   831.47   833.60   862.59   866.75
eigval :      869.54   870.44   874.20   875.11   875.79   878.15
eigval :      882.93   884.02   897.90   902.82   903.43   907.39
eigval :      912.27   914.21   915.07   915.47   920.49   920.64
eigval :      921.47   923.94   926.08   927.04   927.36   927.49
eigval :      927.96   930.15   931.63   936.13   940.06   955.37
eigval :      961.03   963.03   964.02   979.01   983.08  1002.16
eigval :     1012.14  1014.42  1015.16  1032.43  1035.70  1035.91
eigval :     1070.77  1072.68  1073.42  1074.94  1075.60  1086.19
eigval :     1090.95  1108.67  1117.85  1118.70  1119.83  1123.59
eigval :     1131.32  1135.08  1138.11  1141.41  1142.16  1145.54
eigval :     1153.02  1153.20  1174.71  1176.80  1179.55  1181.26
eigval :     1182.02  1183.05  1186.63  1186.66  1200.80  1203.17
eigval :     1204.98  1215.85  1227.96  1233.98  1236.46  1237.67
eigval :     1244.75  1252.91  1253.86  1255.96  1258.23  1267.77
eigval :     1269.36  1275.48  1284.10  1286.56  1289.33  1289.45
eigval :     1302.05  1302.18  1312.30  1313.61  1315.67  1321.05
eigval :     1321.67  1322.35  1332.67  1339.26  1349.15  1357.46
eigval :     1361.79  1370.01  1378.21  1384.00  1384.91  1399.33
eigval :     1406.37  1406.91  1408.19  1410.96  1412.07  1422.19
eigval :     1428.30  1430.07  1430.59  1432.91  1436.50  1451.36
eigval :     1460.29  1476.03  1479.90  1488.29  1491.45  1492.40
eigval :     1493.35  1502.23  1502.48  1506.21  1513.62  1514.85
eigval :     1516.20  1518.84  1539.88  1558.12  1558.64  1563.74
eigval :     1569.30  1569.81  1575.51  1576.26  1576.72  1580.32
eigval :     1580.94  1589.44  1594.71  1596.85  1597.87  1599.37
eigval :     1601.24  1604.84  1614.98  3025.72  3026.79  3029.15
eigval :     3031.74  3034.60  3037.25  3041.46  3048.18  3052.03
eigval :     3072.53  3075.16  3076.47  3077.67  3078.03  3081.55
eigval :     3082.34  3083.06  3083.64  3084.01  3084.93  3085.29
eigval :     3085.38  3085.53  3085.93  3087.28  3088.62  3088.99
eigval :     3089.25  3090.64  3095.20  3095.81  3096.22  3097.17
eigval :     3097.68  3097.92  3098.38  3100.33  3101.90  3103.17
eigval :     3104.56  3105.15  3109.59  3111.15  3115.66  3120.72

   temp. (K)  partition function   enthalpy   heat capacity  entropy
                                   cal/mol     cal/K/mol   cal/K/mol   J/K/mol
 298.15  VIB  0.157E+28            32888.055    204.688    207.365
         ROT  0.447E+09              888.752      2.981     42.562
         INT  0.702E+36            33776.807    207.668    249.928
         TR   0.254E+29             1481.254      4.968     46.193
         TOT                       35258.0608   212.6366   296.1209  1238.9698

       T/K    H(0)-H(T)+PV         H(T)/Eh          T*S/Eh         G(T)/Eh
   ------------------------------------------------------------------------
    298.15    0.561873E-01    0.924536E+00    0.140697E+00    0.783839E+00
   ------------------------------------------------------------------------

         :::::::::::::::::::::::::::::::::::::::::::::::::::::
         ::                  THERMODYNAMIC                  ::
         :::::::::::::::::::::::::::::::::::::::::::::::::::::
         :: total free energy        -173.010689644518 Eh   ::
         ::.................................................::
         :: total energy             -173.794528557786 Eh   ::
         :: zero point energy           0.868348210907 Eh   ::
         :: G(RRHO) w/o ZPVE           -0.084509297640 Eh   ::
         :: G(RRHO) contrib.            0.783838913268 Eh   ::
         :::::::::::::::::::::::::::::::::::::::::::::::::::::

           -------------------------------------------------
          | TOTAL ENERGY             -173.794528557786 Eh   |
          | TOTAL ENTHALPY           -172.869993050482 Eh   |
          | TOTAL FREE ENERGY        -173.010689644518 Eh   |
          | GRADIENT NORM               0.000053524114 Eh/α |
          | HOMO-LUMO GAP               2.371067710190 eV   |
           -------------------------------------------------

 * finished run on 2025/09/07 at 01:57:01.240
