   * xtb version 6.7.1 (edcfbbe) compiled by 'albert@albert-system' on 2024-07-22

   ID    Z sym.   atoms
    1    6 C      1-8, 10-18, 22-29, 31-50, 52-67
    2    7 N      9, 30, 51
    3   16 S      19
    4    8 O      20, 21
    5    1 H      68-112

          program call               : xtb data2507/gas/PSBC/PSBC_gas_S0_crest.xyz --gfn 2 --ohess vtight --parallel 40 --molden --ceasefiles --namespace data2507/gas/PSBC/PSBC_gas_S0_finalOpt
          :  Hamiltonian                  GFN2-xTB          :
 * total energy  :  -173.7991352 Eh     change       -0.4539373E-08 Eh
 * total energy  :  -173.7991369 Eh     change       -0.1630188E-05 Eh
 * total energy  :  -173.7991388 Eh     change       -0.1944306E-05 Eh
 * total energy  :  -173.7991422 Eh     change       -0.3346001E-05 Eh
 * total energy  :  -173.7991437 Eh     change       -0.1572443E-05 Eh
 * total energy  :  -173.7991456 Eh     change       -0.1889266E-05 Eh
 * total energy  :  -173.7991483 Eh     change       -0.2679472E-05 Eh
 * total energy  :  -173.7991506 Eh     change       -0.2326938E-05 Eh
 * total energy  :  -173.7991523 Eh     change       -0.1633423E-05 Eh
 * total energy  :  -173.7991538 Eh     change       -0.1572632E-05 Eh
 * total energy  :  -173.7991590 Eh     change       -0.8586110E-06 Eh
 * total energy  :  -173.7991597 Eh     change       -0.7428608E-06 Eh
 * total energy  :  -173.7991604 Eh     change       -0.7002031E-06 Eh
 * total energy  :  -173.7991611 Eh     change       -0.6268824E-06 Eh
 * total energy  :  -173.7991616 Eh     change       -0.5564285E-06 Eh
 * total energy  :  -173.7991621 Eh     change       -0.5026608E-06 Eh
 * total energy  :  -173.7991626 Eh     change       -0.4956511E-06 Eh
 * total energy  :  -173.7991632 Eh     change       -0.5472768E-06 Eh
 * total energy  :  -173.7991632 Eh     change       -0.1277715E-07 Eh
   *** GEOMETRY OPTIMIZATION CONVERGED AFTER 22 ITERATIONS ***

 final structure:
================
112
 xtb: 6.7.1 (edcfbbe)
C           -1.48542943940500       -7.99353870856275        1.71995568121372
C           -2.24876216033023       -7.55424679679689        0.46776955305620
C           -3.69061896534463       -8.06948637012280        0.57951469780360
C           -1.56396234802957       -8.18119185790963       -0.75517224106360
C           -2.27425224859137       -6.04427644281045        0.29701149680478
C           -1.66088427978699       -5.17113482943211        1.18717489785711
C           -1.69887239702952       -3.80113642045974        0.99550851133891
C           -2.35907950791844       -3.27079617139854       -0.10239855668882
N           -2.33999146065370       -1.88404690353878       -0.33987782336798
C           -1.18495846451655       -1.16364875408321       -0.50493565928835
C            0.16732703965074       -1.66946321317570       -0.28607983334333
C            0.71399943556398       -2.74329188187328       -0.98275658026745
C            2.06156422912836       -3.03476401198915       -0.86549183052117
C            2.88324529330271       -2.27895316454358       -0.03339752988357
C            4.35130261562752       -2.32092482661189       -0.04799782405301
C            5.07652052697969       -2.11671203819026        1.12811366925310
C            6.38644777194834       -1.68765624524422        1.06999103869486
C            6.98382372990054       -1.48741208215563       -0.16284755396584
S            8.22481812075288       -0.18980664739747       -0.26030339051409
O            9.04372488374451       -0.15823758944765        0.92043098087795
O            8.86521324088315       -0.19369981720660       -1.54676675994090
C            6.95115009975437        1.08572634524814       -0.17423374594036
C            6.16330731726770        1.28319321694750       -1.29439372826829
C            4.93468374925521        1.90002680487726       -1.16551533725439
C            4.48389023499915        2.32665886403290        0.08462773037211
C            3.09617875785869        2.78692793201420        0.25312339160658
C            2.06756926068220        2.02924677219854       -0.30528555827087
C            0.74398081027363        2.36486830819945       -0.10599055137772
C            0.41993096125723        3.49501626600330        0.64065984581844
N           -0.92604880740141        3.84342998810214        0.83321546678480
C           -1.92454440552941        3.00017187653008        1.27810061507947
C           -1.83133473043932        1.71405028162702        1.78555978504460
C           -2.99821365072734        1.08206105938221        2.16800225689758
C           -4.23339159990284        1.71782584630993        2.07188233783470
C           -4.32750261174277        3.01661627282002        1.61386964752456
C           -3.16803065286308        3.66911502059463        1.21860894200852
C           -2.89792210819253        4.98125656515968        0.70320548881409
C           -3.70106504862375        6.07168769660111        0.39858310453329
C           -3.11065014837919        7.20094905557910       -0.13260591227556
C           -1.73878365070692        7.24732040186250       -0.37113939129521
C           -0.91841929080968        6.17535539257346       -0.07549180519555
C           -1.50373989548258        5.04511165976165        0.47594835946952
C            1.44033281887279        4.27379173272793        1.18187298099303
C            2.76283431905310        3.91365794823378        1.00039663967333
C            5.33507464748228        2.20918905650366        1.18272522445966
C            6.55744528127929        1.57230313333988        1.05792302387259
C            6.33621168999657       -1.85948425654930       -1.32760511448299
C            5.02482597922025       -2.29174859878135       -1.26941878731834
C            2.30678711597450       -1.26724585461121        0.73528373741529
C            0.97206166626263       -0.96274850557866        0.60348263893508
N           -1.41622890763350        0.07505017525745       -0.85922064233601
C           -2.77028755183661        0.19732226035669       -0.92760112734698
C           -3.52575185771862        1.34693251719923       -1.28751649278418
C           -2.90743128330866        2.51781837565281       -1.73716083388472
C           -3.65804330285220        3.61444047545836       -2.07859888171620
C           -5.04510132776876        3.55029624734895       -1.97394177964314
C           -5.66524654659775        2.40094112325436       -1.54338181731042
C           -4.93230683601053        1.25951546460675       -1.18540639010623
C           -5.55775436164487        0.03792731312845       -0.70977379174687
C           -6.94221429670729       -0.04933519085312       -0.50641498122014
C           -7.53916887474742       -1.19086392708661       -0.02606600999755
C           -6.76710820881644       -2.30456173002475        0.28913665128002
C           -5.40766882301484       -2.26286891045943        0.10155340897659
C           -4.78355883962504       -1.11552835729314       -0.40762335415328
C           -3.37618912381232       -1.00806337006598       -0.58387889137519
C           -2.97541937101185       -4.12813303766970       -1.00764133722376
C           -2.93388366439673       -5.49105548196176       -0.79981237485954
H           -0.44633306468536       -7.67524479228337        1.67778405109693
H           -1.94607630417217       -7.59420185816201        2.62054273391869
H           -1.50053374956331       -9.07910303273944        1.78958080642878
H           -4.26509001258723       -7.84298083010572       -0.31431484770928
H           -3.69147602291575       -9.14810535758490        0.71944976854696
H           -4.18904849424819       -7.61103131584538        1.43113610176577
H           -2.10470405221716       -7.96045685197559       -1.67123533587339
H           -1.51489737432405       -9.26181446147926       -0.64201216927462
H           -0.55029270504164       -7.79862601224762       -0.85578730693753
H           -1.13887896606347       -5.54495595985397        2.05208134390621
H           -1.21551616597635       -3.14011981402248        1.69966990678433
H            0.09537738905095       -3.32112469534848       -1.65427383820595
H            2.48471508340048       -3.84632503542911       -1.43924420457855
H            4.58635250663651       -2.22928037208713        2.08362792870604
H            6.93832140278588       -1.43844700492071        1.96285186825879
H            6.51295490509548        0.92269650679319       -2.24904830968267
H            4.30340284631263        2.03406664866848       -2.03108975806553
H            2.30850183593829        1.14715546835254       -0.88002396284632
H           -0.03830664362516        1.74360002005934       -0.52059149298817
H           -0.87513286184918        1.22407544464668        1.88012902724237
H           -2.95368743770487        0.07273776254542        2.55227465641702
H           -5.12519737860482        1.18554351914785        2.36850898033342
H           -5.28218717804808        3.51716183328206        1.55871117503437
H           -4.76616673640538        6.02830691728981        0.56886351576678
H           -3.71716837142987        8.06065988517561       -0.37645790158614
H           -1.30738650973738        8.13975330740886       -0.80052403698577
H            0.14134806569734        6.21409080859458       -0.27910902073218
H            1.19054774433039        5.14921552113169        1.76315932301423
H            3.54657616595039        4.51948397890305        1.43133591988087
H            5.00765183751318        2.56229765760012        2.14958751788017
H            7.20256814127902        1.41905565595744        1.90910793765518
H            6.84758833210169       -1.73819171212157       -2.26976659120330
H            4.48551837653264       -2.50502899185595       -2.18024672076762
H            2.92884551042902       -0.67191418238742        1.38719627518816
H            0.54750893813080       -0.14726355001862        1.16527648721500
H           -1.83182275420981        2.52998508099474       -1.81822878448813
H           -3.18219165560321        4.52072638762080       -2.42263182243351
H           -5.64044839205527        4.41191711575747       -2.23920824484899
H           -6.74257730020384        2.39372894280626       -1.49214952821486
H           -7.56967946032529        0.80097402413251       -0.71916226347968
H           -8.60923477352091       -1.21928367527070        0.11837737225956
H           -7.23302895504484       -3.19469119458256        0.68545962853467
H           -4.80777173436236       -3.11975497146597        0.36670566406195
H           -3.48498718117498       -3.71849473103344       -1.86786734183908
H           -3.42233110904171       -6.13141911786846       -1.51793891887008

          :  Hamiltonian                  GFN2-xTB          :
         :: gradient norm              0.000084563529 Eh/a0 ::
         :: HOMO-LUMO gap              2.091059922775 eV    ::
         :: SCC energy              -176.907346150727 Eh    ::
         :: -> dispersion             -0.187772186299 Eh    ::
         :: repulsion energy           3.108182979981 Eh    ::

    * Orbital Energies and Occupations

         #    Occupation            Energy/Eh            Energy/eV
      -------------------------------------------------------------
         1        2.0000           -0.7677350             -20.8911
       ...           ...                  ...                  ...
       149        2.0000           -0.4136163             -11.2551
       150        2.0000           -0.4132970             -11.2464
       151        2.0000           -0.4074063             -11.0861
       152        2.0000           -0.4046409             -11.0108
       153        2.0000           -0.4013731             -10.9219
       154        2.0000           -0.4007720             -10.9056
       155        2.0000           -0.3995991             -10.8736
       156        2.0000           -0.3973841             -10.8134
       157        2.0000           -0.3827555             -10.4153
       158        2.0000           -0.3812789             -10.3751
       159        2.0000           -0.3748198             -10.1994
       160        2.0000           -0.3657650              -9.9530
       161        2.0000           -0.3585658              -9.7571 (HOMO)
       162                         -0.2817207              -7.6660 (LUMO)
       163                         -0.2636479              -7.1742
       164                         -0.2551550              -6.9431
       165                         -0.2513878              -6.8406
       166                         -0.2490776              -6.7777
       167                         -0.2427255              -6.6049
       168                         -0.2421586              -6.5895
       169                         -0.2414039              -6.5689
       170                         -0.2402993              -6.5389
       171                         -0.2386432              -6.4938
       172                         -0.2356999              -6.4137
       ...                                ...                  ...
       318                          1.2227683              33.2732
      -------------------------------------------------------------
                  HL-Gap            0.0768451 Eh            2.0911 eV

     #   Z          covCN         q      C6AA      α(0)
     1   6 C        3.761    -0.109    22.638     6.783
     2   6 C        3.903     0.026    20.080     6.370
     3   6 C        3.762    -0.107    22.586     6.775
     4   6 C        3.762    -0.107    22.586     6.775
     5   6 C        2.973     0.010    27.780     8.646
     6   6 C        2.926    -0.037    28.930     8.821
     7   6 C        2.921    -0.043    29.058     8.840
     8   6 C        2.915     0.061    26.639     8.464
     9   7 N        2.840    -0.041    22.037     6.972
    10   6 C        3.203     0.129    24.647     8.088
    11   6 C        2.975     0.005    27.902     8.665
    12   6 C        2.920    -0.030    28.747     8.792
    13   6 C        2.921    -0.032    28.805     8.801
    14   6 C        2.979     0.011    27.766     8.643
    15   6 C        2.983     0.015    27.675     8.629
    16   6 C        2.926    -0.032    28.793     8.800
    17   6 C        2.969    -0.032    28.789     8.801
    18   6 C        2.971    -0.084    30.106     9.000
    19  16 S        3.835     0.956   107.914    17.484
    20   8 O        0.860    -0.531    24.480     6.634
    21   8 O        0.860    -0.531    24.482     6.634
    22   6 C        2.970    -0.082    30.057     8.993
    23   6 C        2.961    -0.031    28.782     8.800
    24   6 C        2.926    -0.031    28.783     8.798
    25   6 C        2.977     0.017    27.629     8.622
    26   6 C        2.976     0.005    27.917     8.667
    27   6 C        2.927    -0.032    28.793     8.800
    28   6 C        2.919    -0.049    29.212     8.863
    29   6 C        2.913     0.066    26.522     8.445
    30   7 N        2.801    -0.043    22.062     6.976
    31   6 C        3.080     0.050    26.789     8.485
    32   6 C        2.911    -0.045    29.107     8.847
    33   6 C        2.924    -0.032    28.789     8.799
    34   6 C        2.920    -0.040    28.995     8.830
    35   6 C        2.913    -0.031    28.781     8.797
    36   6 C        3.068    -0.016    28.341     8.729
    37   6 C        3.070    -0.016    28.333     8.728
    38   6 C        2.913    -0.032    28.790     8.798
    39   6 C        2.920    -0.041    29.027     8.835
    40   6 C        2.924    -0.034    28.849     8.808
    41   6 C        2.910    -0.051    29.270     8.871
    42   6 C        3.079     0.048    26.844     8.494
    43   6 C        2.920    -0.043    29.068     8.841
    44   6 C        2.922    -0.034    28.838     8.806
    45   6 C        2.926    -0.032    28.789     8.799
    46   6 C        2.952    -0.030    28.747     8.794
    47   6 C        2.961    -0.030    28.743     8.794
    48   6 C        2.927    -0.031    28.773     8.797
    49   6 C        2.930    -0.032    28.806     8.802
    50   6 C        2.929    -0.026    28.654     8.779
    51   7 N        1.897    -0.299    28.604     7.929
    52   6 C        3.207     0.058    26.107     8.321
    53   6 C        2.985     0.003    27.958     8.673
    54   6 C        2.922    -0.029    28.737     8.791
    55   6 C        2.917    -0.028    28.690     8.783
    56   6 C        2.918    -0.031    28.767     8.795
    57   6 C        2.922    -0.034    28.837     8.806
    58   6 C        2.980    -0.000    28.026     8.684
    59   6 C        2.980     0.003    27.947     8.672
    60   6 C        2.923    -0.033    28.822     8.804
    61   6 C        2.917    -0.033    28.830     8.805
    62   6 C        2.917    -0.032    28.796     8.800
    63   6 C        2.919    -0.039    28.978     8.828
    64   6 C        2.979    -0.001    28.036     8.685
    65   6 C        3.082     0.019    27.486     8.595
    66   6 C        2.920    -0.040    29.005     8.832
    67   6 C        2.928    -0.034    28.839     8.807
    68   1 H        0.925     0.037     2.491     2.468
    69   1 H        0.925     0.037     2.484     2.465
    70   1 H        0.925     0.040     2.446     2.446
    71   1 H        0.925     0.038     2.475     2.460
    72   1 H        0.925     0.041     2.434     2.440
    73   1 H        0.925     0.035     2.510     2.477
    74   1 H        0.925     0.038     2.479     2.462
    75   1 H        0.925     0.041     2.431     2.438
    76   1 H        0.925     0.035     2.522     2.484
    77   1 H        0.926     0.045     2.380     2.412
    78   1 H        0.926     0.035     2.516     2.480
    79   1 H        0.926     0.034     2.531     2.488
    80   1 H        0.926     0.039     2.457     2.451
    81   1 H        0.926     0.049     2.334     2.389
    82   1 H        0.926     0.057     2.235     2.338
    83   1 H        0.926     0.054     2.273     2.358
    84   1 H        0.926     0.049     2.326     2.385
    85   1 H        0.926     0.035     2.522     2.484
    86   1 H        0.925     0.078     2.004     2.214
    87   1 H        0.926     0.022     2.697     2.568
    88   1 H        0.926     0.020     2.733     2.585
    89   1 H        0.926     0.024     2.674     2.557
    90   1 H        0.926     0.029     2.600     2.522
    91   1 H        0.926     0.029     2.593     2.518
    92   1 H        0.926     0.027     2.627     2.535
    93   1 H        0.926     0.028     2.611     2.527
    94   1 H        0.926     0.026     2.641     2.541
    95   1 H        0.926     0.042     2.416     2.431
    96   1 H        0.926     0.038     2.478     2.462
    97   1 H        0.926     0.048     2.340     2.392
    98   1 H        0.926     0.059     2.215     2.327
    99   1 H        0.926     0.060     2.200     2.319
   100   1 H        0.926     0.049     2.327     2.386
   101   1 H        0.926     0.035     2.510     2.478
   102   1 H        0.926     0.045     2.379     2.412
   103   1 H        0.926     0.042     2.423     2.434
   104   1 H        0.926     0.029     2.601     2.522
   105   1 H        0.926     0.029     2.596     2.520
   106   1 H        0.926     0.032     2.562     2.503
   107   1 H        0.926     0.034     2.524     2.484
   108   1 H        0.926     0.029     2.602     2.523
   109   1 H        0.926     0.027     2.628     2.535
   110   1 H        0.926     0.027     2.636     2.539
   111   1 H        0.926     0.040     2.444     2.444
   112   1 H        0.926     0.040     2.454     2.450

molecular dipole:
                 x           y           z       tot (Debye)
 q only:       -2.707      -1.437       0.337
   full:       -2.842      -1.748       0.376       8.535

 projected vibrational frequencies (cm⁻¹)
eigval :       -0.00    -0.00    -0.00     0.00     0.00     0.00
eigval :       11.29    13.84    15.96    22.12    24.95    27.59
eigval :       28.63    37.13    41.93    42.79    49.46    55.80
eigval :       60.78    67.63    71.97    73.90    78.74    88.98
eigval :       99.28   100.66   102.50   112.86   115.36   120.55
eigval :      124.88   129.09   135.16   141.69   146.49   154.60
eigval :      156.04   171.21   178.38   187.09   204.58   211.41
eigval :      214.30   223.84   228.84   237.97   239.98   254.55
eigval :      271.13   272.61   276.01   283.49   294.21   301.84
eigval :      309.36   316.41   316.80   330.50   351.31   358.24
eigval :      364.61   366.57   368.10   372.07   375.96   383.21
eigval :      387.76   389.52   393.86   397.35   401.35   405.27
eigval :      413.50   421.61   423.64   430.69   434.41   437.50
eigval :      446.27   450.48   455.73   463.49   478.58   486.33
eigval :      506.80   513.15   519.92   520.32   527.72   533.65
eigval :      535.46   537.16   541.84   545.22   550.44   565.19
eigval :      583.02   584.97   591.22   593.53   598.79   600.15
eigval :      604.47   611.20   616.84   631.67   640.98   649.02
eigval :      657.12   672.40   673.33   678.61   682.67   683.35
eigval :      691.66   696.10   697.99   706.10   709.50   712.37
eigval :      719.90   734.63   756.51   758.42   763.43   767.01
eigval :      768.14   776.28   779.61   783.67   795.38   808.06
eigval :      811.15   822.33   827.78   837.66   859.32   862.31
eigval :      864.18   867.42   871.34   871.97   873.42   876.80
eigval :      884.06   890.60   897.74   899.28   902.03   908.31
eigval :      910.21   913.68   914.99   915.48   919.73   920.00
eigval :      920.85   922.50   924.51   925.61   926.82   927.50
eigval :      929.63   930.46   930.70   941.25   954.43   961.07
eigval :      963.15   964.22   965.98   976.96   979.47  1000.04
eigval :     1013.18  1013.29  1016.89  1034.03  1035.63  1036.05
eigval :     1067.94  1072.09  1073.51  1074.64  1075.63  1087.83
eigval :     1088.73  1107.43  1108.82  1114.84  1117.36  1120.16
eigval :     1137.22  1138.06  1138.97  1139.63  1142.76  1147.27
eigval :     1150.53  1155.22  1175.42  1175.82  1176.94  1180.88
eigval :     1181.57  1183.17  1185.23  1187.29  1197.88  1202.78
eigval :     1203.20  1214.63  1228.01  1234.17  1235.98  1243.47
eigval :     1245.06  1249.03  1254.47  1256.23  1258.25  1267.31
eigval :     1267.93  1276.14  1283.32  1285.10  1286.56  1287.14
eigval :     1301.73  1303.74  1307.22  1312.54  1317.72  1319.65
eigval :     1323.63  1325.19  1338.96  1340.92  1355.61  1359.29
eigval :     1364.07  1367.79  1379.49  1381.98  1384.30  1400.38
eigval :     1404.34  1406.79  1407.17  1409.91  1411.64  1422.33
eigval :     1428.99  1430.43  1430.65  1433.01  1436.91  1447.46
eigval :     1457.31  1477.63  1479.42  1489.94  1491.45  1492.63
eigval :     1493.39  1498.36  1502.65  1506.54  1514.42  1516.64
eigval :     1518.82  1521.57  1545.55  1557.14  1559.52  1565.40
eigval :     1570.86  1572.02  1573.15  1574.04  1574.80  1575.67
eigval :     1576.60  1591.57  1593.45  1595.59  1600.84  1601.72
eigval :     1602.57  1606.86  1617.75  3026.45  3027.43  3029.83
eigval :     3032.03  3035.13  3037.49  3041.55  3047.88  3051.50
eigval :     3067.28  3068.56  3074.01  3074.41  3075.22  3076.23
eigval :     3078.58  3080.05  3080.97  3081.81  3082.69  3083.60
eigval :     3084.76  3085.63  3086.01  3086.24  3086.56  3086.91
eigval :     3087.87  3088.42  3089.28  3091.44  3092.60  3094.97
eigval :     3096.48  3096.70  3097.90  3099.98  3100.89  3103.25
eigval :     3104.53  3105.12  3105.74  3110.60  3117.84  3121.72

   temp. (K)  partition function   enthalpy   heat capacity  entropy
                                   cal/mol     cal/K/mol   cal/K/mol   J/K/mol
 298.15  VIB  0.911E+25            33035.462    207.936    204.702
         ROT  0.196E+09              888.752      2.981     40.930
         INT  0.179E+34            33924.214    210.916    245.632
         TR   0.254E+29             1481.254      4.968     46.193
         TOT                       35405.4683   215.8846   291.8257  1220.9988

       T/K    H(0)-H(T)+PV         H(T)/Eh          T*S/Eh         G(T)/Eh
   ------------------------------------------------------------------------
    298.15    0.564222E-01    0.925432E+00    0.138656E+00    0.786776E+00
   ------------------------------------------------------------------------

         :::::::::::::::::::::::::::::::::::::::::::::::::::::
         ::                  THERMODYNAMIC                  ::
         :::::::::::::::::::::::::::::::::::::::::::::::::::::
         :: total free energy        -173.012387362936 Eh   ::
         ::.................................................::
         :: total energy             -173.799163170737 Eh   ::
         :: zero point energy           0.869009417207 Eh   ::
         :: G(RRHO) w/o ZPVE           -0.082233609405 Eh   ::
         :: G(RRHO) contrib.            0.786775807802 Eh   ::
         :::::::::::::::::::::::::::::::::::::::::::::::::::::

           -------------------------------------------------
          | TOTAL ENERGY             -173.799163170737 Eh   |
          | TOTAL ENTHALPY           -172.873731548444 Eh   |
          | TOTAL FREE ENERGY        -173.012387362936 Eh   |
          | GRADIENT NORM               0.000084538273 Eh/α |
          | HOMO-LUMO GAP               2.091061035066 eV   |
           -------------------------------------------------

 * finished run on 2025/09/07 at 02:10:33.230
