   * xtb version 6.7.1 (edcfbbe) compiled by 'albert@albert-system' on 2024-07-22

   ID    Z sym.   atoms
    1    6 C      1-8, 10-18, 22-29, 31-50, 52-67
    2    7 N      9, 30, 51
    3   16 S      19
    4    8 O      20, 21
    5    1 H      68-112

          program call               : xtb data2507/gas/PSBC/PSBC_gas_T1_crest.xyz --gfn 2 --spinpol --tblite --uhf 2 --ohess vtight --parallel 40 --molden --ceasefiles --namespace data2507/gas/PSBC/PSBC_gas_T1_finalOpt
 * total energy  :  -173.7246703 Eh     change       -0.2402533E-07 Eh
 * total energy  :  -173.7246845 Eh     change       -0.1415673E-04 Eh
 * total energy  :  -173.7246910 Eh     change       -0.6495761E-05 Eh
 * total energy  :  -173.7246930 Eh     change       -0.2025210E-05 Eh
 * total energy  :  -173.7246964 Eh     change       -0.3385604E-05 Eh
 * total energy  :  -173.7246985 Eh     change       -0.2075291E-05 Eh
 * total energy  :  -173.7246999 Eh     change       -0.1457649E-05 Eh
 * total energy  :  -173.7247009 Eh     change       -0.9759271E-06 Eh
 * total energy  :  -173.7247019 Eh     change       -0.1000807E-05 Eh
 * total energy  :  -173.7247036 Eh     change       -0.1692109E-05 Eh
 * total energy  :  -173.7247090 Eh     change       -0.1163741E-05 Eh
 * total energy  :  -173.7247100 Eh     change       -0.1058473E-05 Eh
 * total energy  :  -173.7247110 Eh     change       -0.9033928E-06 Eh
 * total energy  :  -173.7247118 Eh     change       -0.8707547E-06 Eh
 * total energy  :  -173.7247126 Eh     change       -0.7773831E-06 Eh
 * total energy  :  -173.7247133 Eh     change       -0.6756384E-06 Eh
 * total energy  :  -173.7247139 Eh     change       -0.5852285E-06 Eh
 * total energy  :  -173.7247138 Eh     change        0.5011373E-07 Eh
 * total energy  :  -173.7247139 Eh     change       -0.5775399E-07 Eh
   *** GEOMETRY OPTIMIZATION CONVERGED AFTER 23 ITERATIONS ***

 final structure:
================
112
 xtb: 6.7.1 (edcfbbe)
C            1.50131833544772       -5.86960754454172        0.42438491619940
C           -0.01472561659215       -5.81211916372245        0.18956275905715
C           -0.66770803169601       -6.93141362435925        1.00474297409337
C           -0.32422874220532       -6.05718160568995       -1.29438433022907
C           -0.52367103278989       -4.43284452286407        0.57366609767140
C           -1.47445419539269       -4.22676626577030        1.56762524644822
C           -1.92469924458781       -2.95735409708032        1.88255888578369
C           -1.43295394036301       -1.85367809789410        1.19652828171146
N           -1.86901508680272       -0.55200377065219        1.50087015300306
C           -1.01842121791948        0.48807512424221        1.92091159597913
C            0.32413840807037        0.38436879578583        2.29112820866677
C            1.04559005490653       -0.82870935391081        2.52027857848714
C            2.39662221912659       -0.82530415924095        2.62700261940072
C            3.16769671708949        0.37475097905378        2.52747947512379
C            4.56608710583993        0.36619465172594        2.27212778625616
C            5.35410627999148        1.54873524084057        2.32548445562001
C            6.57707695687362        1.61365859360957        1.71460807427732
C            7.09390445250323        0.49478185536306        1.06010095078431
S            8.09153088012904        0.76075041036069       -0.39452276038292
O            8.83102876209443        1.99071698353591       -0.30300846634195
O            8.78870794292081       -0.43433149692664       -0.78820245962672
C            6.60071875087107        0.97364418856157       -1.38308719958391
C            5.96993692453967       -0.15465562733171       -1.87906265591272
C            4.62006404239220       -0.11250711472002       -2.16927396013391
C            3.88237467126248        1.04779465455164       -1.93210095753036
C            2.41667521608854        1.02827675813257       -2.00723948758840
C            1.67442894553469        1.62944333258945       -0.99066785959567
C            0.29666431231236        1.56584662552089       -0.98065222288365
C           -0.38067712440146        0.91080025573885       -2.00733984674804
N           -1.77870864990505        0.83473354104253       -2.00054877238847
C           -2.64591597901806        1.89028154051354       -1.77909563590196
C           -2.37396355404926        3.22079511713313       -1.49424910977874
C           -3.44360639313845        4.08467013955827       -1.35954390864219
C           -4.75689057848652        3.65002758267732       -1.51550176313567
C           -5.03407327265315        2.33233161415858       -1.81823452046527
C           -3.97572346673332        1.44558428497644       -1.95579448711104
C           -3.90145509520158        0.05248649377198       -2.29383395716937
C           -4.86004603826213       -0.90713557330669       -2.58402833163988
C           -4.44534046498012       -2.19590172503375       -2.85615271869588
C           -3.09487502099271       -2.53167269610981       -2.82721297576084
C           -2.12147902236623       -1.58838675217488       -2.55823681571804
C           -2.52881109986579       -0.28525022519674       -2.30909709483791
C            0.35215756729614        0.33287014212898       -3.04366142043635
C            1.73185349648036        0.37951895214340       -3.03284129606268
C            4.55463830648330        2.20254308756475       -1.52539785579736
C            5.90586039040683        2.16525932629987       -1.25085508334164
C            6.43048299718835       -0.72874982832369        1.16458252980875
C            5.20994958259436       -0.80143541271717        1.77852629874180
C            2.41621915361507        1.59211672292586        2.57352343631009
C            1.06714723519118        1.59901702140150        2.46128945556625
N           -1.68688171645952        1.65672809816733        1.95216370280333
C           -2.94363528864084        1.38496921197023        1.62079059230111
C           -4.04321067417324        2.28890935844604        1.59410933195116
C           -3.86364497288812        3.63936664300239        1.90402490749069
C           -4.93859694235245        4.49624314659949        1.92557341578520
C           -6.20704019597573        4.00087652980881        1.64256273435147
C           -6.39247035867828        2.67173099131704        1.32759685079925
C           -5.31987794884277        1.77206542707164        1.28103536439263
C           -5.47501041299233        0.37112466608878        0.92422285788037
C           -6.71956974168200       -0.15589726229870        0.57147797599362
C           -6.88478039825857       -1.47634994049875        0.21213493188078
C           -5.78342250676648       -2.32559758957041        0.15939333199662
C           -4.54124672064923       -1.84992700603773        0.49130981878837
C           -4.35430577800975       -0.51740352362522        0.90785391432776
C           -3.10705825425536        0.00424742192268        1.31596906753065
C           -0.46401101101895       -2.03812546493043        0.21521142845244
C           -0.02475430064068       -3.31040295862076       -0.08515013650228
H            2.02621512164248       -5.13402268226684       -0.17861339386591
H            1.72707749435768       -5.67651953887799        1.47112554300803
H            1.88159316081933       -6.85536498682936        0.16627469671962
H           -1.74511962591129       -6.94736104460520        0.85721678218273
H           -0.27142436818276       -7.89165185273125        0.68162328444122
H           -0.45303280125087       -6.82145488867614        2.06519362232157
H           -1.39611156554120       -5.99114842064558       -1.47003836175904
H            0.01267785541005       -7.04895767825809       -1.58740976951538
H            0.17150085804822       -5.32861272525399       -1.92975305933048
H           -1.87974125684681       -5.05736527587413        2.12122333061561
H           -2.65700444302101       -2.81765015604031        2.66477676200264
H            0.50648624380205       -1.75407492209633        2.64519595213417
H            2.90382345678015       -1.75812785867578        2.81978930221196
H            4.97214670800592        2.42271662199024        2.82877396932696
H            7.14734748389449        2.52965543225761        1.69249403841641
H            6.54310397232040       -1.06149444961689       -1.99336844336855
H            4.11596106000640       -1.00323730808632       -2.51426350417941
H            2.18731572418060        2.11376396417774       -0.17397051269367
H           -0.25711611176586        1.99932788457068       -0.16279374371841
H           -1.36200103064528        3.58106894361099       -1.39732544544708
H           -3.25560434444755        5.12388105581854       -1.13538055424059
H           -5.56454569427589        4.35724108338384       -1.40294998016433
H           -6.04958999747756        1.99317323995843       -1.95514986399133
H           -5.90744597079199       -0.64734815313173       -2.58871930264109
H           -5.17524942098322       -2.95688829589200       -3.08793039625298
H           -2.79730574609297       -3.55100541835402       -3.02488890144123
H           -1.08010310397534       -1.86791112556594       -2.54094476893833
H           -0.16804942142881       -0.13790633724066       -3.86427086450924
H            2.28609621141204       -0.06666085230151       -3.84537268646825
H            4.00316248376099        3.12256176917587       -1.40148408059410
H            6.43272924576357        3.03740553126194       -0.89664098291458
H            6.88184575321574       -1.59628593737567        0.70833000060685
H            4.69295701112753       -1.74715632316756        1.80106971180996
H            2.93902512494417        2.53268252342102        2.64376917105989
H            0.51055523456177        2.52250163475414        2.44433482433582
H           -2.86445608571685        3.97630736848671        2.13096448709425
H           -4.80498547508607        5.54026987345153        2.16541996697371
H           -7.05949617401163        4.66426493095846        1.66842610589770
H           -7.39570447013067        2.33827790427717        1.11576418739031
H           -7.59083087017877        0.47903954113128        0.57498697635410
H           -7.86657217719165       -1.84633061608859       -0.04330437665585
H           -5.90345714047237       -3.35300773398157       -0.14901418199169
H           -3.68883030656372       -2.50346290419041        0.41386396626064
H           -0.05272586579753       -1.17953904584612       -0.29446812288012
H            0.72591790857394       -3.42200587397435       -0.85237787797426

 projected vibrational frequencies (cm⁻¹)
eigval :       -0.00    -0.00    -0.00    -0.00     0.00     0.00
eigval :        6.69    12.19    14.85    19.21    22.75    28.57
eigval :       31.14    33.79    45.22    51.78    60.10    61.63
eigval :       70.68    75.46    78.79    83.78    86.04    96.20
eigval :       98.34   104.72   112.68   114.70   117.45   125.91
eigval :      128.41   131.97   136.64   146.73   149.87   163.69
eigval :      168.18   174.99   178.04   183.18   201.94   213.70
eigval :      216.38   218.69   228.76   239.72   244.64   254.15
eigval :      261.49   267.58   276.21   277.87   288.78   301.59
eigval :      308.44   312.18   316.84   330.23   343.35   354.44
eigval :      360.41   363.56   367.20   372.96   379.32   386.97
eigval :      388.26   391.69   392.68   394.97   398.74   402.24
eigval :      413.28   415.16   419.51   423.81   427.03   434.26
eigval :      436.95   443.11   449.54   454.19   461.48   471.19
eigval :      488.61   500.64   502.27   506.35   517.45   523.10
eigval :      526.27   536.70   540.89   542.38   548.63   560.06
eigval :      579.94   582.28   582.67   591.90   595.66   596.90
eigval :      598.20   600.15   616.81   619.51   626.97   631.11
eigval :      648.37   654.65   664.96   667.55   671.91   673.91
eigval :      676.54   679.04   693.61   694.54   705.75   710.48
eigval :      717.98   730.80   744.30   754.77   756.19   759.30
eigval :      769.56   773.83   776.44   780.78   784.94   790.76
eigval :      800.73   802.41   804.69   818.99   824.88   833.58
eigval :      855.60   865.29   867.41   869.37   872.66   877.42
eigval :      882.03   884.52   897.59   899.85   902.03   902.56
eigval :      904.11   905.81   907.65   910.14   914.05   916.21
eigval :      917.27   919.98   920.31   923.95   924.48   924.83
eigval :      925.73   927.73   931.69   935.25   936.57   947.98
eigval :      951.90   958.50   960.74   962.94   964.32   976.80
eigval :      999.82  1008.68  1012.11  1012.93  1019.38  1034.98
eigval :     1035.04  1063.74  1070.55  1073.17  1074.03  1077.56
eigval :     1084.34  1095.00  1098.61  1106.93  1116.74  1118.96
eigval :     1121.44  1126.13  1138.22  1139.84  1141.58  1143.38
eigval :     1149.21  1153.93  1159.64  1176.14  1178.25  1179.86
eigval :     1181.31  1182.90  1184.36  1185.38  1194.31  1202.81
eigval :     1205.04  1214.89  1227.72  1233.83  1234.75  1235.89
eigval :     1242.64  1244.28  1244.84  1249.75  1254.06  1254.73
eigval :     1263.19  1266.73  1276.82  1282.39  1286.47  1288.22
eigval :     1288.67  1297.33  1299.70  1302.09  1314.85  1315.33
eigval :     1323.39  1332.25  1335.27  1337.04  1337.36  1358.71
eigval :     1359.90  1361.04  1366.02  1377.24  1384.68  1391.44
eigval :     1394.75  1399.31  1406.11  1409.62  1410.48  1412.84
eigval :     1419.63  1425.50  1427.50  1427.72  1428.40  1443.23
eigval :     1444.60  1452.30  1466.32  1473.64  1474.67  1481.35
eigval :     1488.42  1490.38  1491.99  1492.66  1497.28  1501.64
eigval :     1505.19  1509.13  1513.84  1518.20  1523.50  1540.02
eigval :     1547.45  1553.12  1560.79  1562.05  1564.53  1565.78
eigval :     1571.76  1575.36  1586.21  1587.81  1590.60  1592.86
eigval :     1596.25  1596.68  1613.65  3026.35  3026.72  3029.84
eigval :     3031.21  3035.24  3037.22  3042.01  3047.50  3051.01
eigval :     3075.63  3077.71  3079.74  3080.63  3081.80  3081.84
eigval :     3083.37  3084.21  3084.79  3085.44  3086.04  3087.54
eigval :     3088.07  3089.27  3091.81  3092.61  3094.79  3095.06
eigval :     3095.54  3096.18  3096.72  3097.56  3099.29  3101.00
eigval :     3101.52  3102.54  3103.51  3103.78  3105.46  3108.05
eigval :     3108.39  3110.14  3111.07  3111.28  3120.15  3131.42

   temp. (K)  partition function   enthalpy   heat capacity  entropy
                                   cal/mol     cal/K/mol   cal/K/mol   J/K/mol
 298.15  VIB  0.752E+25            33162.538    210.636    205.123
         ROT  0.148E+09              888.752      2.981     40.362
         INT  0.111E+34            34051.290    213.617    245.484
         TR   0.254E+29             1481.254      4.968     46.193
         TOT                       35532.5438   218.5848   291.6778  1220.3801

       T/K    H(0)-H(T)+PV         H(T)/Eh          T*S/Eh         G(T)/Eh
   ------------------------------------------------------------------------
    298.15    0.566247E-01    0.922289E+00    0.138586E+00    0.783704E+00
   ------------------------------------------------------------------------

         :::::::::::::::::::::::::::::::::::::::::::::::::::::
         ::                  THERMODYNAMIC                  ::
         :::::::::::::::::::::::::::::::::::::::::::::::::::::
         :: total free energy        -172.941010296042 Eh   ::
         ::.................................................::
         :: total energy             -173.724713868057 Eh   ::
         :: zero point energy           0.865664413198 Eh   ::
         :: G(RRHO) w/o ZPVE           -0.081960841183 Eh   ::
         :: G(RRHO) contrib.            0.783703572015 Eh   ::
         :::::::::::::::::::::::::::::::::::::::::::::::::::::

           -------------------------------------------------
          | TOTAL ENERGY             -173.724713868057 Eh   |
          | TOTAL ENTHALPY           -172.802424742013 Eh   |
          | TOTAL FREE ENERGY        -172.941010296042 Eh   |
          | GRADIENT NORM               0.000147824939 Eh/α |
           -------------------------------------------------

 * finished run on 2025/09/07 at 02:27:10.285
