   * xtb version 6.7.1 (edcfbbe) compiled by 'albert@albert-system' on 2024-07-22

   ID    Z sym.   atoms
    1    8 O      1
    2    6 C      2-6, 8-42, 44-74
    3    7 N      7, 43
    4    1 H      75-118

          program call               : xtb data2507/gas/2SPBAC-BP/2SPBAC-BP_gas_S0_crest.xyz --gfn 2 --ohess vtight --parallel 40 --molden --ceasefiles --namespace data2507/gas/2SPBAC-BP/2SPBAC-BP_gas_S0_finalOpt
          :  Hamiltonian                  GFN2-xTB          :
 * total energy  :  -184.4757804 Eh     change       -0.3726228E-08 Eh
 * total energy  :  -184.4757829 Eh     change       -0.2526920E-05 Eh
 * total energy  :  -184.4757853 Eh     change       -0.2424011E-05 Eh
 * total energy  :  -184.4757907 Eh     change       -0.5318593E-05 Eh
 * total energy  :  -184.4757959 Eh     change       -0.5193392E-05 Eh
 * total energy  :  -184.4758000 Eh     change       -0.4186479E-05 Eh
 * total energy  :  -184.4758050 Eh     change       -0.4993654E-05 Eh
 * total energy  :  -184.4758134 Eh     change       -0.8323575E-05 Eh
 * total energy  :  -184.4758267 Eh     change       -0.1329329E-04 Eh
 * total energy  :  -184.4758418 Eh     change       -0.1517290E-04 Eh
 * total energy  :  -184.4789490 Eh     change       -0.2512609E-05 Eh
 * total energy  :  -184.4789516 Eh     change       -0.2530162E-05 Eh
 * total energy  :  -184.4789538 Eh     change       -0.2219610E-05 Eh
 * total energy  :  -184.4789556 Eh     change       -0.1833811E-05 Eh
 * total energy  :  -184.4789570 Eh     change       -0.1396368E-05 Eh
 * total energy  :  -184.4789582 Eh     change       -0.1172723E-05 Eh
 * total energy  :  -184.4789592 Eh     change       -0.1028180E-05 Eh
 * total energy  :  -184.4789603 Eh     change       -0.1069177E-05 Eh
 * total energy  :  -184.4789603 Eh     change       -0.6030859E-08 Eh
   *** GEOMETRY OPTIMIZATION CONVERGED AFTER 420 ITERATIONS ***

 final structure:
================
118
 xtb: 6.7.1 (edcfbbe)
O           -0.02445652785280        7.09539437119877       -0.19952440115153
C           -0.01998918409888        5.89360819150914       -0.16709012979729
C           -1.20223232281879        4.99085904519098       -0.00049022516681
C           -1.17723088142965        4.06038004941988        1.03767369414552
C           -2.09483840202737        3.03458865587907        1.06916865341139
C           -3.01732817294792        2.89048125008453        0.03642107860647
N           -3.78798233765135        1.70232398691168       -0.00768191800123
C           -5.13956079753044        1.71245543559482        0.30368845696089
C           -5.81950662993623        2.91996010230131        0.47460314613119
C           -7.16900090572857        2.93344867531574        0.76324645949385
C           -7.86696320739564        1.74506799353118        0.89221441322363
C           -7.19251197878479        0.54578371336223        0.75621323814330
C           -5.83662681109720        0.51218641929872        0.46872339416841
C           -5.12154717438401       -0.81623017655616        0.43798617361809
C           -5.94939305080201       -1.89174843020959       -0.23082986332986
C           -6.39083818124687       -1.93839747848343       -1.53474350556117
C           -7.14539572315102       -3.03120997117663       -1.94031179800416
C           -7.44663247484527       -4.05406816352718       -1.05389212597009
C           -7.00251185948750       -4.01251988237083        0.25835346611244
C           -6.25039583249873       -2.92445497110249        0.66885863020854
C           -5.65962305551888       -2.59973787199258        1.95851747241990
C           -5.66331185296063       -3.28431192187743        3.16238684656995
C           -5.01019139613176       -2.72205456902519        4.24778664338208
C           -4.37060781408525       -1.49699993371719        4.13753997155160
C           -4.36438941455445       -0.80571275216962        2.93285744128560
C           -5.00548002953059       -1.36531411956110        1.85021633560512
C           -3.74281571421229       -0.72374496178858       -0.17076203532060
C           -3.07023794237341       -1.87023028290901       -0.49853812375535
C           -1.76713728126908       -1.84708913768514       -1.02960993405414
C           -1.05790673406693       -3.02025431759909       -1.35145775334483
C            0.20763365369129       -2.95063621673030       -1.86329877465010
C            0.81534485267484       -1.70528339432368       -2.08457225186651
C            0.14930161158051       -0.55130514565127       -1.78442465226039
C           -1.15148598831717       -0.58846204434739       -1.24095283189865
C           -1.85072694919874        0.57980881613404       -0.89698002305771
C           -3.11752858329972        0.53284756624523       -0.35110630952260
C           -3.09718541131050        3.86049896081753       -0.95515658630090
C           -2.20221861130470        4.91770700273524       -0.96216879929086
C            1.16906052238397        4.99221551166955       -0.28384840210483
C            2.17198926167226        4.98419187210709        0.67752917195059
C            3.07553502785918        3.93559927030733        0.73076484123852
C            3.00130237998049        2.90794442971579       -0.20141643762333
N            3.78056427043737        1.73004498107536       -0.08955057925824
C            5.13185642773976        1.73095549532299       -0.40262554267833
C            5.80536700897223        2.93129327337337       -0.63751619040932
C            7.15458627440335        2.93662229174838       -0.92770752407802
C            7.85869526121888        1.74676081703177       -0.99473274151245
C            7.19058277170761        0.55281256644423       -0.79539511120046
C            5.83507658988182        0.52730358682277       -0.50521141464446
C            5.12731778181157       -0.80154135890515       -0.40409770794407
C            5.96119388870487       -1.83535339178169        0.32067925980488
C            6.40348657170596       -1.80982566355010        1.62488568776571
C            7.16447531699933       -2.87512645634535        2.08760965948279
C            7.47111996758376       -3.94211352286691        1.25680974550691
C            7.02613392091134       -3.97320532697912       -0.05543280433910
C            6.26766664826473       -2.91286769710804       -0.52285898755775
C            5.67463062013885       -2.66068524074908       -1.82762068329258
C            5.68116587203316       -3.40873566352919       -2.99309677084804
C            5.02430355351274       -2.90890930739372       -4.10642721733070
C            4.37817519798683       -1.68315687223361       -4.06133061710033
C            4.36901085124610       -0.92840730651943       -2.89538053107281
C            5.01397014989054       -1.42571396189991       -1.78499278175288
C            3.74801229573402       -0.68475046045474        0.19906942009220
C            3.08085037381316       -1.81624767817115        0.58492956442795
C            1.77744009702603       -1.77226966342771        1.11388504868310
C            1.07304162816497       -2.93095823447580        1.49360530735895
C           -0.19295877765054       -2.84128141715507        2.00113603796387
C           -0.80584632358774       -1.58901957496500        2.16046832650047
C           -0.14465315879907       -0.44858435091427        1.80327884152903
C            1.15625014350637       -0.50733348768369        1.26196003021950
C            1.85007211326887        0.64516808191204        0.85895577001531
C            3.11657520971411        0.57630692759452        0.31469347444499
C            2.07536652942944        2.98356148306066       -1.23849518335159
C            1.14943833463377        4.00184398347920       -1.26524384626390
H           -0.42634861287068        4.13934729232352        1.81035396647180
H           -2.07366767041281        2.30246632128167        1.86237018169655
H           -5.28309078163299        3.85270146502011        0.39026288089114
H           -7.67502829245449        3.87891182264000        0.88972426612946
H           -8.92287685448195        1.75113561090798        1.11380966297275
H           -7.72157080431713       -0.38727845614783        0.88483499182121
H           -6.15581432390112       -1.14147497729892       -2.22522874357389
H           -7.50244527306611       -3.08508672279372       -2.95823443174502
H           -8.03592423240197       -4.89426492871139       -1.39144999129127
H           -7.23983026542596       -4.81159677337421        0.94502629125673
H           -6.16431058274929       -4.23650533711082        3.25523922742994
H           -5.00099235154855       -3.24306714513946        5.19410542744006
H           -3.87016705939188       -1.07637280182926        4.99760380635122
H           -3.87115862036000        0.15241420599950        2.84966636208279
H           -3.54623267730093       -2.82789787959716       -0.34112635949059
H           -1.53348270358324       -3.97587324762414       -1.18219392542860
H            0.75177448036545       -3.85215826319664       -2.10344285076459
H            1.81651442942015       -1.67204523138119       -2.48933411175928
H            0.60946504688429        0.41194768531810       -1.94908329772151
H           -1.36395959422808        1.52922644252993       -1.06690403940242
H           -3.83129571243954        3.76247288494085       -1.74103985130727
H           -2.23898719674871        5.65647886037867       -1.74893919376979
H            2.20440126108327        5.76850200558457        1.41911486380786
H            3.81184343778379        3.89011305671358        1.51938054860558
H            5.26417259333212        3.86439272059599       -0.60208866548373
H            7.65556506263891        3.87675389247837       -1.10415340088166
H            8.91442117026173        1.74665889334168       -1.21729808755140
H            7.72438424634890       -0.38297133118180       -0.87549434241241
H            6.16431117710567       -0.97848837794156        2.27200832964315
H            7.52236531099180       -2.87253512722765        3.10665900410560
H            8.06539534772098       -4.75971496832438        1.63825906592965
H            7.26770260825875       -4.80642770668748       -0.69866460538856
H            6.18708734609130       -4.36191752640455       -3.03525878428191
H            5.01719135397515       -3.47994180774919       -5.02344724593410
H            3.87478090212832       -1.31193188285622       -4.94216152382753
H            3.87039012545957        0.02999399696843       -2.86307778355495
H            3.56141750126477       -2.77841075539788        0.47644033224825
H            1.55260506970058       -3.89180928192614        1.37196647306672
H           -0.73354944703527       -3.73201984842961        2.28544927834730
H           -1.80717025196410       -1.54004842420695        2.56320510459836
H           -0.60879941182290        0.51976136124991        1.91993429818515
H            1.35915646718252        1.59980282619350        0.98102441945156
H            2.05836569052279        2.20559147852251       -1.98689663751863
H            0.39635472885667        4.02891205753089       -2.03932807137544

          :  Hamiltonian                  GFN2-xTB          :
         :: gradient norm              0.000063162001 Eh/a0 ::
         :: HOMO-LUMO gap              1.785889558084 eV    ::
         :: SCC energy              -187.971673849073 Eh    ::
         :: -> dispersion             -0.209019536976 Eh    ::
         :: repulsion energy           3.492713553092 Eh    ::

    * Orbital Energies and Occupations

         #    Occupation            Energy/Eh            Energy/eV
      -------------------------------------------------------------
         1        2.0000           -0.7248064             -19.7230
       ...           ...                  ...                  ...
       160        2.0000           -0.4020301             -10.9398
       161        2.0000           -0.4002361             -10.8910
       162        2.0000           -0.3992083             -10.8630
       163        2.0000           -0.3979844             -10.8297
       164        2.0000           -0.3969488             -10.8015
       165        2.0000           -0.3960040             -10.7758
       166        2.0000           -0.3956273             -10.7656
       167        2.0000           -0.3813899             -10.3781
       168        2.0000           -0.3812002             -10.3730
       169        2.0000           -0.3740982             -10.1797
       170        2.0000           -0.3737330             -10.1698
       171        2.0000           -0.3508693              -9.5476
       172        2.0000           -0.3504941              -9.5374 (HOMO)
       173                         -0.2848639              -7.7515 (LUMO)
       174                         -0.2602832              -7.0827
       175                         -0.2566915              -6.9849
       176                         -0.2548439              -6.9347
       177                         -0.2527642              -6.8781
       178                         -0.2524803              -6.8703
       179                         -0.2494808              -6.7887
       180                         -0.2482430              -6.7550
       181                         -0.2328019              -6.3349
       182                         -0.2312978              -6.2939
       183                         -0.2256040              -6.1390
       ...                                ...                  ...
       340                          0.7289382              19.8354
      -------------------------------------------------------------
                  HL-Gap            0.0656302 Eh            1.7859 eV

     #   Z          covCN         q      C6AA      α(0)
     1   8 O        0.856    -0.335    20.420     6.059
     2   6 C        2.826     0.241    22.984     7.856
     3   6 C        2.989    -0.013    28.322     8.730
     4   6 C        2.924    -0.027    28.669     8.781
     5   6 C        2.923    -0.034    28.842     8.807
     6   6 C        2.930     0.073    26.360     8.420
     7   7 N        2.754    -0.070    22.588     7.059
     8   6 C        2.922     0.059    26.675     8.470
     9   6 C        2.923    -0.058    29.452     8.900
    10   6 C        2.920    -0.032    28.796     8.800
    11   6 C        2.918    -0.042    29.045     8.838
    12   6 C        2.925    -0.035    28.866     8.811
    13   6 C        2.983    -0.008    28.206     8.712
    14   6 C        3.950     0.013    20.290     6.401
    15   6 C        3.057     0.003    27.907     8.663
    16   6 C        2.914    -0.031    28.782     8.797
    17   6 C        2.923    -0.031    28.780     8.798
    18   6 C        2.921    -0.032    28.806     8.801
    19   6 C        2.914    -0.034    28.851     8.808
    20   6 C        3.035     0.001    27.965     8.674
    21   6 C        3.034     0.002    27.950     8.672
    22   6 C        2.915    -0.033    28.829     8.805
    23   6 C        2.921    -0.032    28.803     8.801
    24   6 C        2.923    -0.032    28.786     8.799
    25   6 C        2.914    -0.031    28.782     8.797
    26   6 C        3.062     0.004    27.881     8.659
    27   6 C        2.980    -0.003    28.090     8.694
    28   6 C        2.924    -0.041    29.028     8.835
    29   6 C        2.987     0.005    27.897     8.664
    30   6 C        2.918    -0.033    28.832     8.805
    31   6 C        2.917    -0.032    28.792     8.799
    32   6 C        2.916    -0.029    28.736     8.790
    33   6 C        2.920    -0.036    28.891     8.814
    34   6 C        2.987     0.011    27.753     8.642
    35   6 C        2.924    -0.067    29.665     8.932
    36   6 C        2.927     0.058    26.704     8.474
    37   6 C        2.920    -0.037    28.923     8.819
    38   6 C        2.921    -0.022    28.559     8.764
    39   6 C        2.989    -0.013    28.324     8.730
    40   6 C        2.921    -0.022    28.558     8.763
    41   6 C        2.920    -0.037    28.925     8.820
    42   6 C        2.930     0.073    26.359     8.420
    43   7 N        2.754    -0.070    22.587     7.059
    44   6 C        2.922     0.059    26.675     8.470
    45   6 C        2.923    -0.058    29.452     8.900
    46   6 C        2.920    -0.032    28.796     8.800
    47   6 C        2.918    -0.042    29.045     8.838
    48   6 C        2.925    -0.035    28.866     8.811
    49   6 C        2.983    -0.008    28.206     8.712
    50   6 C        3.950     0.013    20.290     6.401
    51   6 C        3.057     0.003    27.907     8.663
    52   6 C        2.914    -0.031    28.782     8.797
    53   6 C        2.923    -0.031    28.780     8.798
    54   6 C        2.921    -0.032    28.806     8.801
    55   6 C        2.914    -0.034    28.851     8.808
    56   6 C        3.035     0.001    27.965     8.674
    57   6 C        3.034     0.002    27.950     8.672
    58   6 C        2.915    -0.033    28.829     8.805
    59   6 C        2.921    -0.032    28.803     8.801
    60   6 C        2.923    -0.032    28.786     8.799
    61   6 C        2.914    -0.031    28.782     8.797
    62   6 C        3.062     0.004    27.881     8.659
    63   6 C        2.980    -0.003    28.089     8.694
    64   6 C        2.924    -0.041    29.028     8.835
    65   6 C        2.987     0.005    27.896     8.664
    66   6 C        2.918    -0.033    28.831     8.805
    67   6 C        2.917    -0.032    28.791     8.799
    68   6 C        2.916    -0.029    28.736     8.790
    69   6 C        2.920    -0.036    28.891     8.814
    70   6 C        2.987     0.011    27.753     8.642
    71   6 C        2.924    -0.067    29.663     8.932
    72   6 C        2.927     0.058    26.704     8.475
    73   6 C        2.924    -0.034    28.842     8.807
    74   6 C        2.924    -0.027    28.670     8.781
    75   1 H        0.926     0.038     2.476     2.461
    76   1 H        0.926     0.046     2.376     2.411
    77   1 H        0.926     0.028     2.619     2.531
    78   1 H        0.926     0.031     2.574     2.509
    79   1 H        0.926     0.030     2.592     2.518
    80   1 H        0.926     0.030     2.586     2.515
    81   1 H        0.926     0.027     2.631     2.537
    82   1 H        0.926     0.031     2.576     2.510
    83   1 H        0.926     0.030     2.582     2.513
    84   1 H        0.926     0.031     2.575     2.510
    85   1 H        0.926     0.032     2.563     2.503
    86   1 H        0.926     0.031     2.576     2.510
    87   1 H        0.926     0.030     2.586     2.515
    88   1 H        0.926     0.023     2.695     2.567
    89   1 H        0.926     0.033     2.551     2.497
    90   1 H        0.926     0.029     2.596     2.520
    91   1 H        0.926     0.027     2.625     2.534
    92   1 H        0.926     0.027     2.627     2.535
    93   1 H        0.926     0.020     2.728     2.583
    94   1 H        0.926     0.020     2.738     2.588
    95   1 H        0.926     0.052     2.301     2.372
    96   1 H        0.926     0.050     2.318     2.381
    97   1 H        0.926     0.050     2.317     2.381
    98   1 H        0.926     0.052     2.300     2.372
    99   1 H        0.926     0.028     2.618     2.530
   100   1 H        0.926     0.031     2.574     2.509
   101   1 H        0.926     0.030     2.592     2.518
   102   1 H        0.926     0.030     2.586     2.515
   103   1 H        0.926     0.027     2.631     2.537
   104   1 H        0.926     0.031     2.576     2.510
   105   1 H        0.926     0.030     2.582     2.513
   106   1 H        0.926     0.031     2.575     2.510
   107   1 H        0.926     0.032     2.563     2.503
   108   1 H        0.926     0.031     2.576     2.510
   109   1 H        0.926     0.030     2.586     2.515
   110   1 H        0.926     0.022     2.695     2.567
   111   1 H        0.926     0.033     2.551     2.497
   112   1 H        0.926     0.029     2.596     2.520
   113   1 H        0.926     0.027     2.625     2.533
   114   1 H        0.926     0.027     2.626     2.534
   115   1 H        0.926     0.020     2.726     2.582
   116   1 H        0.926     0.020     2.738     2.587
   117   1 H        0.926     0.045     2.377     2.411
   118   1 H        0.926     0.038     2.476     2.461

molecular dipole:
                 x           y           z       tot (Debye)
 q only:        0.005      -0.707       0.020
   full:        0.006      -0.814       0.022       2.070

 projected vibrational frequencies (cm⁻¹)
eigval :       -0.00    -0.00    -0.00    -0.00     0.00     0.00
eigval :        6.33     9.10    16.26    16.83    26.02    28.82
eigval :       32.26    35.19    38.99    44.34    46.15    51.67
eigval :       53.67    54.36    58.99    61.82    77.26    83.47
eigval :       84.67    87.95    98.81    98.91   119.89   125.23
eigval :      131.49   135.72   140.21   141.25   142.98   145.43
eigval :      148.35   148.99   166.74   181.16   208.32   214.64
eigval :      225.00   232.45   235.00   248.55   252.95   257.82
eigval :      258.62   266.84   271.21   287.73   288.70   295.38
eigval :      303.01   305.04   312.22   318.20   356.61   363.19
eigval :      368.94   369.40   381.30   385.26   388.30   389.11
eigval :      409.05   413.02   413.75   417.35   418.72   424.80
eigval :      435.12   442.33   444.75   446.40   448.70   455.88
eigval :      464.18   465.92   476.70   477.87   500.53   500.81
eigval :      506.38   506.80   509.41   511.90   514.27   515.10
eigval :      537.17   539.77   539.82   551.73   556.45   558.71
eigval :      579.96   585.07   586.24   595.29   596.32   596.85
eigval :      597.51   598.33   604.55   611.94   617.74   618.92
eigval :      637.07   656.61   657.77   665.37   672.41   673.22
eigval :      683.21   683.25   688.75   689.88   698.32   712.00
eigval :      712.36   713.45   729.64   729.98   730.47   743.48
eigval :      753.81   753.83   758.33   758.92   766.84   768.13
eigval :      775.72   775.75   786.09   786.11   803.95   809.46
eigval :      820.67   821.41   824.08   832.77   839.43   843.40
eigval :      863.98   864.22   865.75   867.59   871.84   871.96
eigval :      872.94   874.42   878.52   878.58   879.20   879.76
eigval :      879.95   888.24   893.76   896.08   896.36   908.93
eigval :      908.95   909.90   909.96   910.38   911.27   911.98
eigval :      912.33   914.78   916.46   920.83   921.44   922.15
eigval :      922.16   923.28   924.77   925.52   927.42   927.46
eigval :      927.76   928.32   928.37   928.85   945.64   977.11
eigval :      977.12  1006.26  1006.27  1014.31  1023.74  1074.21
eigval :     1074.21  1078.77  1078.94  1079.27  1079.69  1084.57
eigval :     1084.79  1107.45  1107.47  1126.73  1129.09  1134.59
eigval :     1134.86  1142.90  1142.98  1144.19  1144.48  1159.78
eigval :     1160.43  1175.52  1176.54  1176.61  1179.28  1179.92
eigval :     1180.03  1181.90  1182.65  1184.66  1184.68  1185.35
eigval :     1192.65  1198.60  1201.82  1204.52  1207.35  1209.93
eigval :     1212.06  1224.28  1225.84  1230.68  1230.78  1239.99
eigval :     1240.04  1252.59  1252.80  1258.31  1260.71  1261.76
eigval :     1262.33  1271.33  1271.99  1273.40  1273.55  1284.59
eigval :     1284.61  1302.72  1303.49  1311.10  1311.67  1316.26
eigval :     1319.45  1326.73  1326.73  1330.74  1330.80  1345.11
eigval :     1346.21  1367.38  1367.40  1377.69  1378.17  1392.85
eigval :     1398.21  1412.66  1413.07  1429.24  1429.25  1430.81
eigval :     1430.91  1439.18  1439.31  1448.54  1449.00  1454.22
eigval :     1456.23  1461.86  1461.94  1471.56  1472.20  1472.22
eigval :     1473.83  1486.95  1487.73  1507.14  1507.70  1556.53
eigval :     1559.42  1562.75  1562.99  1581.10  1581.24  1585.15
eigval :     1586.28  1586.29  1588.47  1590.53  1591.28  1596.76
eigval :     1596.77  1601.06  1601.22  1604.55  1604.73  1605.46
eigval :     1605.52  1611.57  1611.67  1779.31  3069.09  3069.60
eigval :     3069.86  3069.94  3073.29  3073.35  3073.51  3073.68
eigval :     3075.42  3075.51  3077.23  3077.55  3077.62  3077.84
eigval :     3078.97  3079.27  3079.87  3080.60  3080.62  3081.20
eigval :     3081.88  3082.81  3082.86  3083.49  3083.52  3084.46
eigval :     3085.39  3085.45  3086.21  3086.27  3091.20  3091.23
eigval :     3091.63  3091.78  3092.85  3093.00  3093.07  3093.37
eigval :     3095.26  3095.41  3096.24  3096.26  3101.37  3101.47

   temp. (K)  partition function   enthalpy   heat capacity  entropy
                                   cal/mol     cal/K/mol   cal/K/mol   J/K/mol
 298.15  VIB  0.104E+27            33792.196    216.517    209.716
         ROT  0.954E+08              888.752      2.981     39.495
         INT  0.993E+34            34680.949    219.498    249.211
         TR   0.279E+29             1481.254      4.968     46.380
         TOT                       36162.2025   224.4660   295.5902  1236.7492

       T/K    H(0)-H(T)+PV         H(T)/Eh          T*S/Eh         G(T)/Eh
   ------------------------------------------------------------------------
    298.15    0.576281E-01    0.961811E+00    0.140444E+00    0.821367E+00
   ------------------------------------------------------------------------

         :::::::::::::::::::::::::::::::::::::::::::::::::::::
         ::                  THERMODYNAMIC                  ::
         :::::::::::::::::::::::::::::::::::::::::::::::::::::
         :: total free energy        -183.657593626718 Eh   ::
         ::.................................................::
         :: total energy             -184.478960295981 Eh   ::
         :: zero point energy           0.904182953651 Eh   ::
         :: G(RRHO) w/o ZPVE           -0.082816284387 Eh   ::
         :: G(RRHO) contrib.            0.821366669263 Eh   ::
         :::::::::::::::::::::::::::::::::::::::::::::::::::::

           -------------------------------------------------
          | TOTAL ENERGY             -184.478960295981 Eh   |
          | TOTAL ENTHALPY           -183.517149204467 Eh   |
          | TOTAL FREE ENERGY        -183.657593626718 Eh   |
          | GRADIENT NORM               0.000063164320 Eh/α |
          | HOMO-LUMO GAP               1.785889448268 eV   |
           -------------------------------------------------

 * finished run on 2025/09/05 at 08:04:36.753
