   * xtb version 6.7.1 (edcfbbe) compiled by 'albert@albert-system' on 2024-07-22

   ID    Z sym.   atoms
    1    8 O      1
    2    6 C      2-6, 8-42, 44-74
    3    7 N      7, 43
    4    1 H      75-118

          program call               : xtb data2507/gas/2SPBAC-BP/2SPBAC-BP_gas_S0_finalOpt.xtbopt.xyz --gfn 2 --spinpol --tblite --uhf 2 --ohess vtight --parallel 40 --molden --ceasefiles --namespace data2507/gas/2SPBAC-BP/2SPBAC-BP_gas_T1_preOpt
 * total energy  :  -184.3909193 Eh     change       -0.1164028E-06 Eh
 * total energy  :  -184.3930454 Eh     change       -0.2126094E-02 Eh
 * total energy  :  -184.3936522 Eh     change       -0.6067999E-03 Eh
 * total energy  :  -184.3938096 Eh     change       -0.1574266E-03 Eh
 * total energy  :  -184.3940041 Eh     change       -0.1944973E-03 Eh
 * total energy  :  -184.3941551 Eh     change       -0.1510301E-03 Eh
 * total energy  :  -184.3943155 Eh     change       -0.1603778E-03 Eh
 * total energy  :  -184.3944635 Eh     change       -0.1480143E-03 Eh
 * total energy  :  -184.3945835 Eh     change       -0.1199595E-03 Eh
 * total energy  :  -184.3946728 Eh     change       -0.8930762E-04 Eh
 * total energy  :  -184.3951724 Eh     change       -0.3622888E-06 Eh
 * total energy  :  -184.3951726 Eh     change       -0.1861400E-06 Eh
 * total energy  :  -184.3951728 Eh     change       -0.1857716E-06 Eh
 * total energy  :  -184.3951731 Eh     change       -0.3619295E-06 Eh
 * total energy  :  -184.3951733 Eh     change       -0.1908526E-06 Eh
 * total energy  :  -184.3951733 Eh     change        0.6154664E-08 Eh
 * total energy  :  -184.3951734 Eh     change       -0.1297215E-06 Eh
 * total energy  :  -184.3951735 Eh     change       -0.8445403E-07 Eh
 * total energy  :  -184.3951735 Eh     change       -0.3247956E-07 Eh
   *** GEOMETRY OPTIMIZATION CONVERGED AFTER 59 ITERATIONS ***

 final structure:
================
118
 xtb: 6.7.1 (edcfbbe)
O            0.00643957925548        6.99724657418227        0.07999153066925
C           -0.00317088912812        5.77918758937810       -0.01769725924436
C           -1.21594165607349        4.90399627376612        0.04326153771219
C           -1.20967890575357        3.90577801614080        1.02291268893231
C           -2.15353019744618        2.90671568831944        1.00822948776042
C           -3.09983751522845        2.85920201736639       -0.01219736002147
N           -3.90294619970633        1.69051296672622       -0.10478136215588
C           -5.24974466395412        1.72127967119313        0.20822664077787
C           -5.91344276483707        2.94160800303129        0.37229577643370
C           -7.26303528233013        2.97591597868537        0.65163298583118
C           -7.97989044061335        1.79705222004261        0.78239163601560
C           -7.32315872163559        0.58624781763537        0.66105079409029
C           -5.96663523158758        0.53007092193345        0.38105292700300
C           -5.26674007454146       -0.80436042710032        0.37790077870459
C           -6.10951138606968       -1.89242652745896       -0.25094230897710
C           -6.56167503760651       -1.97474374412096       -1.54937099941178
C           -7.32869297156472       -3.07308533113808       -1.91517158433213
C           -7.63212932070862       -4.06511004714887       -0.99513517261739
C           -7.17755663175637       -3.98709098674066        0.31187436204251
C           -6.41250072628696       -2.89388146475632        0.68291052774973
C           -5.80432668688760       -2.53824717481012        1.95617342588241
C           -5.79454386986393       -3.19091756032184        3.17768733509036
C           -5.11401111496979       -2.60931788233534        4.23566971834658
C           -4.45830633793153       -1.39759927236010        4.08114244316901
C           -4.46653001845447       -0.73733334863941        2.85939487423030
C           -5.13865294319653       -1.31481519508159        1.80555405263161
C           -3.88833828361569       -0.73853620875207       -0.23085245569671
C           -3.22191857028075       -1.89785179071300       -0.52586972548679
C           -1.90228796354903       -1.89695990623605       -1.01946861356432
C           -1.19289219321943       -3.08023281568731       -1.28894437522590
C            0.09542307116969       -3.03156634189060       -1.75513983664503
C            0.72024369607194       -1.79800280914528       -1.98612189128491
C            0.05194334670608       -0.63156167119356       -1.73934910541208
C           -1.26832914500830       -0.64641816789688       -1.23824194187952
C           -1.96354340970133        0.53301965799306       -0.94121824366665
C           -3.24779113565151        0.50921554931560       -0.41880186225626
C           -3.16658816558795        3.89305115569942       -0.94023719199782
C           -2.24243642371300        4.92398673616986       -0.89351180483766
C            1.17617964368182        4.90292676621558       -0.15235900268067
C            2.32976114974031        5.05309790259843        0.62741861797054
C            3.27923293410052        4.05426711621409        0.67887633366040
C            3.12843106306456        2.90649167030172       -0.10414335319768
N            3.93901961346176        1.75478703049100        0.02921328240699
C            5.27451725040773        1.76212734084789       -0.33024253919765
C            5.93685059514166        2.96669084996005       -0.59816421793082
C            7.27654281919779        2.97592762432481       -0.91904134406815
C            7.98473122623959        1.78562806255489       -0.99803110358897
C            7.32587171219120        0.58781246016124       -0.78989194848928
C            5.97857775904787        0.55508712187467       -0.46452725162338
C            5.27606907754078       -0.77364055987718       -0.37868657029814
C            6.11849645933717       -1.82163154096393        0.31614196260475
C            6.57400063515183       -1.82215969489168        1.61588974226946
C            7.33730451800658       -2.89816974867586        2.04940784445788
C            7.63465377751301       -3.94816238267127        1.19387520085436
C            7.17700137766147       -3.95215672238586       -0.11429110719403
C            6.41509091075317       -2.88187759353555       -0.55269725986785
C            5.80371138521627       -2.60670457345161       -1.84408019408925
C            5.78270987625424       -3.33867250363348       -3.01974710492563
C            5.09843472985030       -2.82441540400666       -4.10971274336709
C            4.44826507532371       -1.60232753123594       -4.03129751499188
C            4.46675970377286       -0.86318274841198       -2.85566089145899
C            5.14447040415844       -1.37260721973104       -1.77069348576499
C            3.90157375879079       -0.66317232582955        0.23291441774546
C            3.21303004406787       -1.81030860664298        0.56368903575786
C            1.88727162220713       -1.77613182740737        1.06272167406653
C            1.16102319663840       -2.92963848033575        1.35146002003225
C           -0.14473250622674       -2.84702140720313        1.83409054984775
C           -0.73558813454262       -1.61300754194298        2.05277017223339
C           -0.03484156377871       -0.45159060610179        1.78673787333476
C            1.28228521956344       -0.50356174996158        1.27594669246674
C            1.99724397269179        0.65157566451291        0.96675306408841
C            3.29651782200751        0.58985587171649        0.39497421290301
C            2.05000428269937        2.81990426309974       -0.99409486883050
C            1.08360595718016        3.78845289209523       -1.00470335823697
H           -0.44463709075028        3.91529365024987        1.78560694147208
H           -2.14325204693567        2.12407518839357        1.75276973287237
H           -5.36164407919878        3.86443932305771        0.28836392041660
H           -7.75672190343343        3.92852922469692        0.77059285550316
H           -9.03705011793597        1.82059784232303        0.99642670424932
H           -7.86668273827452       -0.33740063805073        0.79590524823466
H           -6.32511467991415       -1.20201591944485       -2.26626489716400
H           -7.69340652735905       -3.15538230373396       -2.92834609099962
H           -8.23110970405219       -4.91007433684929       -1.30206774752728
H           -7.41625210637126       -4.76227387190657        1.02479851016194
H           -6.30452552776047       -4.13434250633848        3.30406230433094
H           -5.09367675205601       -3.10573511286155        5.19482511839664
H           -3.93365221604726       -0.96301856972948        4.91929572373388
H           -3.95821003755373        0.20911836126160        2.74202132928789
H           -3.71106494117356       -2.84752332496363       -0.36177964925960
H           -1.68054276345164       -4.02908683922046       -1.11719355244819
H            0.63846377071418       -3.94369669965266       -1.95300286887729
H            1.73588834620386       -1.77983886512346       -2.35520521926102
H            0.52265724158255        0.32432643493870       -1.91290513397741
H           -1.46857911931319        1.47518983460077       -1.12133879821207
H           -3.90942510549002        3.86244654507723       -1.72407464741913
H           -2.27324978594233        5.71293889080571       -1.63015874180748
H            2.42478567095091        5.92918963156048        1.25094491231253
H            4.10818318599784        4.12845893411332        1.36769110761233
H            5.39081325835672        3.89540540840017       -0.56412096072898
H            7.77012699871439        3.91573580007495       -1.11431718407183
H            9.03503881174339        1.79024207796313       -1.24441487848769
H            7.85960160206215       -0.34559247318641       -0.89200185409439
H            6.34136197436118       -1.00489549003573        2.28294499364538
H            7.70338311267869       -2.91756331191346        3.06522187743516
H            8.23082458729618       -4.77432906200599        1.55297396601281
H            7.41059724061095       -4.77243233199945       -0.77666812238253
H            6.28640635362940       -4.29152105734873       -3.08638301214443
H            5.06979755110294       -3.38282286664674       -5.03395146236541
H            3.91948211468635       -1.22180953936904       -4.89283148411810
H            3.96011350426334        0.08981199459700       -2.79693436331226
H            3.68394732562793       -2.77123208718367        0.41872531104237
H            1.61972144509124       -3.89503657932455        1.19630878825545
H           -0.69585391796098       -3.75177760332378        2.04259889767303
H           -1.74770769070094       -1.56057923150456        2.42803950928120
H           -0.48524055856142        0.51551432804507        1.95005087255760
H            1.55243870153380        1.60990989125039        1.18198321638726
H            1.98423916859528        1.96208442749082       -1.64743180322601
H            0.24213899727869        3.70007067937252       -1.67611149941551

 projected vibrational frequencies (cm⁻¹)
eigval :       -0.00    -0.00    -0.00    -0.00    -0.00     0.00
eigval :        6.41     9.30    12.41    14.43    24.86    27.54
eigval :       32.06    34.61    39.80    44.04    46.20    47.76
eigval :       52.18    54.94    62.34    73.31    74.38    82.94
eigval :       84.34    86.62    99.51   101.25   121.92   123.89
eigval :      131.80   136.48   139.33   142.77   144.38   145.75
eigval :      146.19   150.19   176.35   186.65   205.85   215.41
eigval :      228.50   230.50   234.62   247.85   254.41   257.88
eigval :      264.21   264.67   271.68   281.02   287.84   292.32
eigval :      297.89   300.81   305.11   314.52   351.95   359.92
eigval :      370.61   374.39   382.62   386.57   387.40   388.19
eigval :      406.74   412.41   413.37   416.72   417.54   420.26
eigval :      421.90   434.24   441.42   450.03   453.49   454.88
eigval :      460.40   463.97   471.40   474.41   494.16   501.26
eigval :      502.14   502.93   507.09   510.30   514.51   522.70
eigval :      536.19   539.04   539.25   542.66   548.34   554.45
eigval :      571.26   578.22   584.69   585.35   592.05   593.59
eigval :      595.75   596.58   602.59   608.63   612.89   617.17
eigval :      631.36   640.19   647.69   656.40   669.44   673.53
eigval :      674.22   681.89   685.86   686.52   694.38   695.81
eigval :      696.48   704.14   710.60   724.77   728.30   729.28
eigval :      738.78   753.15   753.34   753.69   761.05   766.61
eigval :      767.39   773.51   774.68   785.69   785.84   795.39
eigval :      803.32   805.53   808.91   814.27   817.67   822.75
eigval :      825.34   837.03   848.45   857.98   860.34   866.54
eigval :      867.84   872.08   872.66   874.43   877.99   878.01
eigval :      879.19   879.55   882.35   890.11   892.37   894.74
eigval :      903.27   904.12   907.44   909.02   909.06   910.12
eigval :      910.35   910.90   912.24   912.92   917.60   917.84
eigval :      918.23   920.94   921.20   922.70   926.26   926.80
eigval :      927.26   927.29   928.29   928.50   941.30   964.74
eigval :      974.61  1003.48  1004.94  1005.52  1016.67  1033.88
eigval :     1074.12  1074.19  1078.01  1078.65  1079.02  1081.40
eigval :     1084.30  1092.87  1101.73  1105.28  1124.16  1128.06
eigval :     1129.18  1133.52  1137.25  1142.49  1142.96  1143.62
eigval :     1150.06  1157.75  1162.61  1172.04  1175.63  1175.68
eigval :     1177.69  1179.49  1180.28  1180.77  1181.92  1183.50
eigval :     1186.00  1190.92  1195.62  1199.31  1199.98  1203.21
eigval :     1208.35  1209.61  1217.12  1221.15  1225.27  1229.52
eigval :     1232.07  1239.16  1244.53  1251.84  1257.49  1260.00
eigval :     1260.34  1262.17  1262.58  1268.21  1270.26  1272.89
eigval :     1283.96  1284.14  1293.77  1301.35  1304.88  1307.39
eigval :     1318.13  1322.32  1326.11  1326.53  1330.24  1330.57
eigval :     1333.36  1335.19  1366.86  1366.94  1369.48  1378.43
eigval :     1388.33  1394.82  1395.94  1410.01  1415.60  1427.15
eigval :     1428.26  1428.79  1429.08  1429.78  1430.41  1435.28
eigval :     1441.10  1446.58  1447.31  1456.17  1460.46  1460.81
eigval :     1462.80  1467.25  1470.99  1471.61  1473.08  1479.56
eigval :     1495.42  1508.45  1516.95  1524.83  1536.23  1548.99
eigval :     1554.62  1567.50  1567.72  1575.33  1578.96  1585.33
eigval :     1585.82  1587.69  1593.39  1595.59  1596.56  1599.22
eigval :     1601.02  1604.11  1604.61  1650.15  3069.55  3070.21
eigval :     3070.73  3071.72  3071.87  3073.40  3073.91  3074.69
eigval :     3074.79  3076.40  3076.59  3076.87  3078.34  3078.52
eigval :     3078.56  3079.45  3080.35  3083.80  3084.15  3084.35
eigval :     3084.66  3085.66  3085.70  3085.85  3086.00  3086.54
eigval :     3086.65  3087.66  3088.07  3090.21  3091.45  3092.18
eigval :     3092.69  3092.78  3093.76  3093.83  3094.05  3094.93
eigval :     3096.65  3100.40  3102.28  3102.91  3108.14  3115.12

   temp. (K)  partition function   enthalpy   heat capacity  entropy
                                   cal/mol     cal/K/mol   cal/K/mol   J/K/mol
 298.15  VIB  0.170E+27            33995.818    218.412    210.848
         ROT  0.196E+09              888.752      2.981     40.923
         INT  0.333E+35            34884.570    221.392    251.771
         TR   0.279E+29             1481.254      4.968     46.380
         TOT                       36365.8242   226.3606   298.1507  1247.4625

       T/K    H(0)-H(T)+PV         H(T)/Eh          T*S/Eh         G(T)/Eh
   ------------------------------------------------------------------------
    298.15    0.579526E-01    0.956961E+00    0.141661E+00    0.815300E+00
   ------------------------------------------------------------------------

         :::::::::::::::::::::::::::::::::::::::::::::::::::::
         ::                  THERMODYNAMIC                  ::
         :::::::::::::::::::::::::::::::::::::::::::::::::::::
         :: total free energy        -183.579873462560 Eh   ::
         ::.................................................::
         :: total energy             -184.395173533251 Eh   ::
         :: zero point energy           0.899008461860 Eh   ::
         :: G(RRHO) w/o ZPVE           -0.083708391169 Eh   ::
         :: G(RRHO) contrib.            0.815300070691 Eh   ::
         :::::::::::::::::::::::::::::::::::::::::::::::::::::

           -------------------------------------------------
          | TOTAL ENERGY             -184.395173533251 Eh   |
          | TOTAL ENTHALPY           -183.438212441759 Eh   |
          | TOTAL FREE ENERGY        -183.579873462560 Eh   |
          | GRADIENT NORM               0.000053413726 Eh/α |
           -------------------------------------------------

 * finished run on 2025/09/05 at 08:05:18.565
