   * xtb version 6.7.1 (edcfbbe) compiled by 'albert@albert-system' on 2024-07-22

   ID    Z sym.   atoms
    1    8 O      1
    2    6 C      2-6, 8-42, 44-74
    3    7 N      7, 43
    4    1 H      75-118

          program call               : xtb data2507/gas/2SPBAC-BP/2SPBAC-BP_gas_T1_crest.xyz --gfn 2 --spinpol --tblite --uhf 2 --ohess vtight --parallel 40 --molden --ceasefiles --namespace data2507/gas/2SPBAC-BP/2SPBAC-BP_gas_T1_finalOpt
 * total energy  :  -184.4011297 Eh     change       -0.2880236E-07 Eh
 * total energy  :  -184.4012538 Eh     change       -0.1240821E-03 Eh
 * total energy  :  -184.4012946 Eh     change       -0.4079395E-04 Eh
 * total energy  :  -184.4012974 Eh     change       -0.2796125E-05 Eh
 * total energy  :  -184.4012990 Eh     change       -0.1658317E-05 Eh
 * total energy  :  -184.4013018 Eh     change       -0.2773793E-05 Eh
 * total energy  :  -184.4013046 Eh     change       -0.2760354E-05 Eh
 * total energy  :  -184.4013076 Eh     change       -0.3047820E-05 Eh
 * total energy  :  -184.4013106 Eh     change       -0.2969291E-05 Eh
 * total energy  :  -184.4013134 Eh     change       -0.2761409E-05 Eh
 * total energy  :  -184.4014692 Eh     change       -0.5285947E-06 Eh
 * total energy  :  -184.4014694 Eh     change       -0.2140611E-06 Eh
 * total energy  :  -184.4014700 Eh     change       -0.6010363E-06 Eh
 * total energy  :  -184.4014707 Eh     change       -0.7002450E-06 Eh
 * total energy  :  -184.4014717 Eh     change       -0.9335612E-06 Eh
 * total energy  :  -184.4014728 Eh     change       -0.1162415E-05 Eh
 * total energy  :  -184.4014739 Eh     change       -0.1091147E-05 Eh
 * total energy  :  -184.4014749 Eh     change       -0.9941635E-06 Eh
 * total energy  :  -184.4014750 Eh     change       -0.4226092E-07 Eh
   *** GEOMETRY OPTIMIZATION CONVERGED AFTER 94 ITERATIONS ***

 final structure:
================
118
 xtb: 6.7.1 (edcfbbe)
O           -0.00518803385041       -4.52008032093354       -0.63505743223480
C            0.04403473336478       -3.25370096187032       -0.58304841928588
C           -1.18962803633063       -2.49212219604752       -0.59126384123232
C           -1.32028877855617       -1.21619558776713       -0.01421685233335
C           -2.53137054399319       -0.56468538827902       -0.01814132183786
C           -3.65445483338261       -1.16734215990417       -0.58437172524276
N           -4.90260814199210       -0.48084364603080       -0.58710252513318
C           -5.10333624758857        0.53693587322241       -1.49926610018886
C           -4.10266682013973        0.85779511738545       -2.42568117929697
C           -4.28371949390650        1.87795532114589       -3.33358061466649
C           -5.46710024622456        2.60084807757295       -3.34661288128406
C           -6.46822774769295        2.27764702000355       -2.45028051506837
C           -6.30590013054659        1.25334022456372       -1.52953266514535
C           -7.44284252335529        0.93020982972736       -0.59648261197467
C           -8.70731502894116        0.64213260198223       -1.38560544934289
C           -8.93345644008623       -0.37397421620948       -2.28677516869594
C          -10.17773097389811       -0.45032077759089       -2.89865264463385
C          -11.16882553725057        0.47503155372409       -2.60930049187418
C          -10.94407420080849        1.49934105605019       -1.70325003062149
C           -9.70514765654813        1.58095044567714       -1.08974830450090
C           -9.17814690485445        2.52444682393836       -0.11513669714405
C           -9.75598818009583        3.62669571708582        0.49238829409201
C           -9.00171917109838        4.35596920396033        1.39785285762407
C           -7.69646644361759        3.99334083679582        1.69276264477203
C           -7.11137811991955        2.88917583158800        1.08694297656326
C           -7.85794337867249        2.16281805852584        0.18654162493929
C           -7.13176767781050       -0.20881196615698        0.34091842946332
C           -8.08550543644624       -0.60780003281911        1.23673089462749
C           -7.85976110032298       -1.65099432190838        2.15633607174235
C           -8.83738007942761       -2.07330556136687        3.07590343876537
C           -8.57171694352406       -3.08548672368560        3.95824396759456
C           -7.31688299877684       -3.71532118421517        3.95849157833067
C           -6.34663023855077       -3.32709870396786        3.07799127369269
C           -6.59079715176695       -2.28789884296110        2.15283290754228
C           -5.61962418990320       -1.86998276516728        1.23263290577545
C           -5.87052307394819       -0.85850789742948        0.31955102892438
C           -3.55312131160238       -2.45300980811230       -1.11946525330221
C           -2.34796283961101       -3.10759299513521       -1.10970433093123
C            1.33154987169868       -2.59126585135462       -0.51770757635888
C            1.55719126715700       -1.28215200134255       -0.97974898623576
C            2.81477011728255       -0.72793208751712       -0.93197466732795
C            3.89102306133066       -1.46318054497913       -0.43563931615043
N            5.18825998995295       -0.87623768968577       -0.38430869045052
C            6.11753685403863       -1.22368296965989       -1.34585630587474
C            5.77052232578207       -2.11576043234006       -2.36876538307617
C            6.69059384883779       -2.48018301928453       -3.32715749999171
C            7.97662843491597       -1.96211813816579       -3.29529088358147
C            8.32213609233579       -1.06662162415398       -2.30082431163983
C            7.41017866229495       -0.68595026891223       -1.32783818999194
C            7.83805902685308        0.31113402925744       -0.28339834117993
C            8.36175112816700        1.57395991206492       -0.94322304355893
C            7.67970844795166        2.45609981410774       -1.75088081317207
C            8.36207656441283        3.55661800987848       -2.25255759024380
C            9.69896108325137        3.76185267523703       -1.94791381459981
C           10.38840597430577        2.87554996451377       -1.13562934467415
C            9.71336070535448        1.77619730969188       -0.63193000786152
C           10.15694501094609        0.69067338673654        0.22987714007817
C           11.38790083256671        0.42980433013928        0.80837596708504
C           11.52259980126230       -0.70054865134337        1.59881606363802
C           10.45094239348240       -1.55474203560765        1.80890752735064
C            9.21421806463756       -1.29890094660015        1.23139234106338
C            9.07724298873449       -0.17672550330295        0.44549577353699
C            6.74558435068773        0.63970046638598        0.70190703527520
C            7.00285419350296        1.53861637221745        1.70044628030322
C            6.03889211595617        1.87673475922729        2.67056104246972
C            6.29300612290437        2.80444481686118        3.69751431830047
C            5.33065175803556        3.09612320518940        4.62602444124488
C            4.07519289191823        2.47048459842534        4.56652145488693
C            3.79849030834064        1.56489986625459        3.58129727282802
C            4.76927355033297        1.24431247732997        2.60656852238836
C            4.51643454269452        0.32381675219318        1.58021852930541
C            5.47078345438441        0.02186362027467        0.62243222661562
C            3.69363224998106       -2.77944420278015       -0.01463263533080
C            2.44142446868799       -3.33658541812367       -0.06794166011814
H           -0.47574880701140       -0.75739034712538        0.47662963264524
H           -2.62808217121478        0.41430788500246        0.43031284968152
H           -3.18358958123684        0.29329485589967       -2.42784766472828
H           -3.49819010021810        2.10897913574094       -4.03715538699359
H           -5.61076302434079        3.40281635456436       -4.05388930387218
H           -7.39937513353703        2.82526620484236       -2.46025083376383
H           -8.16160402684626       -1.09512034080492       -2.51345624861295
H          -10.37531510946650       -1.23987357278810       -3.60841415744573
H          -12.12914238913136        0.39598760271995       -3.09760331863604
H          -11.71890652921972        2.21810851579674       -1.48144289108779
H          -10.77228924914066        3.91296501051335        0.26578145336494
H           -9.43600934459956        5.21906070830515        1.88095589088851
H           -7.12771144816699        4.57640096248218        2.40189542636790
H           -6.09423172071201        2.60731777578623        1.31773070554788
H           -9.04459603614576       -0.10900477893809        1.24646708666672
H           -9.80074367655078       -1.58357099591324        3.07142599709586
H           -9.32575872154083       -3.40703340273209        4.66150870606098
H           -7.12559338191559       -4.51181325209220        4.66250997415427
H           -5.37977474736773       -3.80912944353734        3.07226071356085
H           -4.65582559057430       -2.35521457726540        1.24641797534174
H           -4.43216541677769       -2.92124660118450       -1.53857383191392
H           -2.25291758477341       -4.10387521784441       -1.51342218099011
H            0.74816379003302       -0.71797374680234       -1.41775477048129
H            2.98440976079064        0.27725008374281       -1.29205783954656
H            4.77005077855406       -2.51688931557285       -2.40527534504692
H            6.40196234041345       -3.17101205461908       -4.10472217639020
H            8.70050488679034       -2.24817145391431       -4.04242152997347
H            9.31767729900551       -0.64806174881443       -2.27297827265085
H            6.63826747023277        2.29616278579495       -1.98986209758484
H            7.84516890553263        4.26046223640244       -2.88794178337163
H           10.20965288770276        4.62461869900609       -2.35008754230923
H           11.42987408748621        3.03926880827667       -0.90175253425018
H           12.22549758439728        1.09220554070275        0.64760470564790
H           12.47542297335929       -0.91977893458915        2.05812460972423
H           10.57910241835031       -2.42948213342394        2.42907323384069
H            8.37969195540134       -1.96496882737930        1.39604772049861
H            7.97642139055795        2.00543185281605        1.75485443265113
H            7.26203964554486        3.28105093483863        3.73862681388984
H            5.53025893991243        3.80918784906113        5.41228334981118
H            3.32859546545163        2.71230218914330        5.30878516989075
H            2.83397427895853        1.08044529091726        3.53096048525519
H            3.55140954090671       -0.15828399042366        1.54637262543716
H            4.53605291659826       -3.34899954833809        0.35077675368405
H            2.27198972323402       -4.35478580796311        0.24690839158582

 projected vibrational frequencies (cm⁻¹)
eigval :       -0.00    -0.00    -0.00     0.00     0.00     0.00
eigval :        2.37     2.73     4.36     5.63    10.29    25.16
eigval :       26.54    31.82    33.51    35.99    39.70    40.78
eigval :       43.70    49.94    55.34    57.27    76.39    80.21
eigval :       81.12    81.30    89.84   105.24   112.49   118.61
eigval :      121.81   131.87   136.89   138.12   139.78   143.98
eigval :      146.90   153.88   187.44   196.99   203.89   217.27
eigval :      233.59   235.03   242.52   245.33   251.10   254.84
eigval :      268.39   273.49   278.03   281.47   285.15   301.33
eigval :      302.68   304.90   312.03   332.38   346.11   356.93
eigval :      375.73   379.00   383.42   387.51   388.02   393.86
eigval :      410.35   412.09   414.99   418.89   419.78   424.86
eigval :      436.57   440.63   442.26   442.98   448.11   450.95
eigval :      465.26   466.30   469.80   475.29   492.82   496.44
eigval :      502.48   502.50   508.27   508.39   516.15   517.14
eigval :      537.01   539.09   539.12   540.23   554.98   555.89
eigval :      561.26   577.14   584.09   584.18   592.39   594.36
eigval :      595.42   595.69   597.26   605.28   608.47   617.34
eigval :      620.53   637.20   660.49   661.12   662.40   668.80
eigval :      674.37   675.89   677.00   685.08   685.10   694.91
eigval :      697.17   714.09   714.26   730.39   730.40   739.17
eigval :      753.40   753.44   759.47   759.78   766.99   767.74
eigval :      774.22   774.73   785.88   785.89   794.12   803.57
eigval :      817.76   818.71   821.15   823.79   838.78   840.94
eigval :      844.95   861.17   866.95   867.33   869.38   870.15
eigval :      876.42   876.57   876.99   878.21   878.22   879.19
eigval :      879.36   886.18   892.70   895.86   895.97   899.28
eigval :      906.21   909.55   909.65   909.93   909.98   910.95
eigval :      913.28   913.49   914.10   914.40   914.75   920.29
eigval :      920.42   922.28   923.05   925.99   926.39   927.39
eigval :      927.40   928.29   928.30   935.89   941.53   975.44
eigval :      975.82  1001.47  1004.75  1004.76  1008.63  1074.35
eigval :     1074.36  1077.60  1077.73  1079.01  1079.05  1084.94
eigval :     1084.96  1103.49  1103.82  1125.39  1130.62  1133.95
eigval :     1134.42  1142.82  1142.82  1144.93  1145.29  1156.65
eigval :     1159.83  1163.31  1167.58  1176.26  1176.28  1178.83
eigval :     1178.94  1179.07  1179.21  1182.41  1182.83  1185.42
eigval :     1188.31  1199.18  1203.34  1203.34  1204.77  1205.12
eigval :     1214.85  1223.08  1231.06  1231.86  1237.89  1239.51
eigval :     1245.00  1251.63  1253.09  1254.35  1258.68  1258.75
eigval :     1262.62  1265.87  1266.67  1270.88  1271.32  1284.20
eigval :     1284.25  1303.51  1304.03  1306.85  1308.25  1323.20
eigval :     1326.24  1326.25  1326.43  1330.90  1332.19  1333.65
eigval :     1333.88  1367.44  1367.47  1373.47  1373.62  1402.69
eigval :     1404.65  1405.62  1407.85  1423.61  1424.97  1426.31
eigval :     1429.03  1429.08  1429.56  1429.76  1434.17  1436.28
eigval :     1442.26  1449.31  1450.36  1454.56  1460.69  1460.74
eigval :     1471.06  1471.79  1471.87  1472.91  1490.77  1493.70
eigval :     1497.72  1497.76  1541.95  1544.45  1549.66  1566.27
eigval :     1566.98  1578.82  1579.14  1585.71  1586.28  1586.29
eigval :     1593.16  1593.32  1597.32  1597.36  1602.11  1602.23
eigval :     1602.68  1602.97  1604.28  1604.31  3068.97  3069.67
eigval :     3071.42  3071.44  3073.39  3074.36  3074.40  3075.08
eigval :     3075.10  3075.26  3075.82  3075.94  3077.42  3077.47
eigval :     3077.51  3077.61  3078.57  3078.61  3082.93  3083.07
eigval :     3083.15  3084.04  3085.13  3085.15  3087.14  3087.38
eigval :     3087.41  3088.76  3090.06  3091.70  3092.48  3093.08
eigval :     3093.20  3093.26  3094.72  3094.97  3097.72  3099.89
eigval :     3100.29  3100.35  3100.55  3100.79  3107.89  3109.77

   temp. (K)  partition function   enthalpy   heat capacity  entropy
                                   cal/mol     cal/K/mol   cal/K/mol   J/K/mol
 298.15  VIB  0.128E+30            34056.324    216.034    216.172
         ROT  0.358E+09              888.752      2.981     42.123
         INT  0.460E+38            34945.076    219.015    258.295
         TR   0.279E+29             1481.254      4.968     46.380
         TOT                       36426.3301   223.9829   304.6747  1274.7588

       T/K    H(0)-H(T)+PV         H(T)/Eh          T*S/Eh         G(T)/Eh
   ------------------------------------------------------------------------
    298.15    0.580491E-01    0.959208E+00    0.144761E+00    0.814447E+00
   ------------------------------------------------------------------------

         :::::::::::::::::::::::::::::::::::::::::::::::::::::
         ::                  THERMODYNAMIC                  ::
         :::::::::::::::::::::::::::::::::::::::::::::::::::::
         :: total free energy        -183.587028203229 Eh   ::
         ::.................................................::
         :: total energy             -184.401475000129 Eh   ::
         :: zero point energy           0.901158511613 Eh   ::
         :: G(RRHO) w/o ZPVE           -0.086711714713 Eh   ::
         :: G(RRHO) contrib.            0.814446796901 Eh   ::
         :::::::::::::::::::::::::::::::::::::::::::::::::::::

           -------------------------------------------------
          | TOTAL ENERGY             -184.401475000129 Eh   |
          | TOTAL ENTHALPY           -183.442267436491 Eh   |
          | TOTAL FREE ENERGY        -183.587028203229 Eh   |
          | GRADIENT NORM               0.000081436611 Eh/α |
           -------------------------------------------------

 * finished run on 2025/09/05 at 08:30:16.157
