   * xtb version 6.7.1 (edcfbbe) compiled by 'albert@albert-system' on 2024-07-22

   ID    Z sym.   atoms
    1    8 O      1
    2    6 C      2-6, 8-42, 44-74
    3    7 N      7, 43
    4    1 H      75-118

          program call               : xtb data2507/gas/2SPBAC-BP/2SPBAC-BP.xyz --gfn 2 --ohess vtight --parallel 40 --molden --ceasefiles --namespace data2507/gas/2SPBAC-BP/2SPBAC-BP_gas_S0_preOpt
          :  Hamiltonian                  GFN2-xTB          :
 * total energy  :  -184.4343169 Eh     change       -0.5563749E-08 Eh
 * total energy  :  -184.4607827 Eh     change       -0.2646583E-01 Eh
 * total energy  :  -184.4703748 Eh     change       -0.9592068E-02 Eh
 * total energy  :  -184.4723200 Eh     change       -0.1945233E-02 Eh
 * total energy  :  -184.4731884 Eh     change       -0.8684130E-03 Eh
 * total energy  :  -184.4736682 Eh     change       -0.4797564E-03 Eh
 * total energy  :  -184.4739834 Eh     change       -0.3152679E-03 Eh
 * total energy  :  -184.4741697 Eh     change       -0.1862327E-03 Eh
 * total energy  :  -184.4742738 Eh     change       -0.1041017E-03 Eh
 * total energy  :  -184.4743801 Eh     change       -0.1063152E-03 Eh
 * total energy  :  -184.4752553 Eh     change       -0.6177488E-06 Eh
 * total energy  :  -184.4752558 Eh     change       -0.5119347E-06 Eh
 * total energy  :  -184.4752564 Eh     change       -0.5800585E-06 Eh
 * total energy  :  -184.4752567 Eh     change       -0.3137451E-06 Eh
 * total energy  :  -184.4752568 Eh     change       -0.1257798E-06 Eh
 * total energy  :  -184.4752568 Eh     change        0.1174868E-07 Eh
 * total energy  :  -184.4752569 Eh     change       -0.1180022E-06 Eh
 * total energy  :  -184.4752569 Eh     change        0.1155050E-07 Eh
 * total energy  :  -184.4752570 Eh     change       -0.9836040E-07 Eh
   *** GEOMETRY OPTIMIZATION CONVERGED AFTER 132 ITERATIONS ***

 final structure:
================
118
 xtb: 6.7.1 (edcfbbe)
O            0.01514707351805        4.25235957905688        2.85948995861968
C            0.02945934451850        3.23688976136025        2.19332303587957
C           -1.22535102535915        2.53494296078272        1.81987256905624
C           -1.29062435185855        1.14691455636985        1.71272503702447
C           -2.48631255350694        0.53005422657633        1.40087301091253
C           -3.63028465106166        1.29232765817833        1.18526471250139
N           -4.85558776634934        0.66103624007402        0.85188242241113
C           -5.55168503903300       -0.02742285812302        1.83699798124868
C           -5.05513682492374       -0.08943806318105        3.14199520509302
C           -5.73538951507925       -0.77759715907705        4.12553610991155
C           -6.93015239380467       -1.41338826108839        3.83441694960038
C           -7.44057292770927       -1.33373181641032        2.55286778474330
C           -6.77091192938768       -0.64591759216464        1.55155473695625
C           -7.40788280686509       -0.55790949247570        0.18745944872469
C           -8.77564441510175        0.09148977662200        0.29163217234518
C           -9.08281937022311        1.36619657627848        0.71187611200274
C          -10.41572500071331        1.75495628490952        0.72812753374685
C          -11.41486256084329        0.87971266348774        0.33074654293611
C          -11.10959821192288       -0.40422437117800       -0.09219148214589
C           -9.78187649753274       -0.79746686468855       -0.11066864169313
C           -9.16013673997975       -2.05593624090226       -0.49489639502166
C           -9.70870512731928       -3.24012696995901       -0.95817532976531
C           -8.85850319890507       -4.29493158976553       -1.25014806334326
C           -7.48762365689984       -4.17148384113855       -1.08384200031016
C           -6.93192023995443       -2.98657211533071       -0.61968888463634
C           -7.77332679913202       -1.93635202952047       -0.32791967562551
C           -6.55492403462162        0.17543779577577       -0.81790171332438
C           -6.99912961341895        0.27649389587041       -2.10884996068479
C           -6.25577995178422        0.93291455784897       -3.10730070276319
C           -6.70720806333676        1.04692158361698       -4.43647468729764
C           -5.94638477600326        1.68354461820903       -5.37750928284984
C           -4.70178513693669        2.23129430938227       -5.02840440324351
C           -4.23762886973736        2.13655707446705       -3.74662098374486
C           -5.00043787449759        1.48847072785924       -2.75187219327031
C           -4.55570390384453        1.37661691917316       -1.42454068487739
C           -5.31348534914540        0.75164722713305       -0.45483842113064
C           -3.57258715360211        2.67770664723020        1.30144109834344
C           -2.38067441088508        3.29084854586825        1.62820752630146
C            1.30120018783209        2.63904546504701        1.71512532897940
C            2.44885969631379        2.80682433491992        2.48874433109639
C            3.65581222894412        2.28267190942467        2.07534143346472
C            3.73891225163741        1.60230265154073        0.86363805279284
N            4.97877269102887        1.06646988046135        0.43827087608488
C            5.98634375456507        1.94071144788525        0.04659400233060
C            5.73941561513473        3.31452414875605       -0.02716552953976
C            6.73264787504648        4.19237092545898       -0.40962737125868
C            7.99219778464462        3.72157326349185       -0.73901415492076
C            8.23527964148936        2.36218357115197       -0.69639350256558
C            7.24824023710864        1.46508164863829       -0.31496472878426
C            7.57599270491341       -0.00634711094677       -0.29899989142795
C            8.69221768641481       -0.28419717625809        0.69192923701155
C            8.68635461503831       -0.09578428463449        2.05582901889987
C            9.83013405726971       -0.41872609110015        2.77382436373764
C           10.95259820518804       -0.91941717809774        2.13231136758285
C           10.96184771884049       -1.11104950180260        0.75983009539611
C            9.82385804306764       -0.79095219499350        0.03852766224057
C            9.53467270323526       -0.88007675398655       -1.38496582165639
C           10.30999018908835       -1.31257967679107       -2.44785334653743
C            9.76324826679716       -1.28599925431508       -3.72110169612344
C            8.46844688433245       -0.83675847767622       -3.93079163609941
C            7.68644673848949       -0.40161376853059       -2.86899066321508
C            8.22589700627446       -0.42669103225306       -1.60227448173519
C            6.38205557140721       -0.87348257250061        0.01468807217618
C            6.52882530719369       -2.23380202234640       -0.03308244401003
C            5.48290008507774       -3.11256174415652        0.30399554382105
C            5.62124785891806       -4.51301649990939        0.24911032276227
C            4.58320888109519       -5.32893650615699        0.60466639899748
C            3.36486256612908       -4.77786813659752        1.03225253922071
C            3.20156919465752       -3.42264951086486        1.09653536369637
C            4.25227172014318       -2.55384452787129        0.73240072958921
C            4.11549337139100       -1.15691210167516        0.77851991053495
C            5.14111008896915       -0.31236083920408        0.40452434116654
C            2.60284907046641        1.46013051293385        0.07144033366017
C            1.39174252703596        1.96893673098209        0.49591606962749
H           -0.40974706935051        0.54918056985801        1.89477578546637
H           -2.54514771477945       -0.54559400528908        1.32344037273564
H           -4.13261615448232        0.41305785700466        3.38927176700054
H           -5.32888964805809       -0.81214737008578        5.12528515489378
H           -7.46412330307682       -1.95524211677704        4.59944315624783
H           -8.38135692098438       -1.80921114626015        2.31625698880107
H           -8.30488727915333        2.04840734098596        1.02310559627622
H          -10.67738366848178        2.75073587342351        1.05451013657533
H          -12.44524085217397        1.20374211290783        0.35189342041439
H          -11.89147506461852       -1.08265456407074       -0.40007521633189
H          -10.77593592167690       -3.34090194259948       -1.08944510143621
H           -9.26874076623369       -5.22637610930502       -1.61245805490056
H           -6.84436033224553       -5.00689875609486       -1.31817149469199
H           -5.86345065018615       -2.89082493994637       -0.49085584004693
H           -7.95004855585978       -0.16259120887877       -2.37660592038405
H           -7.66590510305769        0.62108388173412       -4.69658100406923
H           -6.29594645302227        1.76948123202576       -6.39590595206339
H           -4.11302581744930        2.73017427549906       -5.78462721348124
H           -3.28022565718703        2.55861476797255       -3.47457692293172
H           -3.59190399941457        1.79550224063959       -1.17536433812322
H           -4.46629026764842        3.26104646013007        1.13753204730505
H           -2.32228808191047        4.36340336901250        1.73673657545400
H            2.36966735580879        3.34316174543469        3.42235937246352
H            4.54343710931761        2.40077212856314        2.67877953015927
H            4.75891556851959        3.69711294282101        0.21121346310145
H            6.51680566498204        5.24937078783573       -0.45355120658976
H            8.77352140098363        4.40446673946826       -1.03423891674598
H            9.20938053575412        1.97950703885281       -0.96422850354380
H            7.81175368928415        0.29358032974583        2.55682791272952
H            9.84569975010526       -0.27817852372728        3.84461280782852
H           11.83152870339099       -1.16343566166919        2.71113047904673
H           11.83856260875561       -1.50164167558559        0.26469553938593
H           11.31919517953025       -1.66294291890726       -2.28943985098043
H           10.35345150659094       -1.61948198916386       -4.56227603095082
H            8.06337236241321       -0.82488128828654       -4.93195725308215
H            6.67781913547154       -0.05075771526064       -3.03303110275964
H            7.48005730048739       -2.65246745602155       -0.33059468965145
H            6.56343503875263       -4.92834546952717       -0.07924023894374
H            4.69233950165076       -6.40263761989052        0.56063526476822
H            2.55534327401631       -5.43712243532195        1.31057105413381
H            2.26407344090490       -2.99579112943086        1.42474206300637
H            3.17501046223451       -0.75334562771175        1.12263364220608
H            2.68022847310578        0.94894833720542       -0.87677660651357
H            0.51961951684978        1.87209218951053       -0.13368724123317

          :  Hamiltonian                  GFN2-xTB          :
         :: gradient norm              0.000056731569 Eh/a0 ::
         :: HOMO-LUMO gap              1.490042478563 eV    ::
         :: SCC energy              -187.964065003772 Eh    ::
         :: -> dispersion             -0.185189776385 Eh    ::
         :: repulsion energy           3.488807970484 Eh    ::

    * Orbital Energies and Occupations

         #    Occupation            Energy/Eh            Energy/eV
      -------------------------------------------------------------
         1        2.0000           -0.7117058             -19.3665
       ...           ...                  ...                  ...
       160        2.0000           -0.4028786             -10.9629
       161        2.0000           -0.4021204             -10.9423
       162        2.0000           -0.3985378             -10.8448
       163        2.0000           -0.3978506             -10.8261
       164        2.0000           -0.3973947             -10.8137
       165        2.0000           -0.3970716             -10.8049
       166        2.0000           -0.3964145             -10.7870
       167        2.0000           -0.3818594             -10.3909
       168        2.0000           -0.3812789             -10.3751
       169        2.0000           -0.3759931             -10.2313
       170        2.0000           -0.3751545             -10.2085
       171        2.0000           -0.3526216              -9.5953
       172        2.0000           -0.3515774              -9.5669 (HOMO)
       173                         -0.2968192              -8.0769 (LUMO)
       174                         -0.2584283              -7.0322
       175                         -0.2572664              -7.0006
       176                         -0.2529056              -6.8819
       177                         -0.2523214              -6.8660
       178                         -0.2516776              -6.8485
       179                         -0.2487896              -6.7699
       180                         -0.2459215              -6.6919
       181                         -0.2337146              -6.3597
       182                         -0.2328878              -6.3372
       183                         -0.2260512              -6.1512
       ...                                ...                  ...
       340                          0.7293063              19.8454
      -------------------------------------------------------------
                  HL-Gap            0.0547582 Eh            1.4900 eV

     #   Z          covCN         q      C6AA      α(0)
     1   8 O        0.858    -0.365    20.998     6.144
     2   6 C        2.828     0.226    23.250     7.901
     3   6 C        2.972    -0.013    28.338     8.732
     4   6 C        2.920    -0.026    28.660     8.779
     5   6 C        2.920    -0.037    28.923     8.819
     6   6 C        2.929     0.076    26.305     8.411
     7   7 N        2.753    -0.068    22.554     7.053
     8   6 C        2.924     0.059    26.686     8.471
     9   6 C        2.924    -0.058    29.438     8.898
    10   6 C        2.920    -0.032    28.791     8.799
    11   6 C        2.917    -0.042    29.034     8.836
    12   6 C        2.926    -0.034    28.855     8.809
    13   6 C        2.984    -0.007    28.188     8.709
    14   6 C        3.951     0.012    20.302     6.402
    15   6 C        3.060     0.003    27.900     8.662
    16   6 C        2.914    -0.032    28.797     8.800
    17   6 C        2.923    -0.031    28.780     8.798
    18   6 C        2.921    -0.032    28.801     8.801
    19   6 C        2.915    -0.034    28.842     8.807
    20   6 C        3.034     0.001    27.960     8.673
    21   6 C        3.035     0.002    27.959     8.673
    22   6 C        2.915    -0.034    28.847     8.807
    23   6 C        2.921    -0.032    28.802     8.801
    24   6 C        2.923    -0.031    28.783     8.798
    25   6 C        2.914    -0.032    28.795     8.799
    26   6 C        3.059     0.003    27.905     8.663
    27   6 C        2.979    -0.003    28.104     8.696
    28   6 C        2.925    -0.042    29.045     8.838
    29   6 C        2.986     0.004    27.918     8.667
    30   6 C        2.918    -0.034    28.853     8.808
    31   6 C        2.916    -0.033    28.829     8.805
    32   6 C        2.916    -0.030    28.756     8.794
    33   6 C        2.919    -0.038    28.952     8.824
    34   6 C        2.986     0.011    27.768     8.644
    35   6 C        2.924    -0.071    29.758     8.946
    36   6 C        2.922     0.058    26.699     8.473
    37   6 C        2.920    -0.036    28.887     8.814
    38   6 C        2.924    -0.017    28.445     8.746
    39   6 C        2.972    -0.014    28.356     8.735
    40   6 C        2.924    -0.018    28.448     8.747
    41   6 C        2.920    -0.037    28.909     8.817
    42   6 C        2.929     0.075    26.317     8.413
    43   7 N        2.753    -0.067    22.530     7.050
    44   6 C        2.925     0.058    26.692     8.473
    45   6 C        2.924    -0.057    29.422     8.895
    46   6 C        2.920    -0.032    28.787     8.799
    47   6 C        2.918    -0.041    29.022     8.834
    48   6 C        2.926    -0.034    28.856     8.809
    49   6 C        2.984    -0.007    28.177     8.707
    50   6 C        3.951     0.012    20.301     6.402
    51   6 C        3.060     0.003    27.901     8.662
    52   6 C        2.914    -0.032    28.801     8.800
    53   6 C        2.923    -0.031    28.781     8.798
    54   6 C        2.921    -0.032    28.800     8.801
    55   6 C        2.915    -0.034    28.839     8.806
    56   6 C        3.034     0.002    27.958     8.673
    57   6 C        3.035     0.001    27.961     8.673
    58   6 C        2.915    -0.034    28.849     8.808
    59   6 C        2.921    -0.032    28.801     8.801
    60   6 C        2.923    -0.031    28.781     8.798
    61   6 C        2.914    -0.032    28.792     8.799
    62   6 C        3.058     0.003    27.907     8.663
    63   6 C        2.979    -0.003    28.100     8.695
    64   6 C        2.925    -0.042    29.048     8.838
    65   6 C        2.986     0.004    27.916     8.667
    66   6 C        2.918    -0.034    28.851     8.808
    67   6 C        2.916    -0.033    28.827     8.804
    68   6 C        2.916    -0.030    28.757     8.794
    69   6 C        2.919    -0.038    28.952     8.824
    70   6 C        2.986     0.011    27.771     8.644
    71   6 C        2.924    -0.071    29.763     8.947
    72   6 C        2.920     0.058    26.700     8.474
    73   6 C        2.920    -0.037    28.927     8.820
    74   6 C        2.920    -0.027    28.669     8.780
    75   1 H        0.926     0.042     2.421     2.433
    76   1 H        0.926     0.047     2.351     2.398
    77   1 H        0.926     0.026     2.638     2.540
    78   1 H        0.926     0.031     2.571     2.507
    79   1 H        0.926     0.030     2.586     2.515
    80   1 H        0.926     0.030     2.582     2.513
    81   1 H        0.926     0.025     2.656     2.549
    82   1 H        0.926     0.031     2.574     2.509
    83   1 H        0.926     0.031     2.576     2.510
    84   1 H        0.926     0.031     2.569     2.506
    85   1 H        0.926     0.031     2.571     2.507
    86   1 H        0.926     0.030     2.580     2.512
    87   1 H        0.926     0.030     2.580     2.512
    88   1 H        0.926     0.025     2.658     2.549
    89   1 H        0.926     0.032     2.559     2.502
    90   1 H        0.926     0.029     2.600     2.521
    91   1 H        0.926     0.028     2.618     2.530
    92   1 H        0.926     0.028     2.617     2.530
    93   1 H        0.926     0.026     2.649     2.545
    94   1 H        0.926     0.023     2.687     2.563
    95   1 H        0.926     0.050     2.323     2.384
    96   1 H        0.926     0.062     2.179     2.309
    97   1 H        0.926     0.062     2.179     2.308
    98   1 H        0.926     0.049     2.330     2.387
    99   1 H        0.926     0.028     2.621     2.532
   100   1 H        0.926     0.032     2.557     2.500
   101   1 H        0.926     0.031     2.578     2.511
   102   1 H        0.926     0.031     2.577     2.510
   103   1 H        0.926     0.025     2.662     2.551
   104   1 H        0.926     0.031     2.574     2.509
   105   1 H        0.926     0.031     2.574     2.509
   106   1 H        0.926     0.032     2.565     2.504
   107   1 H        0.926     0.031     2.570     2.507
   108   1 H        0.926     0.031     2.578     2.511
   109   1 H        0.926     0.031     2.577     2.510
   110   1 H        0.926     0.025     2.652     2.546
   111   1 H        0.926     0.032     2.556     2.500
   112   1 H        0.926     0.029     2.597     2.520
   113   1 H        0.926     0.028     2.615     2.529
   114   1 H        0.926     0.028     2.617     2.530
   115   1 H        0.926     0.025     2.659     2.550
   116   1 H        0.926     0.024     2.672     2.556
   117   1 H        0.926     0.048     2.346     2.395
   118   1 H        0.926     0.042     2.418     2.432

molecular dipole:
                 x           y           z       tot (Debye)
 q only:        0.129      -0.586      -0.344
   full:        0.131      -0.696      -0.408       2.077

 projected vibrational frequencies (cm⁻¹)
eigval :       -0.00    -0.00    -0.00    -0.00     0.00     0.00
eigval :        1.69     2.07     4.16     5.81     8.54    25.64
eigval :       26.97    31.30    33.20    34.25    39.20    41.16
eigval :       43.99    47.93    54.93    57.59    72.06    80.17
eigval :       80.76    81.58    86.62   107.15   109.45   118.23
eigval :      120.70   131.76   134.02   138.55   139.18   145.98
eigval :      147.44   152.58   181.98   189.08   203.23   215.67
eigval :      234.19   235.62   242.16   245.76   251.34   254.10
eigval :      267.74   271.34   275.72   284.83   289.87   291.54
eigval :      304.50   304.90   312.56   324.42   344.58   364.98
eigval :      369.67   377.88   383.15   384.42   387.70   388.98
eigval :      411.67   413.27   415.73   419.22   420.97   430.97
eigval :      437.79   443.17   443.99   444.83   445.74   452.56
eigval :      465.58   466.51   480.34   483.22   500.06   501.15
eigval :      502.40   505.21   507.20   509.65   512.48   512.75
eigval :      539.38   539.41   540.54   551.16   556.38   558.19
eigval :      575.98   584.49   584.65   595.07   595.84   596.24
eigval :      596.45   601.95   607.79   609.88   618.86   621.67
eigval :      634.78   657.62   658.50   659.11   673.02   674.99
eigval :      680.05   680.86   682.64   684.96   695.97   707.46
eigval :      713.33   713.43   730.52   730.57   737.23   741.33
eigval :      753.71   753.79   760.78   760.92   767.04   767.74
eigval :      775.30   775.93   785.74   785.75   810.85   812.37
eigval :      821.01   821.35   830.01   831.43   839.21   842.02
eigval :      866.86   868.21   870.03   870.12   873.66   875.43
eigval :      875.84   877.75   877.83   878.63   879.02   879.12
eigval :      882.65   888.20   896.41   896.42   898.25   908.83
eigval :      909.00   909.31   909.55   912.57   912.81   913.71
eigval :      913.72   919.79   921.19   921.36   921.48   921.76
eigval :      922.42   925.25   925.91   925.99   927.01   927.01
eigval :      927.97   928.03   929.40   935.58   955.87   978.40
eigval :      978.55  1005.99  1006.00  1014.69  1028.91  1074.33
eigval :     1074.36  1078.73  1078.76  1079.04  1079.19  1085.11
eigval :     1085.16  1109.53  1109.81  1129.07  1130.63  1135.14
eigval :     1135.55  1142.90  1142.95  1145.34  1145.54  1160.55
eigval :     1161.06  1172.73  1176.91  1176.96  1178.83  1179.51
eigval :     1180.06  1180.36  1180.89  1185.38  1185.82  1185.95
eigval :     1194.20  1199.56  1204.41  1204.81  1208.30  1209.26
eigval :     1221.65  1225.31  1233.44  1233.48  1239.35  1240.65
eigval :     1249.17  1253.68  1258.82  1259.79  1259.92  1261.31
eigval :     1263.27  1271.52  1272.30  1274.49  1274.54  1284.48
eigval :     1284.67  1309.60  1311.04  1312.32  1314.19  1316.12
eigval :     1317.23  1326.89  1326.96  1331.92  1331.99  1340.58
eigval :     1341.92  1367.64  1367.65  1377.34  1377.99  1400.24
eigval :     1402.37  1410.93  1411.16  1429.53  1429.55  1430.48
eigval :     1430.69  1437.47  1437.86  1448.62  1448.95  1456.48
eigval :     1457.61  1461.69  1461.71  1472.23  1472.35  1473.52
eigval :     1475.51  1487.05  1487.73  1506.11  1507.11  1557.98
eigval :     1559.80  1560.99  1561.45  1581.29  1582.20  1584.35
eigval :     1586.60  1586.61  1586.63  1591.18  1591.41  1597.20
eigval :     1597.25  1601.64  1601.74  1605.27  1605.32  1605.41
eigval :     1605.59  1609.23  1609.27  1694.05  3064.80  3065.41
eigval :     3069.77  3070.09  3072.38  3072.41  3072.92  3073.10
eigval :     3075.69  3075.71  3076.49  3076.74  3076.83  3077.01
eigval :     3078.97  3079.09  3080.83  3081.36  3081.63  3083.17
eigval :     3083.27  3083.35  3083.63  3084.37  3085.23  3085.45
eigval :     3085.68  3088.54  3089.30  3089.59  3090.04  3090.18
eigval :     3091.51  3091.65  3092.90  3093.04  3093.72  3094.74
eigval :     3096.40  3096.92  3100.04  3100.40  3102.15  3102.75

   temp. (K)  partition function   enthalpy   heat capacity  entropy
                                   cal/mol     cal/K/mol   cal/K/mol   J/K/mol
 298.15  VIB  0.333E+30            33973.633    214.840    216.772
         ROT  0.338E+09              888.752      2.981     42.010
         INT  0.113E+39            34862.386    217.821    258.782
         TR   0.279E+29             1481.254      4.968     46.380
         TOT                       36343.6398   222.7891   305.1616  1276.7962

       T/K    H(0)-H(T)+PV         H(T)/Eh          T*S/Eh         G(T)/Eh
   ------------------------------------------------------------------------
    298.15    0.579173E-01    0.962007E+00    0.144992E+00    0.817015E+00
   ------------------------------------------------------------------------

         :::::::::::::::::::::::::::::::::::::::::::::::::::::
         ::                  THERMODYNAMIC                  ::
         :::::::::::::::::::::::::::::::::::::::::::::::::::::
         :: total free energy        -183.658242390517 Eh   ::
         ::.................................................::
         :: total energy             -184.475257033288 Eh   ::
         :: zero point energy           0.904089492529 Eh   ::
         :: G(RRHO) w/o ZPVE           -0.087074849758 Eh   ::
         :: G(RRHO) contrib.            0.817014642771 Eh   ::
         :::::::::::::::::::::::::::::::::::::::::::::::::::::

           -------------------------------------------------
          | TOTAL ENERGY             -184.475257033288 Eh   |
          | TOTAL ENTHALPY           -183.513250264213 Eh   |
          | TOTAL FREE ENERGY        -183.658242390517 Eh   |
          | GRADIENT NORM               0.000056683550 Eh/α |
          | HOMO-LUMO GAP               1.490045600784 eV   |
           -------------------------------------------------

 * finished run on 2025/09/05 at 07:43:43.587
