   * xtb version 6.7.1 (edcfbbe) compiled by 'albert@albert-system' on 2024-07-22

   ID    Z sym.   atoms
    1    7 N      1, 7, 21, 42
    2    6 C      2-6, 8-20, 22-41, 43-62
    3    1 H      63-96

          program call               : xtb data2507/toluene/CCAPI/CCAPI.xyz --gfn 2 --gbsa toluene --ohess vtight --parallel 40 --molden --ceasefiles --namespace data2507/toluene/CCAPI/CCAPI_toluene_S0_preOpt
      * Solvation model:               GBSA
        Solvent                        toluene
        Solvent mass                       9.2140E+01 g/mol
          :  Hamiltonian                  GFN2-xTB          :
 * total energy  :  -153.3342001 Eh     change       -0.2071062E-08 Eh
 * total energy  :  -153.3556538 Eh     change       -0.2145365E-01 Eh
 * total energy  :  -153.3617599 Eh     change       -0.6106117E-02 Eh
 * total energy  :  -153.3626965 Eh     change       -0.9365796E-03 Eh
 * total energy  :  -153.3623568 Eh     change        0.3396862E-03 Eh
 * total energy  :  -153.3633297 Eh     change       -0.9728643E-03 Eh
 * total energy  :  -153.3635121 Eh     change       -0.1824312E-03 Eh
 * total energy  :  -153.3638004 Eh     change       -0.2883217E-03 Eh
 * total energy  :  -153.3640463 Eh     change       -0.2458726E-03 Eh
 * total energy  :  -153.3642388 Eh     change       -0.1924859E-03 Eh
 * total energy  :  -153.3653549 Eh     change       -0.1979443E-06 Eh
 * total energy  :  -153.3653551 Eh     change       -0.1621469E-06 Eh
 * total energy  :  -153.3653553 Eh     change       -0.1884471E-06 Eh
 * total energy  :  -153.3653554 Eh     change       -0.1635817E-06 Eh
 * total energy  :  -153.3653556 Eh     change       -0.1453504E-06 Eh
 * total energy  :  -153.3653559 Eh     change       -0.2773852E-06 Eh
 * total energy  :  -153.3653560 Eh     change       -0.1461020E-06 Eh
 * total energy  :  -153.3653561 Eh     change       -0.1136072E-06 Eh
 * total energy  :  -153.3653562 Eh     change       -0.6793323E-07 Eh
   *** GEOMETRY OPTIMIZATION CONVERGED AFTER 93 ITERATIONS ***

 final structure:
================
96
 xtb: 6.7.1 (edcfbbe)
N           -2.45478699057750        6.45706352086524       -1.68861020063838
C           -2.79021963386814        5.39496735398258       -1.40888736109705
C           -3.21608698852508        4.08759304582793       -1.09123837234176
C           -3.92389111691747        3.36534427388239       -2.03223524566739
C           -4.34218848996131        2.06582586030096       -1.74898102771732
C           -4.06506369807296        1.49263761156335       -0.52629859250065
N           -4.45010163062641        0.16191601714354       -0.28066311182261
C           -3.58068175389817       -0.90100659867189       -0.13389410018940
C           -2.13036677131339       -0.79528050174800       -0.17283576557177
C           -1.45659515734703        0.06500128316858       -1.03748689520450
C           -0.07683119239275        0.12589969477848       -1.02655357991191
C            0.66524862780485       -0.67267555097464       -0.16114682126837
C            2.14138450766223       -0.59767894862616       -0.14678010650755
C            2.77507439185417        0.55533319847452        0.34132844423016
C            2.03904833020626        1.66165221708291        0.84258502772679
C            2.66710911186178        2.76487402104812        1.33382958367889
C            4.07467332672167        2.82601302989523        1.37166793905053
C            4.81957093337841        1.78449377233621        0.91035045487058
C            4.20295382093335        0.62356210574099        0.37439368938290
C            4.95219018468224       -0.46186499979048       -0.10132372469091
N            6.36101812604196       -0.39695225207398       -0.07301294006708
C            7.18391539034233       -1.13919101586461        0.74564334944809
C            6.84476669843366       -2.06953491681214        1.71775661071325
C            7.87339879948449       -2.67236114296624        2.41533707412696
C            9.20749889198316       -2.35735828876298        2.15971711538426
C            9.54884483935825       -1.42424032328085        1.20069407661335
C            8.53300057243139       -0.80382241480741        0.48375431455775
C            8.50980667372654        0.18990344819346       -0.55349029570893
C            9.49535448727462        0.89285165884849       -1.23564634599216
C            9.11192904049337        1.79596463781150       -2.20737023139873
C            7.76605292218810        2.00116891775477       -2.50878009031803
C            6.76694945214757        1.31393207738516       -1.84717978604203
C            7.14755099075297        0.41238610309496       -0.86332718683784
C            4.32646900343286       -1.61129425578368       -0.60504990713048
C            5.06904464246217       -2.70382272927161       -1.12473552631921
C            4.44302611551669       -3.80724783962615       -1.61773840391060
C            3.03562946530259       -3.88055859023929       -1.62927040770480
C            2.28829551354692       -2.84761356191848       -1.15202944297889
C            2.89828049146471       -1.68086834309425       -0.61916892933511
C           -0.00856374563338       -1.55099668393454        0.68499674991751
C           -1.38624915978017       -1.61500489378753        0.67705105020110
N           -4.21458780172084       -2.02997879227274        0.05505876580744
C           -5.54080249722947       -1.72839426026322        0.02949545561847
C           -6.64230689314822       -2.62111718048584        0.15377719166519
C           -6.44739171256358       -3.99746799065993        0.31455937548615
C           -7.52358253455498       -4.84513986747793        0.40237933547953
C           -8.81362970430723       -4.32270248269259        0.32765883347404
C           -9.01698245990787       -2.97083254237995        0.17491172454345
C           -7.94317889505865       -2.07060431856973        0.08865071849243
C           -8.12610310713315       -0.63446434315352       -0.03958531241055
C           -9.40188140229934       -0.05157936943346       -0.03365697232254
C           -9.58350416093822        1.30928654501183       -0.11069752421892
C           -8.48310426408087        2.15818005279442       -0.18074907596516
C           -7.21677885428529        1.62736564136461       -0.19799468119084
C           -7.01036235876618        0.24108164083838       -0.14963725134202
C           -5.72082721008749       -0.36128596560741       -0.16765041435948
C           -3.36115896993991        2.21307590104208        0.47649035682863
C           -3.10028140689080        1.67501506388089        1.75425096283180
C           -2.41781311435271        2.40102674630162        2.69050388096093
C           -1.96612081325588        3.69574945215503        2.39461938315423
C           -2.21446898779514        4.25140129600116        1.16947193974842
C           -2.92094428287917        3.53118720293287        0.18537904434853
H           -4.14560192657821        3.80298815834166       -2.99403621367187
H           -4.88583718854002        1.50084051475851       -2.49196396557317
H           -2.00497012792753        0.67284056178181       -1.74068926908160
H            0.43594581596912        0.79178705930171       -1.70553093341250
H            0.96112815274605        1.61009294535714        0.82971250415647
H            2.09139961315157        3.59885515657298        1.70709205790630
H            4.55711946416397        3.70325493840683        1.77686303363095
H            5.89755494214451        1.82948555645822        0.95102520716498
H            5.81169273806573       -2.31331861088003        1.91710632983860
H            7.64002773465963       -3.40291996846789        3.17635555971894
H            9.98350860582975       -2.85175893711221        2.72584507688963
H           10.58295948517608       -1.17825154323822        1.00950474028232
H           10.53888470800367        0.73228606001105       -1.00826266061181
H            9.86372329320671        2.35326278633485       -2.74714167858417
H            7.49964194140812        2.71218676185009       -3.27746085273916
H            5.72487265360773        1.47295408325268       -2.08229665415151
H            6.14717757062096       -2.64565926914297       -1.13006503028984
H            5.02083176794959       -4.63007605985112       -2.01205099166352
H            2.55526326235859       -4.76074062255643       -2.03078831075328
H            1.21038816814961       -2.89944183576300       -1.17908305745169
H            0.55787526784363       -2.17990145808135        1.35615311221447
H           -1.91070114580440       -2.29573778330549        1.32993223426890
H           -5.43257105953302       -4.36252030491738        0.35897217416791
H           -7.37627167290979       -5.90811911912423        0.52448088834829
H           -9.66401566242107       -4.98638329880251        0.38988600274877
H          -10.03274083309024       -2.61335758159165        0.11955413684786
H          -10.27623080192184       -0.67720144075383        0.04212012979380
H          -10.58215651002735        1.72059267094896       -0.10347732766092
H           -8.62238359825954        3.22855540366011       -0.21687350100830
H           -6.36619504179867        2.28925885497473       -0.23303874926852
H           -3.45241362759104        0.68181377568428        1.98972127313543
H           -2.22471200249240        1.97969985190754        3.66530367181394
H           -1.42526078066992        4.25407416646220        3.14355097305288
H           -1.87858579688333        5.25174810099785        0.93696927228783

          :  Hamiltonian                  GFN2-xTB          :
         :: gradient norm              0.000041990139 Eh/a0 ::
         :: HOMO-LUMO gap              1.512677453538 eV    ::
         :: SCC energy              -156.309511527473 Eh    ::
         :: -> dispersion             -0.150719887056 Eh    ::
         :: -> Gsolv                  -0.064575711320 Eh    ::
         :: repulsion energy           2.944155333667 Eh    ::

    * Orbital Energies and Occupations

         #    Occupation            Energy/Eh            Energy/eV
      -------------------------------------------------------------
         1        2.0000           -0.6972590             -18.9734
       ...           ...                  ...                  ...
       131        2.0000           -0.4139218             -11.2634
       132        2.0000           -0.4113570             -11.1936
       133        2.0000           -0.4108245             -11.1791
       134        2.0000           -0.4064466             -11.0600
       135        2.0000           -0.4063660             -11.0578
       136        2.0000           -0.4035553             -10.9813
       137        2.0000           -0.4015366             -10.9264
       138        2.0000           -0.3877482             -10.5512
       139        2.0000           -0.3866889             -10.5223
       140        2.0000           -0.3776054             -10.2752
       141        2.0000           -0.3726435             -10.1401
       142        2.0000           -0.3699528             -10.0669
       143        2.0000           -0.3592949              -9.7769 (HOMO)
       144                         -0.3037050              -8.2642 (LUMO)
       145                         -0.2883047              -7.8452
       146                         -0.2652980              -7.2191
       147                         -0.2579733              -7.0198
       148                         -0.2546006              -6.9280
       149                         -0.2473302              -6.7302
       150                         -0.2439843              -6.6391
       151                         -0.2401471              -6.5347
       152                         -0.2385422              -6.4911
       153                         -0.2346084              -6.3840
       154                         -0.2264802              -6.1628
       ...                                ...                  ...
       282                          1.1505341              31.3076
      -------------------------------------------------------------
                  HL-Gap            0.0555899 Eh            1.5127 eV

     #   Z          covCN         q      C6AA      α(0)
     1   7 N        0.911    -0.266    26.883     7.499
     2   6 C        1.913     0.121    28.119     8.564
     3   6 C        2.970     0.009    27.819     8.652
     4   6 C        2.926    -0.018    28.460     8.749
     5   6 C        2.917    -0.038    28.940     8.822
     6   6 C        2.908     0.069    26.456     8.434
     7   7 N        2.840    -0.050    22.209     6.999
     8   6 C        3.185     0.135    24.641     8.101
     9   6 C        2.974    -0.003    28.104     8.696
    10   6 C        2.921    -0.036    28.899     8.816
    11   6 C        2.923    -0.032    28.788     8.799
    12   6 C        2.977     0.020    27.561     8.612
    13   6 C        2.976    -0.005    28.134     8.701
    14   6 C        2.983     0.007    27.855     8.657
    15   6 C        2.917    -0.034    28.840     8.806
    16   6 C        2.914    -0.029    28.714     8.787
    17   6 C        2.914    -0.028    28.697     8.784
    18   6 C        2.917    -0.032    28.788     8.798
    19   6 C        2.982     0.001    27.996     8.679
    20   6 C        2.911     0.045    26.982     8.518
    21   7 N        2.803    -0.047    22.153     6.990
    22   6 C        3.081     0.049    26.811     8.489
    23   6 C        2.909    -0.051    29.257     8.869
    24   6 C        2.924    -0.035    28.868     8.811
    25   6 C        2.920    -0.043    29.078     8.843
    26   6 C        2.912    -0.035    28.880     8.812
    27   6 C        3.068    -0.020    28.446     8.745
    28   6 C        3.068    -0.020    28.445     8.745
    29   6 C        2.912    -0.035    28.880     8.812
    30   6 C        2.920    -0.043    29.078     8.843
    31   6 C        2.924    -0.035    28.869     8.811
    32   6 C        2.909    -0.051    29.258     8.869
    33   6 C        3.080     0.049    26.812     8.489
    34   6 C        2.982     0.001    27.993     8.679
    35   6 C        2.917    -0.032    28.791     8.799
    36   6 C        2.914    -0.028    28.694     8.784
    37   6 C        2.914    -0.028    28.705     8.786
    38   6 C        2.917    -0.034    28.841     8.807
    39   6 C        2.983     0.007    27.846     8.656
    40   6 C        2.922    -0.030    28.740     8.791
    41   6 C        2.926    -0.028    28.701     8.786
    42   7 N        1.895    -0.309    28.861     7.964
    43   6 C        3.203     0.060    26.101     8.323
    44   6 C        2.985    -0.002    28.074     8.691
    45   6 C        2.921    -0.033    28.818     8.803
    46   6 C        2.917    -0.031    28.768     8.795
    47   6 C        2.917    -0.033    28.822     8.804
    48   6 C        2.921    -0.036    28.890     8.814
    49   6 C        2.979    -0.004    28.109     8.697
    50   6 C        2.979     0.000    28.021     8.683
    51   6 C        2.922    -0.034    28.850     8.808
    52   6 C        2.916    -0.033    28.817     8.803
    53   6 C        2.917    -0.032    28.789     8.799
    54   6 C        2.919    -0.041    29.006     8.832
    55   6 C        2.978    -0.005    28.139     8.701
    56   6 C        3.070     0.021    27.475     8.595
    57   6 C        2.985     0.005    27.898     8.664
    58   6 C        2.917    -0.028    28.696     8.784
    59   6 C        2.916    -0.022    28.561     8.764
    60   6 C        2.916    -0.020    28.509     8.756
    61   6 C        2.917    -0.029    28.732     8.790
    62   6 C        2.990     0.021    27.536     8.608
    63   1 H        0.926     0.054     2.273     2.358
    64   1 H        0.926     0.052     2.295     2.369
    65   1 H        0.926     0.028     2.610     2.526
    66   1 H        0.926     0.039     2.465     2.455
    67   1 H        0.926     0.034     2.532     2.488
    68   1 H        0.926     0.036     2.506     2.476
    69   1 H        0.926     0.036     2.503     2.474
    70   1 H        0.926     0.035     2.522     2.483
    71   1 H        0.926     0.025     2.661     2.551
    72   1 H        0.926     0.029     2.603     2.523
    73   1 H        0.926     0.027     2.633     2.538
    74   1 H        0.926     0.029     2.601     2.522
    75   1 H        0.926     0.029     2.599     2.521
    76   1 H        0.926     0.027     2.634     2.538
    77   1 H        0.926     0.028     2.609     2.526
    78   1 H        0.926     0.024     2.671     2.556
    79   1 H        0.926     0.034     2.528     2.486
    80   1 H        0.926     0.036     2.507     2.476
    81   1 H        0.926     0.037     2.495     2.470
    82   1 H        0.926     0.038     2.475     2.460
    83   1 H        0.926     0.044     2.391     2.418
    84   1 H        0.926     0.049     2.333     2.388
    85   1 H        0.926     0.045     2.381     2.413
    86   1 H        0.926     0.034     2.525     2.485
    87   1 H        0.926     0.034     2.534     2.489
    88   1 H        0.926     0.036     2.498     2.471
    89   1 H        0.926     0.040     2.455     2.450
    90   1 H        0.926     0.035     2.521     2.483
    91   1 H        0.926     0.032     2.552     2.498
    92   1 H        0.926     0.025     2.658     2.549
    93   1 H        0.926     0.038     2.480     2.463
    94   1 H        0.926     0.051     2.313     2.379
    95   1 H        0.926     0.052     2.294     2.368
    96   1 H        0.926     0.045     2.385     2.415

molecular dipole:
                 x           y           z       tot (Debye)
 q only:       -0.610      -0.459       0.653
   full:       -0.963      -0.472       0.617       3.144

 projected vibrational frequencies (cm⁻¹)
eigval :       -0.00     0.00     0.00     0.00     0.00     0.00
eigval :        5.71    10.55    13.92    19.43    21.74    25.91
eigval :       33.04    36.99    40.09    49.73    55.46    65.52
eigval :       71.97    76.51    85.91    88.96    98.84   104.16
eigval :      109.09   118.05   124.23   126.60   142.08   143.00
eigval :      151.77   157.77   168.28   181.06   187.17   198.18
eigval :      202.77   210.26   231.37   245.29   246.25   255.92
eigval :      271.02   276.83   303.13   304.40   309.56   348.22
eigval :      371.12   372.93   375.66   385.63   393.58   395.24
eigval :      399.93   402.39   409.55   411.14   415.23   417.26
eigval :      422.76   427.67   429.69   434.53   439.71   447.22
eigval :      448.30   455.82   460.26   477.51   501.98   510.71
eigval :      517.58   520.94   528.68   535.06   538.60   542.20
eigval :      542.87   576.28   582.07   584.09   586.04   587.68
eigval :      589.63   597.47   603.59   611.05   616.72   619.85
eigval :      639.57   640.74   649.81   660.89   670.45   673.38
eigval :      676.84   679.72   684.38   691.76   700.07   704.94
eigval :      706.31   708.40   731.38   735.38   736.18   738.76
eigval :      755.04   764.47   766.86   771.55   772.22   775.22
eigval :      778.26   778.63   782.33   786.74   817.19   839.99
eigval :      852.89   859.79   866.19   868.71   871.36   872.52
eigval :      872.83   873.58   876.23   887.73   900.72   901.15
eigval :      901.33   901.94   906.76   909.24   913.38   915.03
eigval :      917.44   918.70   920.65   920.76   921.40   925.13
eigval :      925.73   926.56   927.39   929.10   931.18   931.48
eigval :      934.07   941.90  1000.63  1011.01  1015.28  1025.00
eigval :     1041.44  1056.79  1066.18  1069.68  1082.46  1082.90
eigval :     1083.72  1084.72  1098.93  1106.72  1133.84  1135.40
eigval :     1140.88  1143.48  1149.25  1150.28  1169.11  1172.41
eigval :     1174.05  1177.78  1179.43  1179.77  1180.48  1181.25
eigval :     1183.57  1186.69  1191.20  1193.44  1209.09  1216.93
eigval :     1227.68  1230.48  1233.06  1237.32  1252.64  1254.03
eigval :     1255.04  1258.27  1261.79  1269.13  1281.49  1287.19
eigval :     1294.80  1304.73  1305.82  1311.93  1312.43  1325.63
eigval :     1336.79  1341.13  1345.74  1348.12  1349.85  1356.44
eigval :     1361.24  1377.99  1381.50  1384.93  1385.37  1396.83
eigval :     1405.44  1406.05  1414.51  1417.48  1426.85  1427.97
eigval :     1428.17  1430.46  1433.23  1445.45  1449.46  1468.86
eigval :     1473.92  1483.72  1487.63  1499.38  1511.78  1513.77
eigval :     1524.56  1531.33  1538.26  1541.14  1551.34  1556.28
eigval :     1560.81  1564.36  1568.81  1571.20  1587.96  1592.78
eigval :     1594.82  1597.26  1603.04  1603.18  1606.16  1613.50
eigval :     1620.48  2354.84  3069.44  3069.73  3071.88  3074.15
eigval :     3074.81  3075.32  3075.57  3075.93  3079.15  3080.99
eigval :     3081.70  3082.10  3082.19  3082.32  3082.65  3083.17
eigval :     3085.51  3086.71  3087.87  3088.66  3091.21  3092.70
eigval :     3093.62  3094.11  3096.74  3097.07  3097.17  3098.30
eigval :     3099.80  3100.00  3100.56  3102.63  3110.69  3112.57

   temp. (K)  partition function   enthalpy   heat capacity  entropy
                                   cal/mol     cal/K/mol   cal/K/mol   J/K/mol
 298.15  VIB  0.101E+23            27972.082    177.993    174.160
         ROT  0.173E+09              888.752      2.981     40.676
         INT  0.175E+31            28860.834    180.974    214.836
         TR   0.214E+29             1481.254      4.968     45.846
         TOT                       30342.0884   185.9417   260.6826  1090.6961

       T/K    H(0)-H(T)+PV         H(T)/Eh          T*S/Eh         G(T)/Eh
   ------------------------------------------------------------------------
    298.15    0.483532E-01    0.772969E+00    0.123859E+00    0.649111E+00
   ------------------------------------------------------------------------

         :::::::::::::::::::::::::::::::::::::::::::::::::::::
         ::                  THERMODYNAMIC                  ::
         :::::::::::::::::::::::::::::::::::::::::::::::::::::
         :: total free energy        -152.716245454646 Eh   ::
         ::.................................................::
         :: total energy             -153.365356193740 Eh   ::
         :: zero point energy           0.724616274817 Eh   ::
         :: G(RRHO) w/o ZPVE           -0.075505535723 Eh   ::
         :: G(RRHO) contrib.            0.649110739094 Eh   ::
         :::::::::::::::::::::::::::::::::::::::::::::::::::::

           -------------------------------------------------
          | TOTAL ENERGY             -153.365356193740 Eh   |
          | TOTAL ENTHALPY           -152.592386723256 Eh   |
          | TOTAL FREE ENERGY        -152.716245454646 Eh   |
          | GRADIENT NORM               0.000041980228 Eh/α |
          | HOMO-LUMO GAP               1.512678066010 eV   |
           -------------------------------------------------

 * finished run on 2025/09/13 at 01:07:37.851
