   * xtb version 6.7.1 (edcfbbe) compiled by 'albert@albert-system' on 2024-07-22

   ID    Z sym.   atoms
    1    7 N      1, 7, 21, 42
    2    6 C      2-6, 8-20, 22-41, 43-62
    3    1 H      63-96

          program call               : xtb data2507/toluene/CCAPI/CCAPI_toluene_S0_finalOpt.xtbopt.xyz --gfn 2 --uhf 2 --gbsa toluene --ohess vtight --parallel 40 --molden --ceasefiles --namespace data2507/toluene/CCAPI/CCAPI_toluene_T1_preOpt
      * Solvation model:               GBSA
        Solvent                        toluene
        Solvent mass                       9.2140E+01 g/mol
          :  Hamiltonian                  GFN2-xTB          :
 * total energy  :  -153.2945623 Eh     change       -0.2698840E-08 Eh
 * total energy  :  -153.2983933 Eh     change       -0.3830980E-02 Eh
 * total energy  :  -153.2996326 Eh     change       -0.1239302E-02 Eh
 * total energy  :  -153.2995015 Eh     change        0.1310528E-03 Eh
 * total energy  :  -153.2998991 Eh     change       -0.3975313E-03 Eh
 * total energy  :  -153.2999990 Eh     change       -0.9996486E-04 Eh
 * total energy  :  -153.3001395 Eh     change       -0.1405138E-03 Eh
 * total energy  :  -153.3002214 Eh     change       -0.8184372E-04 Eh
 * total energy  :  -153.3002956 Eh     change       -0.7419976E-04 Eh
 * total energy  :  -153.3003568 Eh     change       -0.6119401E-04 Eh
 * total energy  :  -153.3007857 Eh     change       -0.3522994E-06 Eh
 * total energy  :  -153.3007860 Eh     change       -0.2987945E-06 Eh
 * total energy  :  -153.3007863 Eh     change       -0.3558866E-06 Eh
 * total energy  :  -153.3007867 Eh     change       -0.3495036E-06 Eh
 * total energy  :  -153.3007870 Eh     change       -0.2968229E-06 Eh
 * total energy  :  -153.3007873 Eh     change       -0.2940004E-06 Eh
 * total energy  :  -153.3007875 Eh     change       -0.1882042E-06 Eh
 * total energy  :  -153.3007879 Eh     change       -0.4235503E-06 Eh
 * total energy  :  -153.3007879 Eh     change       -0.1190870E-08 Eh
   *** GEOMETRY OPTIMIZATION CONVERGED AFTER 68 ITERATIONS ***

 final structure:
================
96
 xtb: 6.7.1 (edcfbbe)
N           -2.49968163273626        6.38522571959669       -2.06883622344401
C           -2.81294406260949        5.33654121122430       -1.71132895702693
C           -3.20627041872770        4.05172925209208       -1.30202947146441
C           -3.93711141859831        3.25772234680540       -2.17632306877455
C           -4.32193794119230        1.97689235802961       -1.80247889610855
C           -3.99221069464469        1.47952782109396       -0.55406435469429
N           -4.35177885198787        0.15822824455299       -0.22219506880233
C           -3.47348715962993       -0.89355757000892       -0.04057462172331
C           -2.03288746637830       -0.81362686740530       -0.12143221263933
C           -1.28393993114439       -1.73431948501846        0.62454146791808
C            0.08926580851045       -1.70551699440616        0.61093273152191
C            0.78454574166066       -0.74468135159423       -0.13882326910523
C            2.23779256351455       -0.68463924995600       -0.12279387639870
C            3.00091343121780       -1.85171871012606       -0.43022389535854
C            2.39567480868479       -3.04689687379932       -0.84237367884278
C            3.14055772255354       -4.19470465207017       -1.07292607520637
C            4.51238194073331       -4.17817601062172       -0.89015829547829
C            5.14800100711655       -2.99619852192186       -0.54230095461420
C            4.42532626116002       -1.80968695919961       -0.35602743914948
C            5.06961418685203       -0.57645462700073       -0.05713498894927
N            6.46411722436943       -0.52470213087288       -0.02491445158336
C            7.30931298292702       -0.79782177193920       -1.08486125422342
C            6.99339234531289       -1.11506715004705       -2.39905100709094
C            8.03839880489184       -1.30051613075811       -3.28447243019636
C            9.36520101608381       -1.16685630737959       -2.88015179194230
C            9.68374395795487       -0.82867868051680       -1.57741862765437
C            8.65149889374901       -0.63859106381920       -0.66993638498072
C            8.60684705690202       -0.26567535047418        0.71989639643017
C            9.58131333914162       -0.00961503026556        1.67386200343956
C            9.18124872163570        0.30554321979862        2.95977012938677
C            7.83129381680531        0.35217730215590        3.30172953161332
C            6.84273112527455        0.09914312050802        2.36938729583037
C            7.23924102598863       -0.19609870892251        1.07205944188456
C            4.32034364162749        0.60467105233682        0.20538083204067
C            4.94265600395962        1.84139267536485        0.42505909499739
C            4.20428669708967        2.97417214556838        0.73125503585773
C            2.82679709915484        2.89052147930243        0.83659315054025
C            2.18259807240926        1.68949403787012        0.57650930759904
C            2.89457934851649        0.53981394938102        0.20810927156912
C            0.03075346495714        0.15237003128532       -0.90793099754980
C           -1.34443269217299        0.11091308591736       -0.91311544782540
N           -4.10513559181794       -2.01412168920148        0.23593574412419
C           -5.42621712060951       -1.71563604205977        0.22782230913536
C           -6.52302574646783       -2.60030541129691        0.42894947600552
C           -6.32108413949026       -3.96609121652125        0.65657507520939
C           -7.39284179390488       -4.80915961123208        0.81827725950460
C           -8.68501910042846       -4.29243922908069        0.74927071035350
C           -8.89515642451731       -2.95005868905893        0.53000092080859
C           -7.82627473207432       -2.05503595619466        0.36955201419189
C           -8.01516845315773       -0.62665985099445        0.17321740187396
C           -9.29083261136835       -0.04551821035852        0.18840392040005
C           -9.47789152464818        1.31031000063058        0.04952579104130
C           -8.38192850730898        2.15554137613836       -0.09427463673337
C           -7.11544949126383        1.62561843953946       -0.12394986008068
C           -6.90411971582449        0.24278098172772       -0.01476101680403
C           -5.61442821613038       -0.35699493980938       -0.04081830018327
C           -3.27045662882628        2.26998304048901        0.38173020433646
C           -2.95723149339211        1.81439303498635        1.67774754582010
C           -2.25376072843884        2.60580205175356        2.54767729178163
C           -1.83342991114108        3.88283894721398        2.16034487901817
C           -2.13448206125915        4.35989937447665        0.91017482656923
C           -2.86165422791261        3.57462297739272       -0.00280716687143
H           -4.19584287776371        3.63561019585611       -3.15426849313250
H           -4.88013142010369        1.35762847306557       -2.48960878373367
H           -1.81529899052194       -2.45710853411710        1.22415432188225
H            0.64662721479634       -2.39853771017830        1.22377137464350
H            1.32758091324623       -3.07574540633975       -0.98995231384814
H            2.64251114383347       -5.10012165484169       -1.38588566967559
H            5.09523700429885       -5.07510312129763       -1.03625944690064
H            6.22000180355406       -2.99344493277631       -0.41803341955642
H            5.96675820025552       -1.21688532670419       -2.71638268030786
H            7.82139732027354       -1.55256141115065       -4.31192529363990
H           10.15474043275923       -1.32279290590548       -3.60023625040116
H           10.71195133564677       -0.70864040622046       -1.27151991616758
H           10.62823334750568       -0.06145250851148        1.41598203000049
H            9.92456243386262        0.51182578853116        3.71551618568603
H            7.55089666032813        0.58915153152832        4.31734940824444
H            5.79820003594444        0.13316334355589        2.63899388393405
H            6.01725340612657        1.91718589929383        0.35965095206947
H            4.71057628408803        3.91210880364438        0.90326226266131
H            2.24562225767275        3.75781199602160        1.11207195410411
H            1.10876590198929        1.64228035854944        0.66400244787507
H            0.54293299444741        0.85982708706012       -1.54385975170276
H           -1.88493450900462        0.78452091110079       -1.55943111623172
H           -5.30453377805717       -4.32705913029660        0.69297987109948
H           -7.23991066911092       -5.86386577697768        0.99328085661289
H           -9.53234012180562       -4.95211128436853        0.86890549356114
H           -9.91275244066653       -2.59695048245573        0.48140613101660
H          -10.16132610881316       -0.66692964699796        0.32161937008412
H          -10.47685713697292        1.72054739023793        0.06578881031704
H           -8.52399582695893        3.22286028845068       -0.17851902474823
H           -6.26756897387418        2.28498492238238       -0.21789014394611
H           -3.28174387306588        0.83070775778505        1.98427168484286
H           -2.02117232588305        2.24361963455652        3.53788060290360
H           -1.27450020718884        4.49456983392837        2.85252204232886
H           -1.82126816035858        5.34876784160177        0.60637043752000

          :  Hamiltonian                  GFN2-xTB          :
         :: gradient norm              0.000183700716 Eh/a0 ::
         :: HOMO-LUMO gap              0.090568888101 eV    ::
         :: SCC energy              -156.225171667378 Eh    ::
         :: -> dispersion             -0.151083629584 Eh    ::
         :: -> Gsolv                  -0.065400800210 Eh    ::
         :: repulsion energy           2.924383777370 Eh    ::

    * Orbital Energies and Occupations

         #    Occupation            Energy/Eh            Energy/eV
      -------------------------------------------------------------
         1        2.0000           -0.6940104             -18.8850
       ...           ...                  ...                  ...
       132        2.0000           -0.4134516             -11.2506
       133        2.0000           -0.4098263             -11.1519
       134        2.0000           -0.4092791             -11.1371
       135        2.0000           -0.4069590             -11.0739
       136        2.0000           -0.4035571             -10.9813
       137        2.0000           -0.3948046             -10.7432
       138        2.0000           -0.3867501             -10.5240
       139        2.0000           -0.3867329             -10.5235
       140        2.0000           -0.3835833             -10.4378
       141        2.0000           -0.3771987             -10.2641
       142        1.9985           -0.3702110             -10.0740
       143        1.0015           -0.3578829              -9.7385
       144        0.8521           -0.2970865              -8.0841 (HOMO)
       145        0.1479           -0.2937585              -7.9936 (LUMO)
       146                         -0.2656062              -7.2275
       147                         -0.2541853              -6.9167
       148                         -0.2522787              -6.8649
       149                         -0.2475819              -6.7370
       150                         -0.2471044              -6.7241
       151                         -0.2367512              -6.4423
       152                         -0.2321015              -6.3158
       153                         -0.2305199              -6.2728
       154                         -0.2302567              -6.2656
       155                         -0.2289298              -6.2295
       ...                                ...                  ...
       282                          1.1560209              31.4569
      -------------------------------------------------------------
                  HL-Gap            0.0033280 Eh            0.0906 eV

     #   Z          covCN         q      C6AA      α(0)
     1   7 N        0.911    -0.296    27.615     7.600
     2   6 C        1.913     0.116    28.246     8.583
     3   6 C        2.969    -0.004    28.123     8.699
     4   6 C        2.925    -0.026    28.648     8.777
     5   6 C        2.916    -0.042    29.047     8.838
     6   6 C        2.907     0.056    26.741     8.479
     7   7 N        2.837    -0.050    22.201     6.998
     8   6 C        3.182     0.136    24.641     8.102
     9   6 C        2.973    -0.003    28.093     8.694
    10   6 C        2.926    -0.029    28.730     8.790
    11   6 C        2.921    -0.030    28.761     8.795
    12   6 C        2.974     0.018    27.594     8.617
    13   6 C        2.972    -0.006    28.167     8.705
    14   6 C        2.977     0.010    27.800     8.649
    15   6 C        2.920    -0.035    28.881     8.813
    16   6 C        2.914    -0.029    28.718     8.788
    17   6 C        2.914    -0.028    28.707     8.786
    18   6 C        2.920    -0.035    28.867     8.811
    19   6 C        2.978     0.004    27.932     8.669
    20   6 C        2.908     0.035    27.213     8.554
    21   7 N        2.799    -0.019    21.618     6.906
    22   6 C        3.074     0.048    26.855     8.497
    23   6 C        2.909    -0.044    29.081     8.843
    24   6 C        2.923    -0.032    28.790     8.799
    25   6 C        2.920    -0.037    28.909     8.817
    26   6 C        2.912    -0.032    28.788     8.798
    27   6 C        3.065    -0.014    28.294     8.722
    28   6 C        3.065    -0.014    28.293     8.722
    29   6 C        2.912    -0.032    28.788     8.798
    30   6 C        2.920    -0.037    28.908     8.817
    31   6 C        2.923    -0.032    28.791     8.799
    32   6 C        2.909    -0.044    29.082     8.843
    33   6 C        3.074     0.048    26.855     8.497
    34   6 C        2.977     0.004    27.931     8.669
    35   6 C        2.920    -0.035    28.874     8.812
    36   6 C        2.914    -0.028    28.709     8.786
    37   6 C        2.914    -0.029    28.723     8.788
    38   6 C        2.920    -0.035    28.882     8.813
    39   6 C        2.977     0.009    27.804     8.649
    40   6 C        2.922    -0.032    28.791     8.799
    41   6 C        2.918    -0.036    28.901     8.816
    42   7 N        1.894    -0.314    28.986     7.982
    43   6 C        3.198     0.063    26.061     8.321
    44   6 C        2.985    -0.003    28.092     8.694
    45   6 C        2.921    -0.032    28.796     8.800
    46   6 C        2.917    -0.031    28.767     8.795
    47   6 C        2.917    -0.032    28.806     8.801
    48   6 C        2.921    -0.035    28.880     8.813
    49   6 C        2.978    -0.003    28.101     8.695
    50   6 C        2.979     0.000    28.022     8.683
    51   6 C        2.922    -0.034    28.851     8.808
    52   6 C        2.916    -0.032    28.803     8.801
    53   6 C        2.916    -0.031    28.784     8.798
    54   6 C        2.919    -0.039    28.974     8.827
    55   6 C        2.977    -0.005    28.144     8.702
    56   6 C        3.071     0.025    27.375     8.579
    57   6 C        2.983     0.003    27.944     8.671
    58   6 C        2.917    -0.034    28.852     8.808
    59   6 C        2.916    -0.027    28.685     8.783
    60   6 C        2.916    -0.026    28.655     8.778
    61   6 C        2.918    -0.035    28.871     8.811
    62   6 C        2.989     0.017    27.632     8.623
    63   1 H        0.926     0.041     2.440     2.443
    64   1 H        0.926     0.041     2.440     2.443
    65   1 H        0.926     0.052     2.301     2.372
    66   1 H        0.926     0.047     2.358     2.401
    67   1 H        0.926     0.041     2.435     2.440
    68   1 H        0.926     0.037     2.486     2.466
    69   1 H        0.926     0.037     2.490     2.467
    70   1 H        0.926     0.035     2.516     2.480
    71   1 H        0.926     0.034     2.531     2.488
    72   1 H        0.926     0.037     2.492     2.469
    73   1 H        0.926     0.036     2.503     2.474
    74   1 H        0.926     0.038     2.469     2.457
    75   1 H        0.926     0.038     2.469     2.457
    76   1 H        0.926     0.036     2.502     2.474
    77   1 H        0.926     0.037     2.490     2.468
    78   1 H        0.926     0.034     2.526     2.485
    79   1 H        0.926     0.035     2.511     2.478
    80   1 H        0.926     0.037     2.495     2.470
    81   1 H        0.926     0.035     2.523     2.484
    82   1 H        0.926     0.036     2.500     2.473
    83   1 H        0.926     0.040     2.450     2.448
    84   1 H        0.926     0.028     2.609     2.526
    85   1 H        0.926     0.046     2.371     2.408
    86   1 H        0.926     0.036     2.508     2.477
    87   1 H        0.926     0.035     2.516     2.481
    88   1 H        0.926     0.037     2.486     2.466
    89   1 H        0.926     0.040     2.443     2.444
    90   1 H        0.926     0.036     2.509     2.477
    91   1 H        0.926     0.032     2.555     2.500
    92   1 H        0.926     0.026     2.637     2.540
    93   1 H        0.926     0.028     2.612     2.527
    94   1 H        0.926     0.041     2.433     2.439
    95   1 H        0.926     0.042     2.416     2.431
    96   1 H        0.926     0.035     2.518     2.481

molecular dipole:
                 x           y           z       tot (Debye)
 q only:        2.425      -1.770       0.788
   full:        1.999      -1.729       0.771       6.997

 projected vibrational frequencies (cm⁻¹)
eigval :       -0.00    -0.00    -0.00     0.00     0.00     0.00
eigval :        8.42    11.27    14.38    19.31    24.57    27.99
eigval :       34.00    36.97    40.32    52.23    55.62    70.02
eigval :       77.44    79.41    86.80    89.33   101.30   105.41
eigval :      119.04   124.10   127.35   129.46   143.01   148.00
eigval :      158.71   161.28   167.40   184.22   192.12   198.02
eigval :      201.83   216.45   239.93   246.11   246.39   259.94
eigval :      271.62   277.60   302.10   303.51   309.72   353.40
eigval :      355.69   368.48   376.28   382.83   389.87   392.97
eigval :      395.48   398.79   401.54   410.33   413.33   414.85
eigval :      419.84   420.62   429.98   431.35   435.61   439.48
eigval :      447.92   460.18   469.90   473.97   497.88   510.41
eigval :      514.34   518.36   525.22   530.29   533.87   536.78
eigval :      541.84   571.94   575.89   582.15   583.74   585.90
eigval :      586.84   593.17   597.02   601.43   607.26   611.82
eigval :      630.43   640.63   649.30   660.78   668.99   671.92
eigval :      672.41   675.49   678.47   680.67   696.66   699.91
eigval :      704.18   708.62   716.90   724.00   733.24   735.27
eigval :      752.19   754.29   762.84   763.27   768.36   771.84
eigval :      777.50   778.06   779.46   785.16   819.22   826.31
eigval :      847.66   849.27   852.81   858.83   867.14   867.63
eigval :      868.54   873.16   876.43   880.88   895.01   897.42
eigval :      898.31   900.93   901.21   902.84   904.01   905.33
eigval :      910.69   912.88   913.52   915.75   921.29   921.35
eigval :      923.00   923.52   925.89   926.83   928.23   934.64
eigval :      939.54   948.98   996.62  1010.65  1011.88  1026.33
eigval :     1037.75  1058.10  1066.52  1069.97  1083.93  1087.05
eigval :     1098.46  1101.59  1105.17  1106.18  1121.29  1132.52
eigval :     1137.95  1141.11  1144.02  1149.67  1165.54  1168.36
eigval :     1172.56  1176.96  1178.23  1178.49  1179.39  1180.84
eigval :     1182.37  1183.35  1186.90  1192.87  1206.43  1210.49
eigval :     1220.32  1226.88  1234.23  1236.19  1251.10  1254.88
eigval :     1257.37  1258.40  1265.43  1267.53  1280.05  1281.49
eigval :     1286.45  1293.93  1302.14  1303.85  1309.05  1314.93
eigval :     1324.39  1327.25  1334.03  1335.92  1342.11  1344.13
eigval :     1348.51  1350.99  1357.03  1372.37  1374.19  1380.84
eigval :     1382.63  1400.11  1402.40  1408.98  1411.71  1413.21
eigval :     1414.94  1417.55  1422.08  1427.12  1430.62  1437.59
eigval :     1448.89  1460.20  1461.14  1481.71  1492.42  1497.16
eigval :     1506.12  1507.22  1516.90  1520.21  1522.82  1531.76
eigval :     1534.69  1539.71  1546.80  1556.66  1560.30  1567.85
eigval :     1568.73  1581.99  1583.96  1587.39  1588.67  1599.35
eigval :     1601.53  2313.85  3072.13  3075.43  3077.17  3077.47
eigval :     3077.79  3078.50  3078.78  3078.88  3079.03  3082.46
eigval :     3082.69  3082.79  3083.06  3083.81  3085.49  3086.86
eigval :     3086.94  3087.29  3090.36  3091.62  3093.84  3096.43
eigval :     3096.76  3097.09  3097.25  3097.97  3099.08  3099.85
eigval :     3101.67  3103.23  3103.95  3106.53  3111.28  3114.40

   temp. (K)  partition function   enthalpy   heat capacity  entropy
                                   cal/mol     cal/K/mol   cal/K/mol   J/K/mol
 298.15  VIB  0.342E+22            27997.681    179.199    173.144
         ROT  0.175E+09              888.752      2.981     40.698
         INT  0.598E+30            28886.434    182.180    213.842
         TR   0.214E+29             1481.254      4.968     45.846
         TOT                       30367.6876   187.1479   259.6880  1086.5346

       T/K    H(0)-H(T)+PV         H(T)/Eh          T*S/Eh         G(T)/Eh
   ------------------------------------------------------------------------
    298.15    0.483940E-01    0.770167E+00    0.123386E+00    0.646781E+00
   ------------------------------------------------------------------------

         :::::::::::::::::::::::::::::::::::::::::::::::::::::
         ::                  THERMODYNAMIC                  ::
         :::::::::::::::::::::::::::::::::::::::::::::::::::::
         :: total free energy        -152.654006870010 Eh   ::
         ::.................................................::
         :: total energy             -153.300787891377 Eh   ::
         :: zero point energy           0.721773174692 Eh   ::
         :: G(RRHO) w/o ZPVE           -0.074992153325 Eh   ::
         :: G(RRHO) contrib.            0.646781021367 Eh   ::
         :::::::::::::::::::::::::::::::::::::::::::::::::::::

           -------------------------------------------------
          | TOTAL ENERGY             -153.300787891377 Eh   |
          | TOTAL ENTHALPY           -152.530620726043 Eh   |
          | TOTAL FREE ENERGY        -152.654006870010 Eh   |
          | GRADIENT NORM               0.000185983507 Eh/α |
          | HOMO-LUMO GAP               0.090560063774 eV   |
           -------------------------------------------------

 * finished run on 2025/09/13 at 01:15:07.191
