   * xtb version 6.7.1 (edcfbbe) compiled by 'albert@albert-system' on 2024-07-22

   ID    Z sym.   atoms
    1    7 N      1, 7, 21, 42
    2    6 C      2-6, 8-20, 22-41, 43-62
    3    1 H      63-96

          program call               : xtb data2507/toluene/CCAPI/CCAPI_toluene_T1_crest.xyz --gfn 2 --uhf 2 --gbsa toluene --ohess vtight --parallel 40 --molden --ceasefiles --namespace data2507/toluene/CCAPI/CCAPI_toluene_T1_finalOpt
      * Solvation model:               GBSA
        Solvent                        toluene
        Solvent mass                       9.2140E+01 g/mol
          :  Hamiltonian                  GFN2-xTB          :
 * total energy  :  -153.3004064 Eh     change       -0.1123365E-07 Eh
 * total energy  :  -153.3004787 Eh     change       -0.7233292E-04 Eh
 * total energy  :  -153.3005046 Eh     change       -0.2590978E-04 Eh
 * total energy  :  -153.3005274 Eh     change       -0.2274931E-04 Eh
 * total energy  :  -153.3005596 Eh     change       -0.3219537E-04 Eh
 * total energy  :  -153.3005881 Eh     change       -0.2850461E-04 Eh
 * total energy  :  -153.3006140 Eh     change       -0.2591279E-04 Eh
 * total energy  :  -153.3006444 Eh     change       -0.3038398E-04 Eh
 * total energy  :  -153.3006619 Eh     change       -0.1755445E-04 Eh
 * total energy  :  -153.3006737 Eh     change       -0.1180968E-04 Eh
 * total energy  :  -153.3013523 Eh     change       -0.1232677E-05 Eh
 * total energy  :  -153.3013535 Eh     change       -0.1208839E-05 Eh
 * total energy  :  -153.3013545 Eh     change       -0.1053820E-05 Eh
 * total energy  :  -153.3013553 Eh     change       -0.7298339E-06 Eh
 * total energy  :  -153.3013558 Eh     change       -0.5003313E-06 Eh
 * total energy  :  -153.3013561 Eh     change       -0.3469819E-06 Eh
 * total energy  :  -153.3013564 Eh     change       -0.2590032E-06 Eh
 * total energy  :  -153.3013564 Eh     change        0.1288072E-09 Eh
 * total energy  :  -153.3013565 Eh     change       -0.7811269E-07 Eh
   *** GEOMETRY OPTIMIZATION CONVERGED AFTER 95 ITERATIONS ***

 final structure:
================
96
 xtb: 6.7.1 (edcfbbe)
N           -2.40228603976734        6.57002678785734       -1.01108660754594
C           -2.73375606343664        5.48263965075946       -0.82781406982381
C           -3.15044021706515        4.15601530314101       -0.63044489841014
C           -3.87249502883161        3.51779281055126       -1.63063308837754
C           -4.27873590780325        2.19985082945058       -1.46768571548292
C           -3.97784155787807        1.50966142210802       -0.30673575308846
N           -4.35167160296966        0.15614693963940       -0.18850908512452
C           -3.47601728474582       -0.91230080499642       -0.14367678582061
C           -2.03560676337357       -0.82062898337079       -0.21146511891717
C           -1.28234853301118       -1.81723016927029        0.42438540953442
C            0.09061793731792       -1.77961625733300        0.41561249168167
C            0.78166325728888       -0.73810535663839       -0.22340954944347
C            2.23260418048425       -0.67022784142275       -0.20626679396053
C            3.00655137068033       -1.79531457371476       -0.62618797116398
C            2.40830048806045       -2.93534035734610       -1.18078316542477
C            3.16300150391906       -4.01364413821092       -1.61769139907948
C            4.54468360363547       -3.96052065770407       -1.55821473216888
C            5.17044409049320       -2.82440704422899       -1.07079821949050
C            4.43150291209551       -1.73451362142903       -0.58878546448642
C            5.06541733550724       -0.53149240829606       -0.16626344697365
N            6.45842120340350       -0.46499413898194       -0.14657617228839
C            7.24079529312797        0.39035348885353       -0.90066583040961
C            6.85285890313887        1.32194755950655       -1.85398643466934
C            7.84753920048712        2.02920434585143       -2.50316976019883
C            9.19469404310703        1.81230837703227       -2.22132525342744
C            9.58619475105507        0.87057950453360       -1.28679085972403
C            8.60560858890035        0.14983405033676       -0.62073144349614
C            8.64084404442767       -0.89652535726422        0.36783383620779
C            9.66632106468917       -1.53393859379824        1.05107330213766
C            9.33830006553676       -2.50649424389415        1.97847710930211
C            8.00912495461217       -2.83474143367272        2.23719255059020
C            6.97057144674867       -2.21268453282149        1.56989398484595
C            7.29629388516163       -1.25142577235786        0.62271101892667
C            4.30609007058387        0.60467494332201        0.23274625162565
C            4.92143279176070        1.76348884100623        0.72776756821093
C            4.17451592495038        2.83595051303833        1.18824131405682
C            2.79302269533741        2.75510206885042        1.20703011588169
C            2.16015249923242        1.60605243994348        0.75734399508403
C            2.88145780556309        0.52644997756659        0.22914927172128
C            0.02214499981079        0.23724988329157       -0.88596665506022
C           -1.35225977283496        0.19232392132033       -0.89206759039226
N           -4.10983725029740       -2.05834781466795       -0.01994753639512
C           -5.43045345967378       -1.75820586196730        0.00653127113555
C           -6.52835486387108       -2.65990387082662        0.09310021700042
C           -6.32716928378036       -4.04331360722864        0.15325252738183
C           -7.39945690529663       -4.89908658312276        0.21032021707480
C           -8.69128587898991       -4.37692075198852        0.20355234755539
C           -8.90061795300231       -3.01775211655858        0.14959735825661
C           -7.83112895506198       -2.11050154666356        0.09914248118801
C           -8.01873050112715       -0.66878974078249        0.07676630719920
C           -9.29507986007909       -0.09331386212101        0.14879611298669
C           -9.48234398068871        1.26928084946486        0.17302535465760
C           -8.38582254657990        2.12530722376365        0.14275382819409
C           -7.11855653643072        1.60247932943628        0.06267528858652
C           -6.90652360755093        0.21663419916966        0.00699563876751
C           -5.61602806114100       -0.37561483181303       -0.08262737513726
C           -3.26493515849173        2.13476911859247        0.75283304450777
C           -2.98022459679362        1.47878304048690        1.96704964016387
C           -2.28492274428212        2.11567334983988        2.96145597482249
C           -1.84474079498175        3.43201468327300        2.78582393028041
C           -2.11834580382167        4.10227335555479        1.62090367320206
C           -2.83584483304859        3.47807684955911        0.58421578183708
H           -4.10780894992394        4.04721706928766       -2.54197032233190
H           -4.82928337734799        1.70242489678257       -2.25310009951414
H           -1.80996381243039       -2.60646563984428        0.93741319011835
H            0.65115717135018       -2.53257758361856        0.94967246665492
H            1.33592990716913       -2.96793957945905       -1.29191423292470
H            2.66682142370857       -4.88470011332940       -2.01883354747395
H            5.14070977320104       -4.79054491665563       -1.90665649281200
H            6.24856195550062       -2.78007411432812       -1.07312376856209
H            5.81021094917087        1.49068245992515       -2.07650585339687
H            7.57411825477447        2.76393721934508       -3.24593898158809
H            9.94295521833235        2.38611972341276       -2.74769887548915
H           10.63119642032792        0.69401351246431       -1.08181493567147
H           10.69640297793743       -1.27066052632398        0.86439502891328
H           10.12250110794761       -3.01672557086170        2.51782581221403
H            7.78494901157241       -3.58968596322866        2.97612089228691
H            5.94177938100043       -2.46742107357079        1.77410831776064
H            5.99827612876462        1.82426853001927        0.76005511454323
H            4.67607027646689        3.72258216771528        1.54610103772046
H            2.20136296045399        3.57578998899987        1.58435073427541
H            1.08659424388693        1.53720671029089        0.83475789348153
H            0.53053512919751        1.01321044704666       -1.43965271434763
H           -1.89731787465484        0.93393111583445       -1.45464580892896
H           -5.31078666052704       -4.40650052375729        0.14698817687306
H           -7.24715120885944       -5.96732637905241        0.25560373561742
H           -9.53904133849820       -5.04573117917091        0.24147236859669
H           -9.91808564154882       -2.66098059956242        0.14481534055830
H          -10.16623995237168       -0.72620172300809        0.19549614552190
H          -10.48189668223316        1.67466612936014        0.22814674748486
H           -8.52799703948298        3.19507224278635        0.18554941380443
H           -6.27074089408606        2.26846407679824        0.05600479916753
H           -3.32071854415354        0.46395343202440        2.11222359534498
H           -2.07480306751887        1.60052443643296        3.88675357775166
H           -1.29280200654700        3.92089321074747        3.57451699585877
H           -1.79080041599839        5.12286735055791        1.48133962912551

          :  Hamiltonian                  GFN2-xTB          :
         :: gradient norm              0.000080604495 Eh/a0 ::
         :: HOMO-LUMO gap              0.088747116997 eV    ::
         :: SCC energy              -156.226012050093 Eh    ::
         :: -> dispersion             -0.150940477208 Eh    ::
         :: -> Gsolv                  -0.065442203695 Eh    ::
         :: repulsion energy           2.924655587562 Eh    ::

    * Orbital Energies and Occupations

         #    Occupation            Energy/Eh            Energy/eV
      -------------------------------------------------------------
         1        2.0000           -0.6939300             -18.8828
       ...           ...                  ...                  ...
       132        2.0000           -0.4105994             -11.1730
       133        2.0000           -0.4099520             -11.1554
       134        2.0000           -0.4092942             -11.1375
       135        2.0000           -0.4086034             -11.1187
       136        2.0000           -0.4036972             -10.9852
       137        2.0000           -0.3947371             -10.7413
       138        2.0000           -0.3870999             -10.5335
       139        2.0000           -0.3866764             -10.5220
       140        2.0000           -0.3835699             -10.4375
       141        2.0000           -0.3784492             -10.2981
       142        1.9994           -0.3704562             -10.0806
       143        1.0006           -0.3564436              -9.6993
       144        0.8476           -0.2969941              -8.0816 (HOMO)
       145        0.1524           -0.2937340              -7.9929 (LUMO)
       146                         -0.2652614              -7.2181
       147                         -0.2540746              -6.9137
       148                         -0.2525900              -6.8733
       149                         -0.2474838              -6.7344
       150                         -0.2470395              -6.7223
       151                         -0.2365965              -6.4381
       152                         -0.2319466              -6.3116
       153                         -0.2305553              -6.2737
       154                         -0.2304515              -6.2709
       155                         -0.2289696              -6.2306
       ...                                ...                  ...
       282                          1.1558859              31.4533
      -------------------------------------------------------------
                  HL-Gap            0.0032601 Eh            0.0887 eV

     #   Z          covCN         q      C6AA      α(0)
     1   7 N        0.911    -0.296    27.619     7.601
     2   6 C        1.913     0.116    28.246     8.583
     3   6 C        2.969    -0.004    28.122     8.699
     4   6 C        2.925    -0.026    28.651     8.778
     5   6 C        2.916    -0.042    29.046     8.838
     6   6 C        2.907     0.056    26.743     8.480
     7   7 N        2.837    -0.050    22.205     6.999
     8   6 C        3.184     0.136    24.629     8.099
     9   6 C        2.973    -0.003    28.088     8.693
    10   6 C        2.925    -0.029    28.729     8.790
    11   6 C        2.921    -0.031    28.763     8.795
    12   6 C        2.973     0.018    27.595     8.617
    13   6 C        2.972    -0.006    28.176     8.707
    14   6 C        2.977     0.010    27.796     8.648
    15   6 C        2.921    -0.036    28.894     8.815
    16   6 C        2.914    -0.029    28.723     8.788
    17   6 C        2.914    -0.028    28.711     8.787
    18   6 C        2.920    -0.036    28.890     8.814
    19   6 C        2.977     0.004    27.927     8.669
    20   6 C        2.908     0.034    27.235     8.557
    21   7 N        2.799    -0.018    21.595     6.902
    22   6 C        3.074     0.047    26.859     8.497
    23   6 C        2.909    -0.043    29.075     8.842
    24   6 C        2.923    -0.032    28.788     8.799
    25   6 C        2.920    -0.036    28.901     8.816
    26   6 C        2.912    -0.031    28.785     8.798
    27   6 C        3.065    -0.014    28.288     8.721
    28   6 C        3.065    -0.014    28.288     8.722
    29   6 C        2.912    -0.031    28.784     8.798
    30   6 C        2.920    -0.036    28.902     8.816
    31   6 C        2.923    -0.032    28.788     8.799
    32   6 C        2.909    -0.043    29.074     8.842
    33   6 C        3.075     0.048    26.857     8.497
    34   6 C        2.977     0.004    27.927     8.668
    35   6 C        2.920    -0.036    28.894     8.815
    36   6 C        2.914    -0.028    28.711     8.786
    37   6 C        2.914    -0.029    28.727     8.789
    38   6 C        2.921    -0.036    28.889     8.814
    39   6 C        2.977     0.009    27.804     8.649
    40   6 C        2.922    -0.032    28.788     8.799
    41   6 C        2.918    -0.036    28.905     8.816
    42   7 N        1.894    -0.314    28.993     7.983
    43   6 C        3.200     0.063    26.052     8.318
    44   6 C        2.985    -0.003    28.093     8.694
    45   6 C        2.921    -0.032    28.798     8.800
    46   6 C        2.917    -0.031    28.768     8.795
    47   6 C        2.917    -0.032    28.808     8.802
    48   6 C        2.921    -0.035    28.881     8.813
    49   6 C        2.978    -0.003    28.102     8.696
    50   6 C        2.979    -0.000    28.023     8.683
    51   6 C        2.922    -0.034    28.852     8.808
    52   6 C        2.916    -0.032    28.804     8.801
    53   6 C        2.916    -0.031    28.785     8.798
    54   6 C        2.919    -0.039    28.979     8.828
    55   6 C        2.977    -0.005    28.145     8.702
    56   6 C        3.070     0.025    27.377     8.579
    57   6 C        2.984     0.003    27.948     8.672
    58   6 C        2.917    -0.034    28.854     8.809
    59   6 C        2.916    -0.027    28.686     8.783
    60   6 C        2.916    -0.026    28.656     8.778
    61   6 C        2.918    -0.035    28.872     8.811
    62   6 C        2.989     0.017    27.632     8.623
    63   1 H        0.926     0.041     2.440     2.443
    64   1 H        0.926     0.041     2.436     2.441
    65   1 H        0.926     0.051     2.308     2.376
    66   1 H        0.926     0.048     2.351     2.398
    67   1 H        0.926     0.041     2.431     2.438
    68   1 H        0.926     0.037     2.487     2.466
    69   1 H        0.926     0.037     2.494     2.470
    70   1 H        0.926     0.035     2.517     2.481
    71   1 H        0.926     0.034     2.524     2.484
    72   1 H        0.926     0.037     2.491     2.468
    73   1 H        0.926     0.036     2.499     2.472
    74   1 H        0.926     0.039     2.464     2.455
    75   1 H        0.926     0.039     2.467     2.456
    76   1 H        0.926     0.036     2.497     2.471
    77   1 H        0.926     0.038     2.482     2.463
    78   1 H        0.926     0.035     2.511     2.478
    79   1 H        0.926     0.036     2.509     2.477
    80   1 H        0.926     0.036     2.498     2.472
    81   1 H        0.926     0.034     2.527     2.486
    82   1 H        0.926     0.036     2.504     2.475
    83   1 H        0.926     0.040     2.446     2.446
    84   1 H        0.926     0.028     2.609     2.526
    85   1 H        0.926     0.046     2.372     2.408
    86   1 H        0.926     0.035     2.510     2.477
    87   1 H        0.926     0.035     2.518     2.481
    88   1 H        0.926     0.037     2.488     2.467
    89   1 H        0.926     0.040     2.444     2.445
    90   1 H        0.926     0.035     2.510     2.478
    91   1 H        0.926     0.032     2.556     2.500
    92   1 H        0.926     0.027     2.635     2.538
    93   1 H        0.926     0.028     2.615     2.529
    94   1 H        0.926     0.041     2.434     2.440
    95   1 H        0.926     0.042     2.417     2.431
    96   1 H        0.926     0.035     2.517     2.481

molecular dipole:
                 x           y           z       tot (Debye)
 q only:        2.480      -1.848       0.478
   full:        2.049      -1.800       0.455       7.030

 projected vibrational frequencies (cm⁻¹)
eigval :       -0.00    -0.00    -0.00     0.00     0.00     0.00
eigval :        8.88    12.37    15.28    19.17    24.96    32.10
eigval :       34.26    38.74    43.41    51.33    57.33    70.86
eigval :       76.71    79.97    84.24    91.15   103.33   106.19
eigval :      118.88   121.54   125.36   127.73   143.62   145.31
eigval :      153.27   166.15   170.66   189.48   191.41   199.14
eigval :      204.27   221.40   235.99   245.70   248.28   262.60
eigval :      272.79   278.99   302.72   303.37   310.37   346.55
eigval :      363.83   370.85   378.38   384.85   386.39   391.32
eigval :      394.60   401.15   402.57   408.47   410.84   413.79
eigval :      419.91   424.74   431.89   433.85   438.73   440.20
eigval :      448.42   460.18   468.73   474.56   497.83   510.16
eigval :      514.58   519.70   525.72   532.36   537.09   539.85
eigval :      541.60   570.81   574.66   582.65   583.76   586.05
eigval :      587.20   590.50   595.73   602.30   610.81   615.54
eigval :      625.59   637.96   650.83   661.93   669.36   673.69
eigval :      674.34   674.73   677.37   682.24   697.86   700.44
eigval :      705.61   710.15   715.51   724.34   735.31   736.68
eigval :      750.66   754.27   758.97   764.67   768.88   769.76
eigval :      778.06   778.69   782.35   784.91   820.48   828.69
eigval :      845.05   848.37   849.09   860.59   867.97   870.11
eigval :      870.19   870.45   874.95   881.04   892.39   894.34
eigval :      898.13   901.02   901.84   904.06   904.79   906.90
eigval :      907.18   908.30   911.99   915.23   921.32   922.63
eigval :      923.38   923.90   926.07   928.01   929.43   935.99
eigval :      939.69   949.02   996.37  1010.50  1012.01  1026.57
eigval :     1037.80  1058.48  1066.16  1069.50  1083.77  1087.55
eigval :     1098.73  1103.86  1106.24  1107.52  1122.35  1133.03
eigval :     1138.51  1141.66  1143.84  1149.79  1166.74  1168.87
eigval :     1173.04  1177.63  1178.11  1178.79  1179.52  1180.66
eigval :     1183.58  1183.87  1187.10  1193.47  1207.10  1210.36
eigval :     1220.15  1226.53  1234.34  1238.47  1251.13  1255.17
eigval :     1258.96  1259.17  1265.25  1267.74  1280.36  1281.11
eigval :     1287.95  1294.11  1303.43  1305.00  1309.50  1316.30
eigval :     1324.87  1327.43  1333.82  1336.33  1342.47  1343.63
eigval :     1349.02  1349.05  1357.56  1372.84  1373.86  1381.33
eigval :     1382.79  1400.42  1402.41  1410.11  1411.39  1413.62
eigval :     1415.20  1417.23  1422.49  1427.42  1430.82  1437.93
eigval :     1448.93  1460.40  1461.25  1481.59  1493.30  1497.00
eigval :     1507.10  1509.65  1516.25  1520.20  1523.11  1532.42
eigval :     1536.62  1539.93  1547.09  1557.14  1560.78  1568.61
eigval :     1568.67  1582.38  1583.78  1587.31  1589.26  1599.82
eigval :     1601.79  2313.25  3072.06  3075.26  3076.49  3077.42
eigval :     3078.00  3078.37  3078.48  3078.79  3079.46  3081.92
eigval :     3082.14  3083.02  3083.12  3083.83  3085.33  3086.79
eigval :     3087.07  3087.43  3090.40  3091.28  3093.30  3096.38
eigval :     3096.58  3097.44  3097.50  3099.29  3099.89  3099.99
eigval :     3101.13  3103.31  3103.95  3105.74  3111.05  3115.00

   temp. (K)  partition function   enthalpy   heat capacity  entropy
                                   cal/mol     cal/K/mol   cal/K/mol   J/K/mol
 298.15  VIB  0.207E+22            27955.120    179.280    172.709
         ROT  0.174E+09              888.752      2.981     40.686
         INT  0.359E+30            28843.873    182.261    213.395
         TR   0.214E+29             1481.254      4.968     45.846
         TOT                       30325.1265   187.2294   259.2416  1084.6667

       T/K    H(0)-H(T)+PV         H(T)/Eh          T*S/Eh         G(T)/Eh
   ------------------------------------------------------------------------
    298.15    0.483262E-01    0.770294E+00    0.123174E+00    0.647120E+00
   ------------------------------------------------------------------------

         :::::::::::::::::::::::::::::::::::::::::::::::::::::
         ::                  THERMODYNAMIC                  ::
         :::::::::::::::::::::::::::::::::::::::::::::::::::::
         :: total free energy        -152.654236129596 Eh   ::
         ::.................................................::
         :: total energy             -153.301356460931 Eh   ::
         :: zero point energy           0.721968197814 Eh   ::
         :: G(RRHO) w/o ZPVE           -0.074847866479 Eh   ::
         :: G(RRHO) contrib.            0.647120331334 Eh   ::
         :::::::::::::::::::::::::::::::::::::::::::::::::::::

           -------------------------------------------------
          | TOTAL ENERGY             -153.301356460931 Eh   |
          | TOTAL ENTHALPY           -152.531062097961 Eh   |
          | TOTAL FREE ENERGY        -152.654236129596 Eh   |
          | GRADIENT NORM               0.000080498420 Eh/α |
          | HOMO-LUMO GAP               0.088711721957 eV   |
           -------------------------------------------------

 * finished run on 2025/09/13 at 01:24:27.287
