   * xtb version 6.7.1 (edcfbbe) compiled by 'albert@albert-system' on 2024-07-22

   ID    Z sym.   atoms
    1    7 N      1, 7, 21, 42
    2    6 C      2-6, 8-20, 22-41, 43-62
    3    1 H      63-96

          program call               : xtb data2507/toluene/CCAPI/CCAPI_toluene_S0_crest.xyz --gfn 2 --gbsa toluene --ohess vtight --parallel 40 --molden --ceasefiles --namespace data2507/toluene/CCAPI/CCAPI_toluene_S0_finalOpt
      * Solvation model:               GBSA
        Solvent                        toluene
        Solvent mass                       9.2140E+01 g/mol
          :  Hamiltonian                  GFN2-xTB          :
 * total energy  :  -153.3646598 Eh     change       -0.3074433E-08 Eh
 * total energy  :  -153.3647180 Eh     change       -0.5827735E-04 Eh
 * total energy  :  -153.3646767 Eh     change        0.4133614E-04 Eh
 * total energy  :  -153.3647826 Eh     change       -0.1058964E-03 Eh
 * total energy  :  -153.3648092 Eh     change       -0.2661236E-04 Eh
 * total energy  :  -153.3648409 Eh     change       -0.3170026E-04 Eh
 * total energy  :  -153.3648695 Eh     change       -0.2857538E-04 Eh
 * total energy  :  -153.3648954 Eh     change       -0.2590105E-04 Eh
 * total energy  :  -153.3649238 Eh     change       -0.2838144E-04 Eh
 * total energy  :  -153.3649592 Eh     change       -0.3541889E-04 Eh
 * total energy  :  -153.3654921 Eh     change       -0.3664204E-06 Eh
 * total energy  :  -153.3654925 Eh     change       -0.3577045E-06 Eh
 * total energy  :  -153.3654929 Eh     change       -0.3839006E-06 Eh
 * total energy  :  -153.3654932 Eh     change       -0.3502093E-06 Eh
 * total energy  :  -153.3654935 Eh     change       -0.2638626E-06 Eh
 * total energy  :  -153.3654938 Eh     change       -0.3154740E-06 Eh
 * total energy  :  -153.3654942 Eh     change       -0.4277130E-06 Eh
 * total energy  :  -153.3654948 Eh     change       -0.5342235E-06 Eh
 * total energy  :  -153.3654948 Eh     change       -0.4648911E-08 Eh
   *** GEOMETRY OPTIMIZATION CONVERGED AFTER 94 ITERATIONS ***

 final structure:
================
96
 xtb: 6.7.1 (edcfbbe)
N           -2.37265314888005        6.23216528168095       -2.26987758125576
C           -2.70258770869115        5.20442891957663       -1.87775923530194
C           -3.12206548709951        3.93671224238271       -1.42114763647940
C           -3.86220466431160        3.13092756256902       -2.26435648560658
C           -4.27692730317848        1.86864885772771       -1.84183050144260
C           -3.96559497484182        1.41659600675612       -0.57728078402384
N           -4.35062989220788        0.11957231364491       -0.19170354684152
C           -3.48562834531586       -0.93365720224458        0.03192123396537
C           -2.03541204797612       -0.84406613219945       -0.03753487914144
C           -1.28586832619641       -1.59519126518672        0.86934304479623
C            0.09201334202612       -1.54133558890301        0.85606939750342
C            0.76231387611686       -0.74169686497290       -0.06804092250884
C            2.23794032782251       -0.67656479935187       -0.07513761716059
C            2.98472733952920       -1.82321070033640       -0.38861852927221
C            2.36544406347354       -3.04684064369306       -0.75808110537447
C            3.10251206344441       -4.16039202684828       -1.02292870054029
C            4.50829349319315       -4.12380942655098       -0.92918716597317
C            5.14450367006613       -2.96352497680111       -0.61066898472138
C            4.41352267463001       -1.77375091762400       -0.35548646402508
C            5.05080266586294       -0.55921619642370       -0.06383207934582
N            6.45950989471455       -0.50120926758188       -0.04760307554224
C            7.28575881066783       -0.62283041949762       -1.14352183700727
C            6.95077450486433       -0.80196878411344       -2.47822096585349
C            7.98232556159132       -0.88445317859677       -3.39321258462828
C            9.31551009499480       -0.78754062028580       -2.99624203016798
C            9.65274217317298       -0.59726645100122       -1.67073750015499
C            8.63393303897773       -0.51106594903835       -0.72970338037735
C            8.60668800081254       -0.31535684915030        0.69339718526572
C            9.58929133258915       -0.14987173281413        1.66196728234735
C            9.20176364925206        0.00994779857264        2.97771699586135
C            7.85475318282821        0.00053313693384        3.33785867135022
C            6.85854389458641       -0.16315217027771        2.39508419607273
C            7.24322116223232       -0.31304942143561        1.07018336862837
C            4.31197280552519        0.59960810571587        0.21422610051484
C            4.93979151193168        1.84742812020772        0.46700170681223
C            4.20697479732378        2.95384738564334        0.76896118344364
C            2.80208923428734        2.87482122558407        0.84925447839096
C            2.16263523380950        1.70162165632546        0.58874421439754
C            2.88398631527886        0.53041645294512        0.23540647427589
C            0.01398296861654       -0.01315694350634       -0.98881268893506
C           -1.36610358651660       -0.06439619949625       -0.97881783358169
N           -4.12366174335406       -2.03594552401530        0.33250498801041
C           -5.44800272788567       -1.72648375166924        0.30602570477014
C           -6.55337309361703       -2.59512651779257        0.52816245739000
C           -6.36589011656431       -3.95485997551593        0.80029789885756
C           -7.44655106139965       -4.78205766357170        0.98014117189482
C           -8.73383878560241       -4.25600029964589        0.88566203327502
C           -8.92991353440604       -2.92008079858184        0.62273234447135
C           -7.85116973256700       -2.04006040374709        0.44183953101864
C           -8.02582400174777       -0.61817166259358        0.19693779733002
C           -9.29639053025242       -0.02412496588970        0.18372665540174
C           -9.46880910612487        1.32706975967075       -0.00429806242312
C           -8.36364640203118        2.15630636428291       -0.16994986473545
C           -7.10231457054914        1.61346355006849       -0.17077205784419
C           -6.90618507230711        0.23391787302437       -0.01207140800658
C           -5.62226279219504       -0.38047825356643       -0.00710770943768
C           -3.22911881930924        2.22738559702224        0.32838125614421
C           -2.93436513511284        1.81701874832131        1.64556629426514
C           -2.21957702551527        2.62629317012671        2.48438522722687
C           -1.76781280975730        3.88038392528252        2.04736135509037
C           -2.04964341826719        4.31392122795727        0.78085353286117
C           -2.79051148062650        3.50634407982871       -0.10523672240819
H           -4.11201850517796        3.47355950808800       -3.25733002115776
H           -4.84604665757674        1.23750151023006       -2.50853952198677
H           -1.80674038140996       -2.21464877285768        1.58322979082562
H            0.66175257907349       -2.11510060425996        1.57230185668703
H            1.28898867114608       -3.07894075803335       -0.83167805056296
H            2.61487766827908       -5.08247797546708       -1.30338752082550
H            5.07696944628339       -5.02201419774461       -1.11964612282173
H            6.22206555256751       -2.93680667103978       -0.54856604405702
H            5.91850762387508       -0.87765876390347       -2.78673031806057
H            7.75193610041803       -1.02698656917692       -4.43912436549737
H           10.09387251491991       -0.85912780748917       -3.74198479180947
H           10.68622637084522       -0.51610526709774       -1.36786857514660
H           10.63388731923617       -0.14814687197594        1.38766244667206
H            9.95128068897789        0.14129358812504        3.74459444545763
H            7.58528614649654        0.12264926065386        4.37698270238672
H            5.81546766328623       -0.17096759022964        2.67496632736592
H            6.01641839206435        1.90853328293812        0.41286593085774
H            4.69737777530438        3.89794470293530        0.95515976514393
H            2.23715636108081        3.75655359600900        1.11340677331967
H            1.08671181940493        1.64434676755571        0.64923946460226
H            0.52209091142776        0.58910987496978       -1.72809499484142
H           -1.91834959490135        0.48681687788209       -1.72442232281842
H           -5.35323399651958       -4.32445288316157        0.85564807597910
H           -7.30503781384357       -5.83227627813356        1.18883002382106
H           -9.58782817218023       -4.90428906309663        1.01966554640779
H           -9.94377160255561       -2.55936471283070        0.55490080651713
H          -10.17359147600554       -0.63220919877506        0.33338026451507
H          -10.46365799809307        1.74751958087310       -0.00901892034204
H           -8.49525087908353        3.22123113239563       -0.29267328932641
H           -6.24733123530779        2.26160212439587       -0.27933503248937
H           -3.28570651881991        0.85552405935441        1.98913075912814
H           -2.00051609079279        2.30243993669511        3.49044477773970
H           -1.19995157108902        4.50488034788274        2.72022551015835
H           -1.71379012670978        5.28260645659051        0.43966775398556

          :  Hamiltonian                  GFN2-xTB          :
         :: gradient norm              0.000057152554 Eh/a0 ::
         :: HOMO-LUMO gap              1.519338641092 eV    ::
         :: SCC energy              -156.309304534350 Eh    ::
         :: -> dispersion             -0.150932320103 Eh    ::
         :: -> Gsolv                  -0.064492797465 Eh    ::
         :: repulsion energy           2.943809765660 Eh    ::

    * Orbital Energies and Occupations

         #    Occupation            Energy/Eh            Energy/eV
      -------------------------------------------------------------
         1        2.0000           -0.6972764             -18.9739
       ...           ...                  ...                  ...
       131        2.0000           -0.4134493             -11.2505
       132        2.0000           -0.4113578             -11.1936
       133        2.0000           -0.4108023             -11.1785
       134        2.0000           -0.4064862             -11.0611
       135        2.0000           -0.4060720             -11.0498
       136        2.0000           -0.4034348             -10.9780
       137        2.0000           -0.4014737             -10.9247
       138        2.0000           -0.3877711             -10.5518
       139        2.0000           -0.3866780             -10.5220
       140        2.0000           -0.3777009             -10.2778
       141        2.0000           -0.3728462             -10.1457
       142        2.0000           -0.3693702             -10.0511
       143        2.0000           -0.3594941              -9.7823 (HOMO)
       144                         -0.3036594              -8.2630 (LUMO)
       145                         -0.2885220              -7.8511
       146                         -0.2651489              -7.2151
       147                         -0.2579482              -7.0191
       148                         -0.2546253              -6.9287
       149                         -0.2473180              -6.7299
       150                         -0.2440715              -6.6415
       151                         -0.2401252              -6.5341
       152                         -0.2385247              -6.4906
       153                         -0.2344289              -6.3791
       154                         -0.2262859              -6.1576
       ...                                ...                  ...
       282                          1.1504618              31.3057
      -------------------------------------------------------------
                  HL-Gap            0.0558347 Eh            1.5193 eV

     #   Z          covCN         q      C6AA      α(0)
     1   7 N        0.911    -0.266    26.885     7.499
     2   6 C        1.913     0.121    28.119     8.564
     3   6 C        2.970     0.009    27.820     8.652
     4   6 C        2.926    -0.018    28.459     8.749
     5   6 C        2.917    -0.038    28.941     8.822
     6   6 C        2.908     0.069    26.455     8.434
     7   7 N        2.840    -0.050    22.207     6.999
     8   6 C        3.184     0.135    24.646     8.102
     9   6 C        2.974    -0.003    28.100     8.695
    10   6 C        2.926    -0.028    28.704     8.786
    11   6 C        2.922    -0.030    28.739     8.791
    12   6 C        2.976     0.020    27.567     8.612
    13   6 C        2.975    -0.005    28.141     8.702
    14   6 C        2.983     0.007    27.846     8.656
    15   6 C        2.917    -0.034    28.844     8.807
    16   6 C        2.914    -0.028    28.709     8.786
    17   6 C        2.914    -0.028    28.696     8.784
    18   6 C        2.917    -0.032    28.793     8.799
    19   6 C        2.982     0.001    27.997     8.679
    20   6 C        2.911     0.045    26.983     8.518
    21   7 N        2.802    -0.047    22.145     6.989
    22   6 C        3.080     0.049    26.813     8.489
    23   6 C        2.909    -0.051    29.254     8.869
    24   6 C        2.924    -0.035    28.868     8.811
    25   6 C        2.919    -0.043    29.076     8.843
    26   6 C        2.912    -0.035    28.880     8.812
    27   6 C        3.067    -0.020    28.444     8.745
    28   6 C        3.067    -0.020    28.443     8.745
    29   6 C        2.912    -0.035    28.879     8.812
    30   6 C        2.920    -0.043    29.076     8.843
    31   6 C        2.924    -0.035    28.868     8.811
    32   6 C        2.909    -0.051    29.254     8.869
    33   6 C        3.081     0.049    26.812     8.489
    34   6 C        2.983     0.001    28.001     8.680
    35   6 C        2.917    -0.032    28.788     8.798
    36   6 C        2.914    -0.028    28.701     8.785
    37   6 C        2.914    -0.029    28.718     8.788
    38   6 C        2.917    -0.034    28.844     8.807
    39   6 C        2.983     0.007    27.856     8.658
    40   6 C        2.923    -0.032    28.786     8.798
    41   6 C        2.921    -0.036    28.899     8.816
    42   7 N        1.895    -0.309    28.857     7.964
    43   6 C        3.202     0.060    26.105     8.324
    44   6 C        2.985    -0.002    28.074     8.691
    45   6 C        2.921    -0.033    28.818     8.803
    46   6 C        2.917    -0.031    28.768     8.795
    47   6 C        2.917    -0.033    28.822     8.804
    48   6 C        2.921    -0.036    28.890     8.814
    49   6 C        2.979    -0.004    28.109     8.697
    50   6 C        2.979     0.000    28.020     8.683
    51   6 C        2.922    -0.034    28.850     8.808
    52   6 C        2.916    -0.033    28.816     8.803
    53   6 C        2.917    -0.032    28.788     8.798
    54   6 C        2.919    -0.040    29.005     8.832
    55   6 C        2.978    -0.005    28.139     8.701
    56   6 C        3.070     0.021    27.474     8.595
    57   6 C        2.985     0.005    27.897     8.664
    58   6 C        2.917    -0.028    28.696     8.784
    59   6 C        2.916    -0.022    28.562     8.764
    60   6 C        2.916    -0.020    28.510     8.756
    61   6 C        2.917    -0.029    28.731     8.790
    62   6 C        2.990     0.021    27.536     8.608
    63   1 H        0.926     0.054     2.274     2.358
    64   1 H        0.926     0.052     2.297     2.370
    65   1 H        0.926     0.049     2.332     2.388
    66   1 H        0.926     0.045     2.385     2.415
    67   1 H        0.926     0.038     2.472     2.459
    68   1 H        0.926     0.036     2.496     2.471
    69   1 H        0.926     0.036     2.509     2.477
    70   1 H        0.926     0.034     2.529     2.487
    71   1 H        0.926     0.024     2.668     2.554
    72   1 H        0.926     0.028     2.608     2.525
    73   1 H        0.926     0.027     2.633     2.537
    74   1 H        0.926     0.029     2.598     2.521
    75   1 H        0.926     0.029     2.600     2.521
    76   1 H        0.926     0.027     2.631     2.537
    77   1 H        0.926     0.029     2.603     2.523
    78   1 H        0.926     0.025     2.661     2.551
    79   1 H        0.926     0.034     2.527     2.486
    80   1 H        0.926     0.036     2.507     2.476
    81   1 H        0.926     0.035     2.510     2.477
    82   1 H        0.926     0.034     2.529     2.487
    83   1 H        0.926     0.039     2.459     2.452
    84   1 H        0.926     0.028     2.613     2.528
    85   1 H        0.926     0.045     2.381     2.413
    86   1 H        0.926     0.034     2.524     2.485
    87   1 H        0.926     0.034     2.533     2.489
    88   1 H        0.926     0.036     2.497     2.471
    89   1 H        0.926     0.040     2.455     2.450
    90   1 H        0.926     0.035     2.520     2.483
    91   1 H        0.926     0.032     2.552     2.498
    92   1 H        0.926     0.025     2.659     2.550
    93   1 H        0.926     0.038     2.480     2.463
    94   1 H        0.926     0.050     2.314     2.379
    95   1 H        0.926     0.052     2.294     2.368
    96   1 H        0.926     0.045     2.386     2.416

molecular dipole:
                 x           y           z       tot (Debye)
 q only:       -0.586      -0.392       0.703
   full:       -0.937      -0.407       0.678       3.115

 projected vibrational frequencies (cm⁻¹)
eigval :       -0.00    -0.00     0.00     0.00     0.00     0.00
eigval :        7.67    10.64    13.66    19.86    21.44    27.89
eigval :       30.54    32.40    39.41    50.55    58.03    67.61
eigval :       75.70    79.81    86.29    88.73    98.93   104.45
eigval :      120.49   122.28   124.50   127.45   142.06   144.89
eigval :      155.77   159.13   161.02   179.24   189.81   198.14
eigval :      204.80   213.20   233.82   245.64   246.32   256.63
eigval :      269.87   276.93   302.68   304.69   309.92   351.39
eigval :      369.32   372.45   375.41   384.34   394.13   394.59
eigval :      400.65   401.80   407.82   411.77   415.26   420.39
eigval :      421.25   427.29   428.79   434.53   439.90   447.72
eigval :      450.67   459.89   460.02   477.43   503.77   510.95
eigval :      517.58   521.02   530.29   534.15   536.83   541.82
eigval :      542.42   576.87   583.40   584.43   585.86   587.86
eigval :      589.32   598.92   604.03   608.12   615.12   617.77
eigval :      640.43   642.67   650.21   660.75   670.83   673.30
eigval :      676.45   679.80   682.36   693.94   699.74   704.54
eigval :      705.25   707.54   729.80   734.06   736.94   738.45
eigval :      755.05   764.58   767.56   770.95   772.14   773.72
eigval :      778.31   778.74   781.65   786.44   818.25   839.51
eigval :      852.73   862.00   867.46   870.78   871.76   872.81
eigval :      873.15   875.00   876.85   887.54   900.44   900.68
eigval :      901.38   902.12   907.21   909.89   913.76   915.10
eigval :      916.54   917.50   920.87   921.40   921.66   923.98
eigval :      926.04   926.35   926.98   928.76   929.83   932.87
eigval :      934.72   941.95  1000.57  1011.07  1015.35  1024.69
eigval :     1041.75  1056.88  1066.36  1069.57  1081.98  1082.51
eigval :     1082.85  1084.82  1098.89  1106.70  1134.01  1137.33
eigval :     1140.47  1143.14  1148.14  1150.62  1169.18  1171.64
eigval :     1174.04  1176.94  1178.75  1179.09  1180.27  1180.57
eigval :     1183.56  1185.37  1191.51  1195.13  1209.50  1216.83
eigval :     1227.39  1228.58  1232.75  1236.94  1252.98  1253.49
eigval :     1255.21  1256.90  1262.64  1270.45  1281.37  1286.24
eigval :     1294.81  1304.03  1305.23  1311.73  1312.92  1325.66
eigval :     1336.70  1340.98  1345.65  1348.10  1350.17  1356.21
eigval :     1361.03  1378.05  1381.56  1384.57  1385.11  1397.12
eigval :     1405.43  1406.26  1414.64  1417.51  1426.75  1427.94
eigval :     1428.17  1430.31  1433.35  1445.26  1449.23  1468.73
eigval :     1473.47  1483.33  1487.22  1499.43  1511.86  1513.50
eigval :     1524.52  1531.31  1538.22  1540.53  1551.21  1556.07
eigval :     1560.64  1564.34  1568.48  1571.13  1587.67  1592.68
eigval :     1594.11  1597.05  1603.11  1603.27  1606.36  1613.10
eigval :     1620.60  2354.58  3069.45  3069.77  3071.72  3074.43
eigval :     3074.70  3075.04  3075.71  3075.84  3079.05  3081.40
eigval :     3081.58  3082.17  3082.19  3082.26  3082.84  3083.10
eigval :     3085.54  3085.69  3087.90  3088.96  3091.36  3092.82
eigval :     3093.19  3093.55  3096.15  3096.99  3098.30  3098.50
eigval :     3099.60  3100.40  3100.64  3101.80  3110.87  3112.75

   temp. (K)  partition function   enthalpy   heat capacity  entropy
                                   cal/mol     cal/K/mol   cal/K/mol   J/K/mol
 298.15  VIB  0.650E+22            27930.503    177.995    173.329
         ROT  0.173E+09              888.752      2.981     40.678
         INT  0.113E+31            28819.255    180.975    214.007
         TR   0.214E+29             1481.254      4.968     45.846
         TOT                       30300.5092   185.9436   259.8536  1087.2275

       T/K    H(0)-H(T)+PV         H(T)/Eh          T*S/Eh         G(T)/Eh
   ------------------------------------------------------------------------
    298.15    0.482869E-01    0.772964E+00    0.123465E+00    0.649500E+00
   ------------------------------------------------------------------------

         :::::::::::::::::::::::::::::::::::::::::::::::::::::
         ::                  THERMODYNAMIC                  ::
         :::::::::::::::::::::::::::::::::::::::::::::::::::::
         :: total free energy        -152.715995249601 Eh   ::
         ::.................................................::
         :: total energy             -153.365494766265 Eh   ::
         :: zero point energy           0.724677415747 Eh   ::
         :: G(RRHO) w/o ZPVE           -0.075177899082 Eh   ::
         :: G(RRHO) contrib.            0.649499516665 Eh   ::
         :::::::::::::::::::::::::::::::::::::::::::::::::::::

           -------------------------------------------------
          | TOTAL ENERGY             -153.365494766265 Eh   |
          | TOTAL ENTHALPY           -152.592530415462 Eh   |
          | TOTAL FREE ENERGY        -152.715995249601 Eh   |
          | GRADIENT NORM               0.000057134815 Eh/α |
          | HOMO-LUMO GAP               1.519338989333 eV   |
           -------------------------------------------------

 * finished run on 2025/09/13 at 01:14:51.356
