   * xtb version 6.7.1 (edcfbbe) compiled by 'albert@albert-system' on 2024-07-22

   ID    Z sym.   atoms
    1    6 C      1-4, 6-37, 39-68
    2    7 N      5, 38
    3    1 H      69-112

          program call               : xtb data2507/gas/m-TPA-AP-TPA/m-TPA-AP-TPA_gas_T1_crest.xyz --gfn 2 --spinpol --tblite --uhf 2 --ohess vtight --parallel 40 --molden --ceasefiles --namespace data2507/gas/m-TPA-AP-TPA/m-TPA-AP-TPA_gas_T1_finalOpt
 * total energy  :  -169.6070028 Eh     change       -0.5160248E-07 Eh
 * total energy  :  -169.6070942 Eh     change       -0.9141985E-04 Eh
 * total energy  :  -169.6071775 Eh     change       -0.8321095E-04 Eh
 * total energy  :  -169.6071859 Eh     change       -0.8433541E-05 Eh
 * total energy  :  -169.6071930 Eh     change       -0.7131280E-05 Eh
 * total energy  :  -169.6071959 Eh     change       -0.2877541E-05 Eh
 * total energy  :  -169.6071991 Eh     change       -0.3252190E-05 Eh
 * total energy  :  -169.6072030 Eh     change       -0.3853173E-05 Eh
 * total energy  :  -169.6072066 Eh     change       -0.3591706E-05 Eh
 * total energy  :  -169.6072093 Eh     change       -0.2672908E-05 Eh
 * total energy  :  -169.6072506 Eh     change       -0.2896331E-06 Eh
 * total energy  :  -169.6072508 Eh     change       -0.1956776E-06 Eh
 * total energy  :  -169.6072511 Eh     change       -0.3952489E-06 Eh
 * total energy  :  -169.6072515 Eh     change       -0.3718027E-06 Eh
 * total energy  :  -169.6072518 Eh     change       -0.3097983E-06 Eh
 * total energy  :  -169.6072521 Eh     change       -0.2640941E-06 Eh
 * total energy  :  -169.6072518 Eh     change        0.3355995E-06 Eh
 * total energy  :  -169.6072519 Eh     change       -0.1539811E-06 Eh
 * total energy  :  -169.6072519 Eh     change       -0.1892926E-07 Eh
   *** GEOMETRY OPTIMIZATION CONVERGED AFTER 57 ITERATIONS ***

 final structure:
================
112
 xtb: 6.7.1 (edcfbbe)
C           -7.71795277219331       -4.44918109559363       -0.04663591823056
C           -7.62837412499441       -3.56053617277522        1.01218810101999
C           -8.03703980142923       -2.25041286701120        0.86011994551580
C           -8.53027342097729       -1.80468568754594       -0.36573911298346
N           -8.92510809885289       -0.47049314424625       -0.52198174020054
C          -10.05447054460043       -0.15050040226008       -1.27916741699493
C          -10.09013081836021        1.01950260035410       -2.03825750245187
C          -11.21275747099152        1.33563693536379       -2.77783822945556
C          -12.31164419306218        0.49225483163076       -2.78245884951744
C          -12.27957024605562       -0.67354680560462       -2.03474009743192
C          -11.16528705955736       -0.99460047720549       -1.28480871153485
C           -8.17017190460058        0.54179295200363        0.08256370156162
C           -8.79785764520666        1.64334657004887        0.66560564281459
C           -8.03734871103268        2.62996486270022        1.26532846442762
C           -6.65856557889298        2.53781248822970        1.29535296622279
C           -6.01277632218725        1.44112809023377        0.71777559651573
C           -4.55106176596721        1.33796320200262        0.74501550470589
C           -3.76141130019409        2.36535839042334        0.15225294015592
C           -4.35125540654199        3.42053126321825       -0.55775701772270
C           -3.58558242355599        4.39441782909223       -1.17938307937018
C           -2.20662427729506        4.30676321119248       -1.14972082462710
C           -1.59556277557643        3.25073890782557       -0.48809314682454
C           -2.33939195153646        2.28752585638052        0.20175607074031
C           -1.70239419441496        1.17503938068536        0.84363880062517
C           -0.26119853884395        1.14535888408580        0.95000576381039
C            0.39328801797122        2.23544767354940        1.54993348128213
C            1.73944318730624        2.21858340474519        1.79813523376550
C            2.53395588593331        1.12419664613960        1.40956026299033
C            3.91636027229743        1.06039729136547        1.69159624529342
C            4.67492432834840        0.00729207552399        1.28092729219969
C            4.11645213263926       -1.05308385086224        0.52001650554618
C            4.88985442126502       -2.13272115473889        0.03834549559062
C            6.35063829231553       -2.17622897793713        0.19266479819392
C            6.97308735134843       -3.32094112098479        0.68985117159855
C            8.35043829760086       -3.37084528374624        0.80399049031490
C            9.12908276024265       -2.29102289801369        0.43253227849072
C            8.52292314713674       -1.14258114295018       -0.07558851618956
N            9.28881999269531       -0.03053805270285       -0.44812218028077
C           10.51155345875531       -0.19674787142701       -1.10071352362163
C           11.56219645927941        0.69281336414947       -0.87312568570891
C           12.76952427632432        0.52511016300825       -1.52215149647888
C           12.95563809006146       -0.53127046686357       -2.39880626087094
C           11.91723454383696       -1.41971105721848       -2.62556314895961
C           10.70296119187924       -1.25595620526075       -1.98855186153706
C            8.80442829215346        1.25098033542258       -0.15809801609662
C            8.94745868823378        2.29255242176539       -1.07358648672571
C            8.45128438384161        3.54782975586929       -0.77968833005858
C            7.80074066972822        3.78339242162922        0.42053731585719
C            7.65985813849457        2.75282193893028        1.33530310423940
C            8.16213103537448        1.49754024209165        1.05503178341453
C            7.13725875746613       -1.09998778648039       -0.20151953716301
C            4.26059864492157       -3.18436677633650       -0.62474101863338
C            2.90585515384532       -3.17525086211932       -0.86702535671122
C            2.11165034581918       -2.10168136318672       -0.44151730617171
C            0.72330340281812       -2.03729663216978       -0.71711420201531
C           -0.03753962701418       -1.00044900237407       -0.27492158389815
C            0.52383460656651        0.05020318314600        0.49303488554685
C            1.92212866936943        0.04406144764300        0.72566266445135
C            2.71826053455332       -1.03801350788916        0.27067083969486
C           -2.50375944593292        0.14170824617754        1.43530451343613
C           -1.92798365728393       -0.89136311255960        2.18239726739996
C           -2.69975899541389       -1.86607854233727        2.79595179605912
C           -4.07870892622360       -1.80332202338408        2.71581559119871
C           -4.67980715477307       -0.75721362835842        2.03640868306016
C           -3.92547061263017        0.22396402966613        1.37799337548460
C           -6.78184975352998        0.45200661663080        0.11168970811955
C           -8.61980569291596       -2.70330286938716       -1.42787494039554
C           -8.22008246922439       -4.01524047410937       -1.26268293923591
H           -7.40092942079651       -5.47370456981502        0.07565015793644
H           -7.24737243760149       -3.89281113984912        1.96659104694587
H           -7.98817086613777       -1.56279599197834        1.69195281112515
H           -9.23040901621403        1.67347817217802       -2.04687282129958
H          -11.22566583395652        2.24381924448197       -3.36252922946906
H          -13.18597612767061        0.74128550434235       -3.36433506441785
H          -13.13350349118267       -1.33500929103016       -2.02769007720537
H          -11.14829377758649       -1.89865031940422       -0.69378136642850
H           -9.87527127393154        1.71317723314330        0.65098293110619
H           -8.52881512588014        3.47545780611942        1.72415350659718
H           -6.07179035945878        3.29955712945606        1.78669129909377
H           -5.42655924890171        3.46665090703174       -0.63645549846533
H           -4.07134071198425        5.20364721284186       -1.70432464191543
H           -1.59992251666642        5.04367786053883       -1.65465690466903
H           -0.52019572272083        3.16591389141494       -0.52197228607857
H           -0.20535782106675        3.06810916521705        1.89170244340300
H            2.20603318765558        3.04241701047959        2.31918859775673
H            4.36504212456158        1.86901678981519        2.25112251497258
H            5.72097527115089       -0.03245151807788        1.53956507978152
H            6.37132423422275       -4.16052275497701        1.00422341316777
H            8.82470227902361       -4.25716227179596        1.19954982056364
H           10.20342120110307       -2.32696055606769        0.53558066417774
H           11.42503982725640        1.51091922701658       -0.18115691262243
H           13.57470974326666        1.22033532430194       -1.33451354166245
H           13.90211529276773       -0.66094855830228       -2.90125169369414
H           12.05046377794645       -2.24325982435046       -3.31178376042304
H            9.89182153956448       -1.94386552922510       -2.17743295582714
H            9.44424302773112        2.10730140083347       -2.01478816896251
H            8.56488005803263        4.34615831393025       -1.49839430607260
H            7.40897556310728        4.76446588802486        0.64234563327472
H            7.16551940597483        2.93023626722205        2.27918100016144
H            8.07094669636057        0.69825867975010        1.77645308102347
H            6.67197700533315       -0.22450245661325       -0.63134915080088
H            4.86359349409490       -4.00660535630650       -0.98362053320112
H            2.44276807109885       -3.99166813910809       -1.40230349400213
H            0.27737670997887       -2.83381860580013       -1.29569105820229
H           -1.09158133742278       -0.96446676591188       -0.50711350906512
H           -0.85534009524559       -0.93212649196025        2.29122079790179
H           -2.21777796798855       -2.66047424668955        3.34599812830204
H           -4.69035636522026       -2.55135383230206        3.19786139958056
H           -5.75534182373519       -0.68574166953815        2.02813204667188
H           -6.29377131967546       -0.38819841059293       -0.36134930615316
H           -9.00017025222981       -2.36341169087357       -2.38012815648020
H           -8.29242051218690       -4.70172886960897       -2.09350829082764

 projected vibrational frequencies (cm⁻¹)
eigval :       -0.00    -0.00    -0.00    -0.00     0.00     0.00
eigval :        5.46     7.08     7.92    11.62    15.95    20.18
eigval :       23.12    28.59    39.05    41.36    44.28    54.12
eigval :       58.31    61.27    64.57    68.60    70.24    74.99
eigval :       78.66    82.87    86.71    93.72   105.53   111.59
eigval :      125.09   133.05   138.76   159.06   180.04   202.47
eigval :      203.03   212.00   214.97   219.70   225.30   226.09
eigval :      227.45   238.42   242.56   251.05   262.51   266.01
eigval :      279.34   291.01   293.39   316.33   325.87   326.74
eigval :      331.89   354.82   360.17   370.12   377.39   377.98
eigval :      378.68   379.89   384.26   384.81   391.74   394.83
eigval :      399.25   407.84   420.12   425.21   429.42   436.64
eigval :      452.62   464.21   471.12   473.26   474.53   476.70
eigval :      488.98   490.54   498.03   502.67   506.46   524.40
eigval :      529.30   553.96   560.61   576.65   579.36   580.67
eigval :      582.76   587.61   589.03   590.60   592.33   599.61
eigval :      600.79   607.82   617.82   626.72   641.17   643.44
eigval :      645.27   655.56   660.03   660.76   663.02   665.42
eigval :      671.78   672.06   674.41   676.49   679.26   696.30
eigval :      696.74   720.60   730.70   743.19   747.33   751.81
eigval :      755.12   756.30   756.37   760.56   763.39   764.49
eigval :      793.30   794.86   800.19   804.63   809.82   837.32
eigval :      842.37   843.52   848.47   855.33   873.36   873.40
eigval :      875.89   876.81   886.42   888.76   888.84   889.54
eigval :      890.20   891.01   892.95   894.23   895.17   897.13
eigval :      898.96   901.92   908.56   909.54   910.07   910.68
eigval :      913.28   919.12   920.92   924.81   926.63   926.69
eigval :      927.11   927.28   928.39   928.50   928.71   929.22
eigval :      929.40   929.63   930.83   946.25   975.34   976.68
eigval :      991.80   996.70   998.95  1004.95  1005.00  1015.99
eigval :     1027.01  1082.52  1082.59  1084.16  1084.24  1086.97
eigval :     1104.23  1108.70  1117.89  1120.13  1120.68  1122.61
eigval :     1123.91  1124.09  1127.74  1130.31  1132.55  1143.12
eigval :     1149.06  1169.02  1173.32  1178.67  1179.47  1180.36
eigval :     1180.41  1180.76  1182.88  1184.22  1186.99  1188.17
eigval :     1188.85  1192.68  1194.96  1195.81  1197.45  1205.60
eigval :     1210.65  1215.80  1223.59  1237.93  1238.48  1253.61
eigval :     1256.71  1261.19  1268.84  1277.76  1277.98  1279.59
eigval :     1280.53  1288.96  1291.13  1303.70  1308.27  1315.15
eigval :     1316.20  1317.22  1317.99  1320.69  1322.21  1325.96
eigval :     1326.53  1327.84  1328.05  1328.34  1332.84  1342.52
eigval :     1346.74  1368.26  1377.53  1384.88  1388.25  1395.75
eigval :     1405.83  1414.68  1419.39  1423.91  1427.42  1436.66
eigval :     1437.25  1443.95  1444.44  1450.96  1456.34  1462.17
eigval :     1463.83  1470.69  1472.10  1473.53  1476.76  1477.70
eigval :     1488.58  1499.33  1512.07  1525.08  1527.53  1535.75
eigval :     1538.91  1550.89  1554.85  1564.99  1568.50  1572.47
eigval :     1575.79  1577.25  1577.89  1580.67  1580.90  1585.19
eigval :     1594.43  1594.54  1599.80  1600.24  3067.11  3068.23
eigval :     3071.52  3071.62  3073.52  3074.97  3075.13  3075.36
eigval :     3075.50  3075.63  3075.94  3076.07  3076.28  3076.47
eigval :     3076.72  3076.99  3080.62  3081.27  3082.53  3082.97
eigval :     3083.99  3084.66  3084.95  3085.89  3086.08  3087.14
eigval :     3087.61  3088.12  3088.27  3088.80  3089.23  3089.34
eigval :     3089.50  3094.17  3094.70  3095.76  3096.71  3096.85
eigval :     3097.17  3097.60  3098.56  3102.01  3108.36  3112.79

   temp. (K)  partition function   enthalpy   heat capacity  entropy
                                   cal/mol     cal/K/mol   cal/K/mol   J/K/mol
 298.15  VIB  0.163E+27            31945.706    202.644    201.110
         ROT  0.276E+09              888.752      2.981     41.605
         INT  0.450E+35            32834.459    205.625    242.716
         TR   0.246E+29             1481.254      4.968     46.129
         TOT                       34315.7124   210.5931   288.8445  1208.5253

       T/K    H(0)-H(T)+PV         H(T)/Eh          T*S/Eh         G(T)/Eh
   ------------------------------------------------------------------------
    298.15    0.546856E-01    0.921421E+00    0.137239E+00    0.784182E+00
   ------------------------------------------------------------------------

         :::::::::::::::::::::::::::::::::::::::::::::::::::::
         ::                  THERMODYNAMIC                  ::
         :::::::::::::::::::::::::::::::::::::::::::::::::::::
         :: total free energy        -168.823069849991 Eh   ::
         ::.................................................::
         :: total energy             -169.607251970412 Eh   ::
         :: zero point energy           0.866735882173 Eh   ::
         :: G(RRHO) w/o ZPVE           -0.082553761752 Eh   ::
         :: G(RRHO) contrib.            0.784182120422 Eh   ::
         :::::::::::::::::::::::::::::::::::::::::::::::::::::

           -------------------------------------------------
          | TOTAL ENERGY             -169.607251970412 Eh   |
          | TOTAL ENTHALPY           -168.685830519574 Eh   |
          | TOTAL FREE ENERGY        -168.823069849991 Eh   |
          | GRADIENT NORM               0.000085437350 Eh/α |
           -------------------------------------------------

 * finished run on 2025/09/03 at 23:48:51.578
