   * xtb version 6.7.1 (edcfbbe) compiled by 'albert@albert-system' on 2024-07-22

   ID    Z sym.   atoms
    1    6 C      1-4, 6-37, 39-68
    2    7 N      5, 38
    3    1 H      69-112

          program call               : xtb data2507/gas/m-TPA-AP-TPA/m-TPA-AP-TPA_gas_S0_crest.xyz --gfn 2 --ohess vtight --parallel 40 --molden --ceasefiles --namespace data2507/gas/m-TPA-AP-TPA/m-TPA-AP-TPA_gas_S0_finalOpt
          :  Hamiltonian                  GFN2-xTB          :
 * total energy  :  -169.6686237 Eh     change       -0.3416574E-09 Eh
 * total energy  :  -169.6686251 Eh     change       -0.1396454E-05 Eh
 * total energy  :  -169.6686276 Eh     change       -0.2570279E-05 Eh
 * total energy  :  -169.6686330 Eh     change       -0.5314412E-05 Eh
 * total energy  :  -169.6686415 Eh     change       -0.8591485E-05 Eh
 * total energy  :  -169.6686498 Eh     change       -0.8257278E-05 Eh
 * total energy  :  -169.6686554 Eh     change       -0.5579629E-05 Eh
 * total energy  :  -169.6686596 Eh     change       -0.4178082E-05 Eh
 * total energy  :  -169.6686638 Eh     change       -0.4250742E-05 Eh
 * total energy  :  -169.6686687 Eh     change       -0.4867138E-05 Eh
 * total energy  :  -169.6687901 Eh     change       -0.1921352E-05 Eh
 * total energy  :  -169.6687920 Eh     change       -0.1860006E-05 Eh
 * total energy  :  -169.6687936 Eh     change       -0.1642167E-05 Eh
 * total energy  :  -169.6687950 Eh     change       -0.1405585E-05 Eh
 * total energy  :  -169.6687962 Eh     change       -0.1193682E-05 Eh
 * total energy  :  -169.6687973 Eh     change       -0.1062784E-05 Eh
 * total energy  :  -169.6687983 Eh     change       -0.1010355E-05 Eh
 * total energy  :  -169.6687993 Eh     change       -0.9980494E-06 Eh
 * total energy  :  -169.6687993 Eh     change       -0.4805145E-08 Eh
   *** GEOMETRY OPTIMIZATION CONVERGED AFTER 68 ITERATIONS ***

 final structure:
================
112
 xtb: 6.7.1 (edcfbbe)
C           -7.47843516262455       -4.50182221103181       -0.06389531270946
C           -7.41838917511025       -3.57802197794461        0.96657961176613
C           -7.86663489044916       -2.28628522356626        0.77368364466576
C           -8.37028517827678       -1.89312226958326       -0.46589270987535
N           -8.80896291056899       -0.57919053320538       -0.66892164873718
C           -9.93392806649267       -0.33148660264399       -1.46266222391492
C           -9.98210284183563        0.78684036626354       -2.29478663692260
C          -11.09859251069166        1.02959662522609       -3.07066512959107
C          -12.17814699349070        0.16216453339396       -3.03888658217010
C          -12.13306645441656       -0.95334043345750       -2.21874110796635
C          -11.02475335075199       -1.20014475762431       -1.43247183007842
C           -8.11549092110704        0.48367131349736       -0.08113410409359
C           -8.80024180673393        1.59996989150545        0.39958806448995
C           -8.10342070443345        2.64146173134639        0.98131077626800
C           -6.72612651708722        2.58769821899237        1.10386003289698
C           -6.03096713756932        1.47680407162465        0.63428804703945
C           -4.56012863235695        1.40120479941911        0.76753090394047
C           -3.74361183140201        2.23338965023691       -0.01023567570934
C           -4.28736817201601        3.13680576086439       -0.96098083568139
C           -3.48398225197592        3.93136426252352       -1.71898827679868
C           -2.08282303978149        3.86177427953798       -1.58435502484248
C           -1.52073867355934        3.00013433954594       -0.69398602136497
C           -2.32245507384022        2.16468860016823        0.12753003141171
C           -1.75265313522282        1.26797502966846        1.04172223763000
C           -0.28432452694454        1.22880068938879        1.21189406603768
C            0.34521924999217        2.27859667562717        1.87214773598768
C            1.70919051979700        2.27701461811864        2.07863128071789
C            2.49681964615997        1.21695449072506        1.62705509485750
C            3.90176303180003        1.16654753699115        1.85150164077590
C            4.64917438789718        0.13000233045555        1.40818134691070
C            4.06643965869002       -0.95217260818006        0.68410099073730
C            4.82380149542492       -2.03772237055876        0.20909567571761
C            6.28961499122498       -2.08425488890222        0.34746053652897
C            6.90347756116896       -3.18176514253882        0.94639195375596
C            8.28193646336952       -3.23206784174027        1.05247841902662
C            9.06452461410348       -2.20254342495408        0.56607394415628
C            8.46523510767116       -1.10451530440292       -0.05087950069669
N            9.24123693610545       -0.05374155310279       -0.55263099450620
C           10.46712793929693       -0.31134865927498       -1.17231660678049
C           11.53004949659799        0.58117408354295       -1.03202504588367
C           12.73994393656583        0.32536272185892       -1.64684903484630
C           12.91562156046092       -0.82274698595351       -2.40178783780799
C           11.86430846950626       -1.71377208081447       -2.54219822193316
C           10.64754832301100       -1.46264231776246       -1.93906949528697
C            8.76842796613701        1.26012474797141       -0.44492458113814
C            8.93857081895333        2.16550412113423       -1.49132092824516
C            8.45731421221752        3.45543292654659       -1.37876165377883
C            7.79354314598629        3.86035437688039       -0.23223558539205
C            7.62487721051922        2.96561130318007        0.81165703161645
C            8.11367884500804        1.67796191644310        0.71317796834031
C            7.07734598631214       -1.05865681084313       -0.15881647690210
C            4.18159699429248       -3.10018529156962       -0.41975748073861
C            2.81822960144062       -3.09644815469292       -0.62470075056536
C            2.03735010942475       -2.02214224184791       -0.19591336879507
C            0.63048182320149       -1.97581489445170       -0.41361431392248
C           -0.11593979653741       -0.93590895306306        0.02298146719297
C            0.47747074835636        0.15179962565173        0.72965547231020
C            1.87917765562380        0.14243792795396        0.94139396807230
C            2.66315590636359       -0.94325641909815        0.47564387729283
C           -2.56946902009752        0.43302104387999        1.81789884908584
C           -2.02349930206064       -0.47286364209007        2.76512708988741
C           -2.82494718160681       -1.27641872834132        3.51541390454279
C           -4.22588234248168       -1.21029296245816        3.37859655675186
C           -4.78873054921072       -0.34340672550043        2.49412404208983
C           -3.99025016458613        0.49889685369258        1.67685209861400
C           -6.72800067332499        0.43591761465785        0.03841205689573
C           -8.42793367623908       -2.82698669082717       -1.49985156650304
C           -7.98961016260814       -4.12058321512337       -1.29369290362213
H           -7.13066148341771       -5.51195589610406        0.09057253706698
H           -7.02744177217122       -3.86725234259412        1.93098371581954
H           -7.83576421596312       -1.57291166404274        1.58395477051060
H           -9.13735049353240        1.45921588453589       -2.33004519812538
H          -11.12187433187151        1.89857938585158       -3.71191041621203
H          -13.04780083636359        0.35379218834016       -3.64888956243194
H          -12.97193491943491       -1.63294326511513       -2.18363992394636
H          -10.99629628087927       -2.06541310188394       -0.78632341678631
H           -9.87629388428958        1.64074422544150        0.31837337927733
H           -8.64279653405412        3.50017139900321        1.35346873071961
H           -6.18432832758683        3.39780869935741        1.56880987888877
H           -5.36034623895257        3.17775332056450       -1.07616563428295
H           -3.91288017301055        4.61503875091656       -2.43705169510148
H           -1.45988555692669        4.49234014475983       -2.20176615246044
H           -0.44658050235282        2.93367144931371       -0.60269716439257
H           -0.25581576881778        3.10074249273174        2.23473801765765
H            2.17849214751154        3.09873816773049        2.60053300429605
H            4.35867572034287        1.97868488484626        2.39922257430664
H            5.70807369520398        0.09997687823456        1.61137680931800
H            6.29611668314528       -3.98186964160464        1.34247911189021
H            8.75359124526504       -4.07876089808977        1.52949234309292
H           10.13957567997473       -2.23997240571820        0.66092295790145
H           11.39972768721100        1.47221633712955       -0.43531419847524
H           13.55500630038298        1.02417167585298       -1.52770771008213
H           13.86411003373511       -1.02129348787659       -2.87725465472044
H           11.98938935366274       -2.60865471712279       -3.13418648042111
H            9.82652841251739       -2.15403895286895       -2.06066869026015
H            9.44545647122539        1.84772193332478       -2.39081436430514
H            8.59272808422757        4.14677353203081       -2.19762255520547
H            7.41263421225949        4.86716748405722       -0.15213536988985
H            7.11823355328273        3.27577625020115        1.71370406051955
H            8.00070900065631        0.98601798302282        1.53520452600771
H            6.61015867824670       -0.22237421940044       -0.65916333580934
H            4.77595907728530       -3.93100763481653       -0.77316510328333
H            2.34324476546317       -3.92636693280153       -1.12824235653360
H            0.17093208583023       -2.79873934618089       -0.94279791900988
H           -1.18122739085134       -0.91081720432658       -0.15383467901528
H           -0.95074803923496       -0.51224803649650        2.88255121648887
H           -2.39416428556292       -1.96343128674932        4.22901066444720
H           -4.84805898523546       -1.84653086383091        3.99105270250951
H           -5.86217330574907       -0.27633353700788        2.40507508618482
H           -6.18708090155705       -0.41983360103363       -0.33971274584055
H           -8.81474416356189       -2.52893902299836       -2.46347041665167
H           -8.03835753516557       -4.83369195615193       -2.10360881520733

          :  Hamiltonian                  GFN2-xTB          :
         :: gradient norm              0.000056578296 Eh/a0 ::
         :: HOMO-LUMO gap              1.863389083819 eV    ::
         :: SCC energy              -172.957485428737 Eh    ::
         :: -> dispersion             -0.169228096905 Eh    ::
         :: repulsion energy           3.288686115767 Eh    ::

    * Orbital Energies and Occupations

         #    Occupation            Energy/Eh            Energy/eV
      -------------------------------------------------------------
         1        2.0000           -0.6633490             -18.0506
       ...           ...                  ...                  ...
       147        2.0000           -0.4038853             -10.9903
       148        2.0000           -0.4032284             -10.9724
       149        2.0000           -0.4026669             -10.9571
       150        2.0000           -0.4025049             -10.9527
       151        2.0000           -0.3981663             -10.8347
       152        2.0000           -0.3973577             -10.8127
       153        2.0000           -0.3967679             -10.7966
       154        2.0000           -0.3951854             -10.7535
       155        2.0000           -0.3884534             -10.5704
       156        2.0000           -0.3617114              -9.8427
       157        2.0000           -0.3548184              -9.6551
       158        2.0000           -0.3481976              -9.4749
       159        2.0000           -0.3481226              -9.4729 (HOMO)
       160                         -0.2796443              -7.6095 (LUMO)
       161                         -0.2731984              -7.4341
       162                         -0.2411330              -6.5616
       163                         -0.2297412              -6.2516
       164                         -0.2293782              -6.2417
       165                         -0.2289386              -6.2297
       166                         -0.2284532              -6.2165
       167                         -0.2284188              -6.2156
       168                         -0.2265361              -6.1644
       169                         -0.2261593              -6.1541
       170                         -0.2218625              -6.0372
       ...                                ...                  ...
       316                          0.7336322              19.9631
      -------------------------------------------------------------
                  HL-Gap            0.0684783 Eh            1.8634 eV

     #   Z          covCN         q      C6AA      α(0)
     1   6 C        2.919    -0.038    28.952     8.824
     2   6 C        2.919    -0.029    28.720     8.788
     3   6 C        2.923    -0.046    29.149     8.854
     4   6 C        2.924     0.065    26.534     8.447
     5   7 N        2.753    -0.077    22.737     7.082
     6   6 C        2.924     0.065    26.534     8.447
     7   6 C        2.922    -0.048    29.184     8.859
     8   6 C        2.920    -0.029    28.734     8.790
     9   6 C        2.919    -0.039    28.963     8.825
    10   6 C        2.920    -0.029    28.733     8.790
    11   6 C        2.922    -0.048    29.189     8.860
    12   6 C        2.923     0.065    26.552     8.450
    13   6 C        2.922    -0.051    29.270     8.872
    14   6 C        2.918    -0.031    28.765     8.795
    15   6 C        2.923    -0.042    29.049     8.839
    16   6 C        2.977     0.016    27.652     8.626
    17   6 C        2.978    -0.006    28.170     8.706
    18   6 C        2.984     0.006    27.878     8.661
    19   6 C        2.917    -0.034    28.856     8.809
    20   6 C        2.914    -0.030    28.752     8.793
    21   6 C        2.914    -0.030    28.753     8.793
    22   6 C        2.917    -0.034    28.841     8.807
    23   6 C        2.984     0.006    27.878     8.661
    24   6 C        2.978    -0.004    28.118     8.698
    25   6 C        2.977     0.007    27.849     8.656
    26   6 C        2.919    -0.034    28.843     8.807
    27   6 C        2.918    -0.039    28.959     8.825
    28   6 C        2.982     0.009    27.817     8.652
    29   6 C        2.913    -0.037    28.912     8.817
    30   6 C        2.913    -0.036    28.898     8.815
    31   6 C        2.982     0.007    27.860     8.658
    32   6 C        2.977     0.002    27.968     8.675
    33   6 C        2.977     0.013    27.726     8.637
    34   6 C        2.924    -0.043    29.080     8.843
    35   6 C        2.918    -0.030    28.757     8.794
    36   6 C        2.922    -0.050    29.251     8.869
    37   6 C        2.923     0.064    26.555     8.451
    38   7 N        2.753    -0.078    22.748     7.084
    39   6 C        2.923     0.065    26.536     8.448
    40   6 C        2.923    -0.048    29.204     8.862
    41   6 C        2.920    -0.029    28.735     8.790
    42   6 C        2.919    -0.039    28.973     8.827
    43   6 C        2.920    -0.029    28.736     8.791
    44   6 C        2.922    -0.048    29.202     8.862
    45   6 C        2.925     0.066    26.531     8.447
    46   6 C        2.922    -0.047    29.166     8.856
    47   6 C        2.920    -0.029    28.726     8.789
    48   6 C        2.919    -0.038    28.945     8.823
    49   6 C        2.919    -0.028    28.710     8.787
    50   6 C        2.923    -0.046    29.138     8.852
    51   6 C        2.928    -0.052    29.288     8.875
    52   6 C        2.921    -0.035    28.874     8.812
    53   6 C        2.918    -0.038    28.944     8.822
    54   6 C        2.983     0.010    27.795     8.648
    55   6 C        2.914    -0.036    28.904     8.816
    56   6 C        2.913    -0.034    28.837     8.806
    57   6 C        2.984     0.007    27.856     8.658
    58   6 C        2.995     0.002    27.972     8.676
    59   6 C        2.995     0.002    27.960     8.674
    60   6 C        2.984     0.007    27.864     8.659
    61   6 C        2.917    -0.033    28.826     8.804
    62   6 C        2.915    -0.030    28.753     8.793
    63   6 C        2.914    -0.030    28.742     8.791
    64   6 C        2.918    -0.034    28.842     8.807
    65   6 C        2.984     0.006    27.887     8.662
    66   6 C        2.928    -0.052    29.286     8.875
    67   6 C        2.922    -0.047    29.178     8.858
    68   6 C        2.920    -0.029    28.730     8.790
    69   1 H        0.926     0.030     2.589     2.516
    70   1 H        0.926     0.031     2.570     2.507
    71   1 H        0.926     0.030     2.591     2.517
    72   1 H        0.926     0.031     2.575     2.509
    73   1 H        0.926     0.031     2.574     2.509
    74   1 H        0.926     0.030     2.593     2.518
    75   1 H        0.926     0.031     2.574     2.509
    76   1 H        0.926     0.031     2.572     2.508
    77   1 H        0.926     0.031     2.571     2.507
    78   1 H        0.926     0.031     2.569     2.506
    79   1 H        0.926     0.030     2.588     2.516
    80   1 H        0.926     0.031     2.572     2.508
    81   1 H        0.926     0.028     2.615     2.529
    82   1 H        0.926     0.028     2.614     2.528
    83   1 H        0.926     0.031     2.575     2.509
    84   1 H        0.926     0.029     2.603     2.523
    85   1 H        0.926     0.030     2.583     2.513
    86   1 H        0.926     0.029     2.606     2.525
    87   1 H        0.926     0.034     2.535     2.490
    88   1 H        0.926     0.031     2.578     2.511
    89   1 H        0.926     0.031     2.567     2.506
    90   1 H        0.926     0.032     2.563     2.503
    91   1 H        0.926     0.030     2.580     2.512
    92   1 H        0.926     0.030     2.580     2.512
    93   1 H        0.926     0.029     2.599     2.521
    94   1 H        0.926     0.030     2.580     2.512
    95   1 H        0.926     0.031     2.576     2.510
    96   1 H        0.926     0.032     2.561     2.503
    97   1 H        0.926     0.031     2.567     2.505
    98   1 H        0.926     0.030     2.585     2.514
    99   1 H        0.926     0.031     2.576     2.510
   100   1 H        0.926     0.029     2.599     2.521
   101   1 H        0.926     0.033     2.547     2.496
   102   1 H        0.926     0.030     2.580     2.512
   103   1 H        0.926     0.031     2.578     2.511
   104   1 H        0.926     0.029     2.594     2.519
   105   1 H        0.926     0.030     2.581     2.512
   106   1 H        0.926     0.030     2.583     2.513
   107   1 H        0.926     0.028     2.616     2.529
   108   1 H        0.926     0.027     2.623     2.532
   109   1 H        0.926     0.030     2.585     2.514
   110   1 H        0.926     0.031     2.572     2.508
   111   1 H        0.926     0.031     2.567     2.506
   112   1 H        0.926     0.031     2.571     2.508

molecular dipole:
                 x           y           z       tot (Debye)
 q only:       -0.015      -0.005      -0.007
   full:       -0.016      -0.014      -0.024       0.082

 projected vibrational frequencies (cm⁻¹)
eigval :       -0.00    -0.00    -0.00     0.00     0.00     0.00
eigval :        5.86     6.77     7.45    10.76    15.00    17.95
eigval :       19.25    30.05    33.64    40.90    45.58    53.69
eigval :       56.92    58.45    62.62    67.23    69.59    75.53
eigval :       77.33    79.48    84.19    94.78    98.97   108.21
eigval :      115.73   131.83   142.61   153.26   178.85   200.61
eigval :      202.07   209.58   212.48   213.38   220.80   225.51
eigval :      226.86   236.13   239.95   241.67   257.57   261.88
eigval :      278.39   290.03   292.91   320.35   325.53   326.93
eigval :      331.76   359.66   365.88   371.16   378.10   378.77
eigval :      383.91   384.19   385.20   392.56   396.11   399.56
eigval :      405.37   409.53   420.28   431.15   432.02   446.53
eigval :      458.65   459.17   474.18   475.70   476.09   477.68
eigval :      488.92   490.63   499.90   505.07   507.69   524.34
eigval :      537.57   557.17   565.01   579.86   581.88   582.30
eigval :      584.22   589.89   591.23   593.03   597.86   599.68
eigval :      604.46   613.85   624.89   630.08   646.33   648.32
eigval :      652.58   657.78   660.87   661.27   663.12   666.45
eigval :      672.28   675.24   677.89   680.74   691.74   694.79
eigval :      698.86   731.56   738.73   745.79   748.50   756.27
eigval :      756.70   758.41   761.43   764.24   773.65   775.35
eigval :      794.61   795.56   802.36   806.96   822.54   843.46
eigval :      845.59   851.03   869.67   874.31   874.52   874.77
eigval :      876.27   876.60   887.66   889.40   889.80   890.81
eigval :      891.24   891.67   893.82   895.96   896.25   899.26
eigval :      910.27   910.42   914.73   915.84   916.26   918.49
eigval :      922.26   923.66   925.29   926.56   926.77   927.49
eigval :      927.57   927.75   928.08   929.12   929.33   929.39
eigval :      929.52   929.58   931.56   933.04   975.24   976.91
eigval :      992.15   996.95   999.35  1005.11  1005.20  1015.26
eigval :     1027.43  1080.85  1081.40  1082.67  1083.17  1084.14
eigval :     1084.27  1086.57  1111.28  1120.77  1121.26  1123.75
eigval :     1123.96  1130.32  1131.40  1135.34  1141.86  1152.81
eigval :     1165.56  1177.14  1179.36  1180.27  1180.86  1180.90
eigval :     1181.57  1182.40  1184.73  1186.27  1188.96  1189.08
eigval :     1195.00  1195.61  1197.72  1199.05  1204.68  1211.20
eigval :     1222.95  1228.31  1228.82  1238.94  1253.53  1259.06
eigval :     1260.75  1264.79  1267.26  1278.12  1278.16  1278.27
eigval :     1281.37  1286.88  1307.00  1311.03  1314.63  1315.18
eigval :     1316.71  1320.31  1321.35  1325.39  1326.77  1327.66
eigval :     1327.81  1330.65  1332.52  1350.31  1358.62  1374.76
eigval :     1381.11  1384.20  1386.27  1406.19  1415.01  1420.55
eigval :     1426.45  1429.73  1429.92  1437.71  1438.23  1443.19
eigval :     1445.21  1448.68  1452.47  1468.38  1469.56  1473.71
eigval :     1474.17  1477.49  1478.20  1487.99  1498.39  1503.47
eigval :     1526.76  1529.66  1533.78  1542.90  1563.25  1564.36
eigval :     1569.41  1570.08  1577.32  1577.38  1581.43  1581.48
eigval :     1587.53  1588.36  1595.70  1595.78  1600.97  1601.07
eigval :     1604.54  1607.61  1609.19  1623.37  3067.85  3068.35
eigval :     3070.82  3071.55  3072.96  3073.30  3074.67  3075.03
eigval :     3075.14  3075.61  3075.74  3076.17  3076.27  3076.44
eigval :     3076.56  3077.18  3079.49  3080.96  3081.30  3081.89
eigval :     3082.50  3083.18  3084.54  3085.62  3085.84  3086.52
eigval :     3087.59  3087.87  3087.96  3088.33  3088.78  3089.16
eigval :     3089.38  3089.54  3092.86  3093.65  3094.49  3094.84
eigval :     3096.86  3097.02  3097.43  3097.59  3098.77  3105.15

   temp. (K)  partition function   enthalpy   heat capacity  entropy
                                   cal/mol     cal/K/mol   cal/K/mol   J/K/mol
 298.15  VIB  0.377E+27            31911.850    201.424    201.739
         ROT  0.278E+09              888.752      2.981     41.617
         INT  0.105E+36            32800.602    204.405    243.356
         TR   0.246E+29             1481.254      4.968     46.129
         TOT                       34281.8561   209.3727   289.4850  1211.2053

       T/K    H(0)-H(T)+PV         H(T)/Eh          T*S/Eh         G(T)/Eh
   ------------------------------------------------------------------------
    298.15    0.546316E-01    0.924282E+00    0.137544E+00    0.786739E+00
   ------------------------------------------------------------------------

         :::::::::::::::::::::::::::::::::::::::::::::::::::::
         ::                  THERMODYNAMIC                  ::
         :::::::::::::::::::::::::::::::::::::::::::::::::::::
         :: total free energy        -168.882060794894 Eh   ::
         ::.................................................::
         :: total energy             -169.668799312968 Eh   ::
         :: zero point energy           0.869650570407 Eh   ::
         :: G(RRHO) w/o ZPVE           -0.082912052333 Eh   ::
         :: G(RRHO) contrib.            0.786738518074 Eh   ::
         :::::::::::::::::::::::::::::::::::::::::::::::::::::

           -------------------------------------------------
          | TOTAL ENERGY             -169.668799312968 Eh   |
          | TOTAL ENTHALPY           -168.744517127415 Eh   |
          | TOTAL FREE ENERGY        -168.882060794894 Eh   |
          | GRADIENT NORM               0.000056577877 Eh/α |
          | HOMO-LUMO GAP               1.863389551557 eV   |
           -------------------------------------------------

 * finished run on 2025/09/03 at 23:29:49.394
