   * xtb version 6.7.1 (edcfbbe) compiled by 'albert@albert-system' on 2024-07-22

   ID    Z sym.   atoms
    1    6 C      1-4, 6-37, 39-68
    2    7 N      5, 38
    3    1 H      69-112

          program call               : xtb data2507/gas/m-TPA-AP-TPA/m-TPA-AP-TPA_gas_S0_finalOpt.xtbopt.xyz --gfn 2 --spinpol --tblite --uhf 2 --ohess vtight --parallel 40 --molden --ceasefiles --namespace data2507/gas/m-TPA-AP-TPA/m-TPA-AP-TPA_gas_T1_preOpt
 * total energy  :  -169.5980205 Eh     change       -0.2107453E-07 Eh
 * total energy  :  -169.6033510 Eh     change       -0.5330449E-02 Eh
 * total energy  :  -169.6050938 Eh     change       -0.1742865E-02 Eh
 * total energy  :  -169.6052728 Eh     change       -0.1789401E-03 Eh
 * total energy  :  -169.6055604 Eh     change       -0.2876029E-03 Eh
 * total energy  :  -169.6057151 Eh     change       -0.1546957E-03 Eh
 * total energy  :  -169.6059481 Eh     change       -0.2330002E-03 Eh
 * total energy  :  -169.6061955 Eh     change       -0.2474513E-03 Eh
 * total energy  :  -169.6063518 Eh     change       -0.1562595E-03 Eh
 * total energy  :  -169.6064546 Eh     change       -0.1027896E-03 Eh
 * total energy  :  -169.6072343 Eh     change       -0.2975200E-05 Eh
 * total energy  :  -169.6072372 Eh     change       -0.2837734E-05 Eh
 * total energy  :  -169.6072386 Eh     change       -0.1399574E-05 Eh
 * total energy  :  -169.6072395 Eh     change       -0.8884421E-06 Eh
 * total energy  :  -169.6072399 Eh     change       -0.4697267E-06 Eh
 * total energy  :  -169.6072403 Eh     change       -0.4090949E-06 Eh
 * total energy  :  -169.6072406 Eh     change       -0.2719323E-06 Eh
 * total energy  :  -169.6072411 Eh     change       -0.4949866E-06 Eh
 * total energy  :  -169.6072412 Eh     change       -0.9877937E-07 Eh
   *** GEOMETRY OPTIMIZATION CONVERGED AFTER 44 ITERATIONS ***

 final structure:
================
112
 xtb: 6.7.1 (edcfbbe)
C           -7.49299620358523       -4.48902983132039        0.16846250637481
C           -7.47852453003285       -3.53278919782115        1.17058986184864
C           -7.92906190814425       -2.25198435969246        0.91944757803999
C           -8.38909846322618       -1.90385552085098       -0.35010048867964
N           -8.82545847619982       -0.59822936760161       -0.60690268220266
C           -9.93231785331922       -0.37218436325393       -1.42865777617369
C           -9.97663351476070        0.74077392324282       -2.26870068773655
C          -11.07708733959210        0.96235525115494       -3.07318068773363
C          -12.14432557959262        0.07932211611468       -3.06295408814000
C          -12.10334752693295       -1.03025639190423       -2.23448460471049
C          -11.01159230659120       -1.25623482653382       -1.41958527485522
C           -8.12854708281079        0.47887169707592       -0.04702536602092
C           -8.81261401540172        1.59892101830590        0.42749631914361
C           -8.10800576318021        2.65059188482938        0.98326501222375
C           -6.72934275484755        2.60679124297147        1.07564734241776
C           -6.02827233943903        1.49271165145437        0.60732337833341
C           -4.56619258745758        1.43149932440739        0.69581487838391
C           -3.77544470524385        2.41840450182560        0.04004452829583
C           -4.36226978717251        3.40955845214388       -0.75925432507169
C           -3.59464489601859        4.33723415808261       -1.44564199975531
C           -2.21575789963141        4.26109557657812       -1.39235504966410
C           -1.60706371076825        3.26609102937944       -0.64002621233588
C           -2.35340940768454        2.35742643571576        0.11775028143807
C           -1.71910136843613        1.30692843277171        0.85956548587329
C           -0.27853122459560        1.28061212513809        0.97011677767262
C            0.38469365268355        2.41795031706309        1.46350709644522
C            1.73294164355967        2.41910267504659        1.70033601582661
C            2.52099701008640        1.29074531153185        1.40728477187301
C            3.90716722313603        1.25173683812557        1.67508221027967
C            4.65906158365015        0.16184728360954        1.35885297374974
C            4.08747951445108       -0.96833610342700        0.71774553713192
C            4.85203686785940       -2.09419552328714        0.33953870935000
C            6.31560101677984       -2.12132498304896        0.46990331160042
C            6.95146339735833       -3.20038550996447        1.08274969909292
C            8.33130660918737       -3.23661834940163        1.16995986726395
C            9.09844889713477       -2.20909251346997        0.65425620632947
C            8.47814622098737       -1.12815477714160        0.02847707428055
N            9.23354783109921       -0.07186213148041       -0.49624958906399
C           10.43614153966083       -0.32135523653124       -1.16004732180257
C           11.49303192554915        0.58556729290226       -1.07418864310797
C           12.68002553049105        0.33600619958926       -1.73432526932155
C           12.83949450509434       -0.81975647247112       -2.48126221005389
C           11.79494167757898       -1.72563405879972       -2.56657664123203
C           10.60063880117074       -1.48139158615255       -1.91767811042346
C            8.75357737663748        1.23653738488855       -0.36024529441221
C            8.87384764059997        2.15342395312820       -1.40350714196277
C            8.38254107212655        3.43649428807954       -1.25998362095526
C            7.75913287657648        3.82322588779569       -0.08483091065507
C            7.64035670733665        2.91697812515083        0.95601905781791
C            8.13814796499273        1.63565580800183        0.82592064741831
C            7.08971640546853       -1.09848459166183       -0.06550428794344
C            4.21235754759847       -3.20789675396476       -0.20041209818946
C            2.85479553554235       -3.21840032194356       -0.42668166597626
C            2.06927873250337       -2.10220904160061       -0.10802314967742
C            0.67932545249697       -2.05815623779100       -0.37887685690367
C           -0.07266683242709       -0.97690011811201       -0.03998306855962
C            0.49846254434553        0.14170041238068        0.61673536518966
C            1.89853404862322        0.15159481194035        0.83822577699316
C            2.68642982128255       -0.97385196627788        0.48563615204716
C           -2.52338424649135        0.32919285408036        1.53598015477445
C           -1.95338895429418       -0.61985834372706        2.39108607618742
C           -2.72881878723058       -1.54133620700046        3.07791307154842
C           -4.10623424967586       -1.50579948458680        2.96034726445857
C           -4.70304726538479       -0.53691908265321        2.17161596561877
C           -3.94373567256812        0.38865950856541        1.44210865049846
C           -6.74085307956553        0.43720233529757        0.04630105370433
C           -8.40299898348094       -2.87023090826152       -1.35486892313308
C           -7.96206186163213       -4.15247987298679       -1.09085376602200
H           -7.14311009823304       -5.49046331241383        0.36801329141217
H           -7.12319503927286       -3.78898010655535        2.15776149689798
H           -7.93787043247629       -1.51192133844204        1.70634209712039
H           -9.14078192779693        1.42474441356659       -2.28898479927982
H          -11.09691723695258        1.82705033192727       -3.72028013079342
H          -13.00098152798586        0.25411190995748       -3.69591604576782
H          -12.93281806080069       -1.72191865924242       -2.21561550297383
H          -10.98779054026025       -2.11641712370289       -0.76656660296895
H           -9.89000961144937        1.63268461189990        0.36429025268372
H           -8.64377700979592        3.51038062613449        1.35831252198496
H           -6.18705841883421        3.42104190332155        1.53269909630196
H           -5.43663239967017        3.44090457033671       -0.85555185792719
H           -4.07828009026147        5.09916128534612       -2.03887323259427
H           -1.60674049580615        4.95878912635152       -1.94770883505500
H           -0.53098693767936        3.18608257640785       -0.65541195466412
H           -0.20832410612021        3.28053136999913        1.73330751669001
H            2.20663805761092        3.28604288593206        2.13848922477433
H            4.36423650965835        2.11062237798698        2.14591468775478
H            5.70937640568544        0.14539837261164        1.60283256023476
H            6.35881566478956       -3.99743517163080        1.50624111135771
H            8.81693422442129       -4.07016353377973        1.65608628130129
H           10.17509843451147       -2.23411165355960        0.73378128580917
H           11.37657495060522        1.48234712450903       -0.48329854004503
H           13.49036567466866        1.04613086910974       -1.65733391912166
H           13.77011558312071       -1.01273180906220       -2.99292044320767
H           11.90726555847964       -2.62689746361088       -3.15137502099348
H            9.78422671565822       -2.18425664315395       -1.99701719076431
H            9.34888958953688        1.84965497907185       -2.32493882021364
H            8.47833658702414        4.13694076601951       -2.07667135256073
H            7.37098636783951        4.82502230882224        0.01966432169560
H            7.16671216688976        3.21320998310999        1.88046709406971
H            8.06375633084416        0.93421383504809        1.64442902208983
H            6.61130083083198       -0.27848213469265       -0.58171476916286
H            4.80903193921398       -4.06557776293834       -0.47765721672852
H            2.38282128097533       -4.08426441550823       -0.86828917406352
H            0.22494297434804       -2.90653240183394       -0.87065507427288
H           -1.12757749099851       -0.95853528918685       -0.26989796339420
H           -0.88294686389966       -0.63621951699653        2.52578251212950
H           -2.25141346233330       -2.27309623211720        3.71236542699010
H           -4.72027220017587       -2.21356576933713        3.49710403340603
H           -5.77889743947667       -0.48053472361565        2.13105290725065
H           -6.20725440206575       -0.41942502172549       -0.34017068669035
H           -8.75700623141148       -2.60606125212446       -2.34071304547861
H           -7.97554995189264       -4.89198484278738       -1.87807876592440

 projected vibrational frequencies (cm⁻¹)
eigval :       -0.00    -0.00    -0.00    -0.00     0.00     0.00
eigval :        5.48     7.26     8.01    11.49    15.69    20.19
eigval :       23.42    28.55    39.26    41.14    44.13    54.01
eigval :       58.51    61.22    64.51    68.52    70.14    74.73
eigval :       78.88    82.55    86.43    94.00   105.02   111.32
eigval :      125.80   134.70   139.23   159.24   179.81   201.65
eigval :      202.90   212.13   214.99   220.20   225.30   226.13
eigval :      227.39   238.64   242.58   251.78   261.61   265.30
eigval :      279.05   290.68   293.22   316.82   325.84   326.74
eigval :      331.97   354.77   359.80   369.33   377.45   377.99
eigval :      378.67   380.04   384.16   384.72   391.80   394.71
eigval :      399.37   407.80   420.23   425.10   429.60   436.58
eigval :      452.29   464.16   471.12   473.35   474.70   476.70
eigval :      489.10   490.60   498.19   502.67   506.33   524.25
eigval :      529.69   554.19   560.62   576.63   579.35   580.73
eigval :      582.80   587.57   589.01   590.62   592.37   599.64
eigval :      600.61   607.85   618.03   626.58   641.13   643.35
eigval :      645.28   655.67   660.11   660.86   662.92   665.51
eigval :      671.68   672.11   674.26   676.42   679.17   696.32
eigval :      696.73   720.48   730.59   743.20   747.49   751.98
eigval :      755.10   756.43   756.49   760.66   763.41   764.67
eigval :      793.41   795.03   800.45   804.66   809.83   837.40
eigval :      842.40   843.49   849.05   855.29   873.56   873.57
eigval :      875.88   876.72   886.54   888.89   888.98   889.65
eigval :      890.38   891.20   893.07   894.21   895.13   897.25
eigval :      899.01   900.83   908.70   909.51   910.12   910.52
eigval :      913.24   919.21   919.76   924.97   926.72   926.80
eigval :      927.22   927.45   928.50   928.71   928.78   929.48
eigval :      929.53   929.93   931.73   946.41   975.37   976.73
eigval :      991.81   996.69   998.88  1004.97  1005.04  1016.04
eigval :     1027.39  1082.62  1082.66  1084.23  1084.30  1087.05
eigval :     1104.15  1108.69  1117.95  1120.30  1120.87  1122.80
eigval :     1124.08  1124.24  1127.44  1129.99  1132.11  1142.72
eigval :     1149.18  1169.15  1173.74  1178.97  1179.84  1180.67
eigval :     1180.70  1181.27  1183.11  1184.34  1187.32  1188.36
eigval :     1188.94  1192.88  1195.21  1196.10  1197.70  1205.79
eigval :     1210.81  1216.03  1223.77  1238.10  1238.46  1253.85
eigval :     1257.19  1261.40  1268.90  1277.92  1278.15  1279.77
eigval :     1280.69  1288.93  1291.34  1303.81  1308.40  1315.35
eigval :     1316.35  1317.31  1317.97  1320.69  1322.19  1325.86
eigval :     1326.43  1327.81  1328.03  1328.37  1332.96  1343.05
eigval :     1346.84  1368.38  1377.64  1384.92  1388.27  1395.55
eigval :     1405.75  1414.75  1419.47  1423.65  1427.36  1436.38
eigval :     1437.04  1443.75  1444.21  1450.93  1456.19  1462.29
eigval :     1464.44  1470.65  1471.97  1473.34  1476.57  1477.45
eigval :     1488.62  1499.40  1512.11  1525.12  1527.45  1535.88
eigval :     1538.97  1550.93  1555.52  1565.19  1568.56  1572.77
eigval :     1575.76  1577.38  1578.01  1580.66  1580.94  1585.21
eigval :     1594.48  1594.54  1599.41  1600.11  3066.99  3068.26
eigval :     3071.40  3071.65  3073.89  3075.03  3075.31  3075.56
eigval :     3075.64  3075.68  3075.97  3076.11  3076.32  3076.54
eigval :     3076.75  3076.97  3080.42  3081.25  3082.75  3082.95
eigval :     3084.14  3084.93  3085.27  3085.94  3086.16  3086.88
eigval :     3087.60  3088.11  3088.28  3088.82  3089.23  3089.46
eigval :     3090.06  3094.10  3094.63  3096.37  3096.80  3096.89
eigval :     3097.22  3097.70  3098.79  3100.88  3106.67  3110.61

   temp. (K)  partition function   enthalpy   heat capacity  entropy
                                   cal/mol     cal/K/mol   cal/K/mol   J/K/mol
 298.15  VIB  0.160E+27            31944.909    202.628    201.081
         ROT  0.277E+09              888.752      2.981     41.615
         INT  0.444E+35            32833.661    205.609    242.696
         TR   0.246E+29             1481.254      4.968     46.129
         TOT                       34314.9150   210.5770   288.8244  1208.4414

       T/K    H(0)-H(T)+PV         H(T)/Eh          T*S/Eh         G(T)/Eh
   ------------------------------------------------------------------------
    298.15    0.546843E-01    0.921443E+00    0.137230E+00    0.784214E+00
   ------------------------------------------------------------------------

         :::::::::::::::::::::::::::::::::::::::::::::::::::::
         ::                  THERMODYNAMIC                  ::
         :::::::::::::::::::::::::::::::::::::::::::::::::::::
         :: total free energy        -168.823027707891 Eh   ::
         ::.................................................::
         :: total energy             -169.607241285333 Eh   ::
         :: zero point energy           0.866759081511 Eh   ::
         :: G(RRHO) w/o ZPVE           -0.082545504069 Eh   ::
         :: G(RRHO) contrib.            0.784213577442 Eh   ::
         :::::::::::::::::::::::::::::::::::::::::::::::::::::

           -------------------------------------------------
          | TOTAL ENERGY             -169.607241285333 Eh   |
          | TOTAL ENTHALPY           -168.685797905898 Eh   |
          | TOTAL FREE ENERGY        -168.823027707891 Eh   |
          | GRADIENT NORM               0.000099474197 Eh/α |
           -------------------------------------------------

 * finished run on 2025/09/03 at 23:30:10.908
