   * xtb version 6.7.1 (edcfbbe) compiled by 'albert@albert-system' on 2024-07-22

   ID    Z sym.   atoms
    1    6 C      1-4, 6-37, 39-68
    2    7 N      5, 38
    3    1 H      69-112

          program call               : xtb data2507/gas/m-TPA-AP-TPA/m-TPA-AP-TPA.xyz --gfn 2 --ohess vtight --parallel 40 --molden --ceasefiles --namespace data2507/gas/m-TPA-AP-TPA/m-TPA-AP-TPA_gas_S0_preOpt
          :  Hamiltonian                  GFN2-xTB          :
 * total energy  :  -169.6281759 Eh     change       -0.1003002E-08 Eh
 * total energy  :  -169.6520197 Eh     change       -0.2384377E-01 Eh
 * total energy  :  -169.6615935 Eh     change       -0.9573790E-02 Eh
 * total energy  :  -169.6640351 Eh     change       -0.2441616E-02 Eh
 * total energy  :  -169.6651229 Eh     change       -0.1087742E-02 Eh
 * total energy  :  -169.6656803 Eh     change       -0.5574252E-03 Eh
 * total energy  :  -169.6661031 Eh     change       -0.4227951E-03 Eh
 * total energy  :  -169.6664102 Eh     change       -0.3070824E-03 Eh
 * total energy  :  -169.6665982 Eh     change       -0.1880371E-03 Eh
 * total energy  :  -169.6666916 Eh     change       -0.9341714E-04 Eh
 * total energy  :  -169.6682441 Eh     change       -0.2978505E-06 Eh
 * total energy  :  -169.6682443 Eh     change       -0.2276186E-06 Eh
 * total energy  :  -169.6682445 Eh     change       -0.1568727E-06 Eh
 * total energy  :  -169.6682446 Eh     change       -0.1500923E-06 Eh
 * total energy  :  -169.6682448 Eh     change       -0.1487247E-06 Eh
 * total energy  :  -169.6682449 Eh     change       -0.1426855E-06 Eh
 * total energy  :  -169.6682451 Eh     change       -0.1867083E-06 Eh
 * total energy  :  -169.6682453 Eh     change       -0.2328148E-06 Eh
 * total energy  :  -169.6682453 Eh     change       -0.3721880E-08 Eh
   *** GEOMETRY OPTIMIZATION CONVERGED AFTER 94 ITERATIONS ***

 final structure:
================
112
 xtb: 6.7.1 (edcfbbe)
C           -7.37216161169054        2.49296455294231       -3.80465859903422
C           -7.49229906111833        1.12979119263380       -3.58994749999095
C           -7.97873643184312        0.65236089858420       -2.38912842874849
C           -8.33951938009627        1.53710752027817       -1.37331039691919
N           -8.81430582206874        1.05137374380419       -0.14924958198983
C           -9.84309077795987        1.71800201722213        0.52273237246834
C          -10.87729172057149        2.32471727131554       -0.19004410493856
C          -11.88977441228391        2.98458850928492        0.47841234212859
C          -11.89561672133745        3.04437318212814        1.86240124576924
C          -10.87312844044334        2.44015941745621        2.57534199022937
C           -9.85133746904756        1.78552266962807        1.91600531283910
C           -8.24886439207189       -0.10544247991157        0.39896372581544
C           -9.04367267774013       -1.04099004084146        1.06093419946713
C           -8.47204274629189       -2.18327440408202        1.58768827485882
C           -7.11386402038955       -2.41558214489986        1.46109129511903
C           -6.30837112502280       -1.49000342631040        0.80247762978457
C           -4.85575730220459       -1.72403260269659        0.66359582571535
C           -4.03614182314599       -1.71922955579021        1.80182305236564
C           -4.54993348515189       -1.44885637882117        3.09751031205187
C           -3.74138594845363       -1.44967755106783        4.19212022652045
C           -2.36287400615605       -1.71259430826875        4.06123244573892
C           -1.82596798195157       -1.95713249079176        2.83551567275488
C           -2.63458991487382       -1.96645398630588        1.66876472640237
C           -2.08456294391523       -2.19389786091450        0.40134771763529
C           -0.63645263939554       -2.47491285416784        0.27048067463482
C           -0.17895390676339       -3.77499169742530        0.44843895149975
C            1.16298207883005       -4.07912715446818        0.33951195534235
C            2.09711624071701       -3.08527113881644        0.04400682068399
C            3.49155166245840       -3.35785531097472       -0.05299453343969
C            4.38121469730376       -2.38330092779040       -0.35164266026813
C            3.96163306627487       -1.04041155357805       -0.59025961815943
C            4.86492925792083       -0.01320401444818       -0.91537223804247
C            6.29571011284100       -0.27352727199209       -1.14556012058430
C            6.71456689798755       -1.21786570076590       -2.08127520475052
C            8.06509105488223       -1.42041051739175       -2.30173291659002
C            9.01108530101181       -0.68804182942870       -1.61035529510600
C            8.60683154453021        0.26717897820381       -0.67801915643738
N            9.55156663956761        1.02976743520556        0.01780422792389
C            9.29260868029089        2.37825956915581        0.28648780536421
C            8.61393069138409        3.16651917620251       -0.64315955352530
C            8.35337813830769        4.49529902805240       -0.37173655741286
C            8.77072628136469        5.06332426559897        0.82083796483453
C            9.44978527761912        4.28669555024598        1.74523527208392
C            9.70665281863834        2.95426277880913        1.48724199956370
C           10.75302844842875        0.44643374675002        0.43344301253287
C           11.94232612771129        1.17451932829500        0.40437909446238
C           13.12459549165026        0.59306791960615        0.81877161449968
C           13.14523217777906       -0.72031689770054        1.25880517711704
C           11.96769320652700       -1.44939392449260        1.28539287195333
C           10.77877226601503       -0.87423635146294        0.88151028375259
C            7.24662741304058        0.46259338538477       -0.45226933505071
C            4.40192135281477        1.29341957955261       -1.04309381897098
C            3.06558419600851        1.59995333200442       -0.89988093007722
C            2.13270431068379        0.60092756480897       -0.61754264344067
C            0.74214952433722        0.88047240734755       -0.48512875541477
C           -0.14905945520418       -0.09750760579041       -0.20476782318083
C            0.27298349965410       -1.44785559999459       -0.02565100695513
C            1.65143178048478       -1.75430887585629       -0.14561512766042
C            2.58398277023961       -0.73156864399819       -0.45143433216705
C           -2.89807609086655       -2.17813765906215       -0.73827965783954
C           -2.36055454917381       -2.39296649204547       -2.03451103476970
C           -3.15912857378303       -2.39380626875496       -3.13575408430411
C           -4.54855872794127       -2.19758277467389       -3.00407821841550
C           -5.10146245857995       -1.98912961856251       -1.77854056919964
C           -4.30297871146619       -1.95074025806151       -0.60557314473635
C           -6.88042392912151       -0.33855516133853        0.28051686873372
C           -8.21639121489862        2.90826660120710       -1.59460892842678
C           -7.74136914487547        3.37703169085532       -2.80404651671033
H           -6.99514803981791        2.86390768928320       -4.74563023261206
H           -7.21410212886454        0.43284634499338       -4.36673761297217
H           -8.09075786047638       -0.41012359263178       -2.23033192683945
H          -10.88129177107149        2.27086643038370       -1.26895967781527
H          -12.68549227457091        3.44817426907967       -0.08616627780547
H          -12.69065950224342        3.55803477119440        2.38122424924925
H          -10.86569954067335        2.48645017420151        3.65455515934397
H           -9.04948111600928        1.32526283895998        2.47469177647372
H          -10.10576372182418       -0.86832611153650        1.15225620350262
H           -9.09557449236213       -2.90562818510081        2.09388086785437
H           -6.67203241050461       -3.31520284060111        1.86303722214623
H           -5.60318790929245       -1.23397324745453        3.19994354710781
H           -4.14893581687481       -1.24232446664343        5.17086780851134
H           -1.73698205268555       -1.70807835969870        4.94157174016061
H           -0.76735329243536       -2.14349572227875        2.72759948367018
H           -0.89377260832203       -4.55298462335871        0.67691473249579
H            1.50096788637522       -5.09528215445748        0.48461465139454
H            3.82529385814664       -4.37006874193870        0.12796675134094
H            5.43644636015943       -2.60714761229196       -0.39844168013581
H            5.98061841767292       -1.77273421334306       -2.64645600946688
H            8.38624862226125       -2.14893056115733       -3.03184178370714
H           10.06398614376774       -0.84219843064828       -1.79408664076195
H            8.29843588083967        2.72951056673982       -1.57954558253881
H            7.82874310569933        5.09460317204697       -1.10160323261985
H            8.56868061325013        6.10326006662037        1.02786101627703
H            9.77490623596841        4.71938761984195        2.68004963988672
H           10.22687382866132        2.34866603329144        2.21493310422681
H           11.93134382319875        2.19554471095409        0.05175271986066
H           14.03868683405881        1.16784836152373        0.78919703816637
H           14.07192189745124       -1.17213323919198        1.57857235106459
H           11.97277804898888       -2.47245245851377        1.63209772422508
H            9.86016615714002       -1.44178182506967        0.91339565537984
H            6.92830130069880        1.18726650057061        0.28341202588477
H            5.10944616949776        2.07517841585476       -1.28145700671309
H            2.72812154241870        2.62012454632719       -1.01494013663666
H            0.41514711976445        1.90249911403921       -0.61540721296708
H           -1.20174521354508        0.12515452274920       -0.10676123104963
H           -1.29692846853218       -2.55716511208050       -2.12812339616662
H           -2.73739470744788       -2.55476988773118       -4.11708287864434
H           -5.17151563512905       -2.22103199063140       -3.88630434910529
H           -6.16745580634101       -1.85502536325452       -1.67932468042692
H           -6.25602318600153        0.38852481324293       -0.21899159930166
H           -8.49212652588312        3.59937305342581       -0.81144241913750
H           -7.64938515433546        4.44161774538150       -2.96236147008438

          :  Hamiltonian                  GFN2-xTB          :
         :: gradient norm              0.000042764594 Eh/a0 ::
         :: HOMO-LUMO gap              1.910886046812 eV    ::
         :: SCC energy              -172.956873886440 Eh    ::
         :: -> dispersion             -0.167838208805 Eh    ::
         :: repulsion energy           3.288628561520 Eh    ::

    * Orbital Energies and Occupations

         #    Occupation            Energy/Eh            Energy/eV
      -------------------------------------------------------------
         1        2.0000           -0.6632941             -18.0492
       ...           ...                  ...                  ...
       147        2.0000           -0.4037461             -10.9865
       148        2.0000           -0.4036311             -10.9834
       149        2.0000           -0.4026720             -10.9573
       150        2.0000           -0.4024049             -10.9500
       151        2.0000           -0.3986117             -10.8468
       152        2.0000           -0.3970995             -10.8056
       153        2.0000           -0.3966336             -10.7929
       154        2.0000           -0.3962994             -10.7839
       155        2.0000           -0.3888139             -10.5802
       156        2.0000           -0.3603177              -9.8047
       157        2.0000           -0.3563060              -9.6956
       158        2.0000           -0.3481272              -9.4730
       159        2.0000           -0.3480187              -9.4701 (HOMO)
       160                         -0.2777949              -7.5592 (LUMO)
       161                         -0.2754818              -7.4962
       162                         -0.2413784              -6.5682
       163                         -0.2298897              -6.2556
       164                         -0.2293881              -6.2420
       165                         -0.2288563              -6.2275
       166                         -0.2287449              -6.2245
       167                         -0.2284736              -6.2171
       168                         -0.2263207              -6.1585
       169                         -0.2262271              -6.1560
       170                         -0.2215664              -6.0291
       ...                                ...                  ...
       316                          0.7329384              19.9443
      -------------------------------------------------------------
                  HL-Gap            0.0702238 Eh            1.9109 eV

     #   Z          covCN         q      C6AA      α(0)
     1   6 C        2.919    -0.038    28.952     8.824
     2   6 C        2.919    -0.029    28.716     8.788
     3   6 C        2.923    -0.046    29.147     8.853
     4   6 C        2.925     0.065    26.534     8.447
     5   7 N        2.753    -0.077    22.744     7.083
     6   6 C        2.923     0.065    26.535     8.447
     7   6 C        2.922    -0.048    29.198     8.861
     8   6 C        2.920    -0.029    28.734     8.790
     9   6 C        2.919    -0.039    28.970     8.826
    10   6 C        2.920    -0.029    28.735     8.790
    11   6 C        2.922    -0.048    29.194     8.861
    12   6 C        2.923     0.065    26.552     8.450
    13   6 C        2.922    -0.051    29.256     8.870
    14   6 C        2.918    -0.031    28.767     8.795
    15   6 C        2.923    -0.042    29.041     8.837
    16   6 C        2.976     0.016    27.656     8.626
    17   6 C        2.977    -0.007    28.179     8.708
    18   6 C        2.983     0.006    27.879     8.661
    19   6 C        2.917    -0.035    28.861     8.810
    20   6 C        2.915    -0.030    28.752     8.793
    21   6 C        2.914    -0.030    28.749     8.792
    22   6 C        2.918    -0.033    28.829     8.805
    23   6 C        2.985     0.006    27.876     8.661
    24   6 C        2.979    -0.004    28.109     8.697
    25   6 C        2.978     0.008    27.838     8.655
    26   6 C        2.919    -0.034    28.845     8.807
    27   6 C        2.919    -0.038    28.956     8.824
    28   6 C        2.982     0.009    27.821     8.652
    29   6 C        2.913    -0.037    28.926     8.819
    30   6 C        2.913    -0.036    28.902     8.816
    31   6 C        2.982     0.007    27.856     8.658
    32   6 C        2.977     0.002    27.969     8.675
    33   6 C        2.977     0.013    27.726     8.637
    34   6 C        2.923    -0.042    29.050     8.839
    35   6 C        2.918    -0.031    28.771     8.796
    36   6 C        2.922    -0.050    29.248     8.869
    37   6 C        2.923     0.065    26.544     8.449
    38   7 N        2.753    -0.077    22.735     7.082
    39   6 C        2.924     0.066    26.532     8.447
    40   6 C        2.923    -0.048    29.182     8.859
    41   6 C        2.919    -0.029    28.734     8.790
    42   6 C        2.919    -0.039    28.962     8.825
    43   6 C        2.920    -0.029    28.730     8.790
    44   6 C        2.922    -0.048    29.184     8.859
    45   6 C        2.924     0.065    26.535     8.447
    46   6 C        2.922    -0.048    29.190     8.860
    47   6 C        2.920    -0.029    28.734     8.790
    48   6 C        2.919    -0.039    28.964     8.825
    49   6 C        2.920    -0.029    28.734     8.790
    50   6 C        2.923    -0.048    29.187     8.859
    51   6 C        2.929    -0.053    29.318     8.880
    52   6 C        2.921    -0.035    28.868     8.811
    53   6 C        2.918    -0.038    28.941     8.822
    54   6 C        2.983     0.010    27.793     8.648
    55   6 C        2.914    -0.036    28.899     8.815
    56   6 C        2.913    -0.034    28.835     8.805
    57   6 C        2.985     0.007    27.861     8.658
    58   6 C        2.996     0.002    27.969     8.675
    59   6 C        2.995     0.003    27.958     8.674
    60   6 C        2.985     0.006    27.871     8.660
    61   6 C        2.918    -0.033    28.824     8.804
    62   6 C        2.914    -0.030    28.751     8.793
    63   6 C        2.915    -0.030    28.740     8.791
    64   6 C        2.917    -0.034    28.848     8.808
    65   6 C        2.983     0.006    27.884     8.662
    66   6 C        2.928    -0.051    29.275     8.873
    67   6 C        2.922    -0.047    29.177     8.858
    68   6 C        2.920    -0.029    28.730     8.790
    69   1 H        0.926     0.030     2.589     2.516
    70   1 H        0.926     0.031     2.573     2.508
    71   1 H        0.926     0.029     2.599     2.521
    72   1 H        0.926     0.031     2.575     2.509
    73   1 H        0.926     0.031     2.578     2.511
    74   1 H        0.926     0.029     2.597     2.520
    75   1 H        0.926     0.031     2.578     2.511
    76   1 H        0.926     0.030     2.581     2.512
    77   1 H        0.926     0.031     2.566     2.505
    78   1 H        0.926     0.031     2.566     2.505
    79   1 H        0.926     0.030     2.579     2.511
    80   1 H        0.926     0.031     2.566     2.505
    81   1 H        0.926     0.028     2.614     2.528
    82   1 H        0.926     0.028     2.612     2.528
    83   1 H        0.926     0.030     2.589     2.516
    84   1 H        0.926     0.028     2.610     2.527
    85   1 H        0.926     0.031     2.579     2.511
    86   1 H        0.926     0.029     2.598     2.521
    87   1 H        0.926     0.034     2.534     2.489
    88   1 H        0.926     0.032     2.557     2.501
    89   1 H        0.926     0.031     2.568     2.506
    90   1 H        0.926     0.031     2.567     2.506
    91   1 H        0.926     0.030     2.585     2.514
    92   1 H        0.926     0.030     2.582     2.513
    93   1 H        0.926     0.030     2.593     2.518
    94   1 H        0.926     0.031     2.574     2.509
    95   1 H        0.926     0.031     2.567     2.506
    96   1 H        0.926     0.031     2.570     2.507
    97   1 H        0.926     0.031     2.575     2.509
    98   1 H        0.926     0.029     2.594     2.518
    99   1 H        0.926     0.031     2.575     2.509
   100   1 H        0.926     0.031     2.575     2.509
   101   1 H        0.926     0.032     2.552     2.498
   102   1 H        0.926     0.030     2.584     2.514
   103   1 H        0.926     0.031     2.577     2.511
   104   1 H        0.926     0.030     2.592     2.518
   105   1 H        0.926     0.030     2.589     2.516
   106   1 H        0.926     0.030     2.590     2.517
   107   1 H        0.926     0.028     2.614     2.528
   108   1 H        0.926     0.027     2.623     2.533
   109   1 H        0.926     0.031     2.572     2.508
   110   1 H        0.926     0.031     2.566     2.505
   111   1 H        0.926     0.032     2.564     2.504
   112   1 H        0.926     0.031     2.571     2.507

molecular dipole:
                 x           y           z       tot (Debye)
 q only:        0.020       0.009      -0.024
   full:        0.029       0.032      -0.024       0.126

 projected vibrational frequencies (cm⁻¹)
eigval :       -0.00    -0.00     0.00     0.00     0.00     0.00
eigval :       -3.09     6.26     7.60    12.10    13.62    15.91
eigval :       19.03    28.05    31.35    44.05    46.99    53.31
eigval :       56.67    60.43    62.17    63.92    67.86    74.93
eigval :       78.91    79.37    88.84    94.74    97.38   108.95
eigval :      113.14   125.05   142.33   150.44   175.82   194.39
eigval :      201.61   204.67   212.12   215.51   217.04   226.71
eigval :      233.55   234.93   239.79   243.68   258.83   263.02
eigval :      283.76   291.47   292.43   322.35   326.26   326.92
eigval :      330.20   357.01   365.15   373.42   377.95   378.21
eigval :      383.94   384.35   386.08   392.96   395.91   399.75
eigval :      405.11   410.34   418.14   430.69   432.67   446.04
eigval :      458.51   461.04   474.13   475.34   475.69   477.17
eigval :      488.72   491.00   498.18   505.35   511.78   521.06
eigval :      540.27   552.02   565.79   579.63   582.03   582.25
eigval :      584.39   589.72   591.14   593.34   599.80   600.31
eigval :      605.04   616.78   619.15   632.56   646.87   648.76
eigval :      652.70   657.78   660.54   661.02   662.38   665.90
eigval :      672.82   674.43   676.95   681.40   692.07   693.98
eigval :      699.37   728.31   738.60   746.19   749.15   756.18
eigval :      756.78   758.34   761.45   764.48   773.42   775.24
eigval :      795.94   797.84   802.55   806.87   823.71   845.20
eigval :      845.86   851.97   869.25   874.20   874.27   874.53
eigval :      876.28   876.46   887.77   888.07   890.86   891.01
eigval :      891.33   892.48   893.27   895.85   896.04   899.36
eigval :      910.28   910.45   913.24   915.60   916.28   917.95
eigval :      921.98   924.21   924.77   926.50   927.10   927.32
eigval :      927.42   928.22   928.60   928.81   929.33   929.61
eigval :      929.82   929.97   933.15   935.24   975.58   977.30
eigval :      992.30   996.68   999.29  1004.89  1005.16  1017.72
eigval :     1028.37  1079.81  1080.59  1083.10  1083.45  1084.25
eigval :     1084.46  1086.39  1111.05  1121.10  1121.98  1123.91
eigval :     1124.46  1128.75  1130.44  1135.31  1142.24  1152.62
eigval :     1165.69  1176.73  1178.82  1180.79  1180.87  1180.94
eigval :     1181.40  1181.98  1184.63  1187.15  1189.16  1189.79
eigval :     1194.85  1196.08  1197.26  1198.93  1202.44  1213.94
eigval :     1222.97  1227.52  1228.22  1238.96  1253.89  1258.69
eigval :     1260.29  1263.86  1267.25  1278.15  1278.25  1279.89
eigval :     1281.40  1287.82  1307.29  1310.90  1314.21  1315.25
eigval :     1316.73  1321.14  1322.12  1325.87  1327.01  1327.79
eigval :     1327.91  1331.74  1333.42  1350.23  1357.49  1377.22
eigval :     1379.66  1385.19  1385.48  1407.34  1415.28  1420.67
eigval :     1426.45  1429.03  1429.99  1437.60  1437.91  1443.37
eigval :     1445.18  1448.85  1452.47  1468.99  1469.90  1473.98
eigval :     1474.30  1477.77  1478.26  1487.13  1499.62  1504.55
eigval :     1527.18  1531.16  1533.35  1543.48  1563.27  1564.80
eigval :     1569.08  1570.53  1577.22  1577.26  1581.26  1581.44
eigval :     1587.28  1587.75  1595.63  1595.83  1600.81  1601.09
eigval :     1604.26  1607.55  1609.15  1623.49  3067.54  3067.65
eigval :     3070.29  3070.96  3072.95  3073.10  3074.11  3075.06
eigval :     3075.17  3075.58  3075.85  3076.17  3076.22  3076.48
eigval :     3076.63  3076.71  3078.79  3079.70  3080.78  3082.11
eigval :     3082.53  3083.30  3085.20  3085.39  3085.48  3085.93
eigval :     3086.15  3087.63  3087.66  3088.35  3088.49  3088.81
eigval :     3089.24  3089.28  3090.26  3091.39  3093.65  3094.62
eigval :     3094.78  3096.78  3096.96  3097.37  3097.60  3101.36

   temp. (K)  partition function   enthalpy   heat capacity  entropy
                                   cal/mol     cal/K/mol   cal/K/mol   J/K/mol
 298.15  VIB  0.950E+27            31933.264    201.410    202.756
         ROT  0.308E+09              888.752      2.981     41.824
         INT  0.293E+36            32822.017    204.391    244.580
         TR   0.246E+29             1481.254      4.968     46.129
         TOT                       34303.2705   209.3594   290.7090  1216.3265

       T/K    H(0)-H(T)+PV         H(T)/Eh          T*S/Eh         G(T)/Eh
   ------------------------------------------------------------------------
    298.15    0.546657E-01    0.924268E+00    0.138125E+00    0.786143E+00
   ------------------------------------------------------------------------

         :::::::::::::::::::::::::::::::::::::::::::::::::::::
         ::                  THERMODYNAMIC                  ::
         :::::::::::::::::::::::::::::::::::::::::::::::::::::
         :: total free energy        -168.882102261943 Eh   ::
         ::.................................................::
         :: total energy             -169.668245324922 Eh   ::
         :: zero point energy           0.869602558569 Eh   ::
         :: G(RRHO) w/o ZPVE           -0.083459495589 Eh   ::
         :: G(RRHO) contrib.            0.786143062980 Eh   ::
         :::::::::::::::::::::::::::::::::::::::::::::::::::::

           -------------------------------------------------
          | TOTAL ENERGY             -169.668245324922 Eh   |
          | TOTAL ENTHALPY           -168.743977025118 Eh   |
          | TOTAL FREE ENERGY        -168.882102261943 Eh   |
          | GRADIENT NORM               0.000042759390 Eh/α |
          | HOMO-LUMO GAP               1.910885994596 eV   |
           -------------------------------------------------

 * finished run on 2025/09/03 at 23:13:04.528
