   * xtb version 6.7.1 (edcfbbe) compiled by 'albert@albert-system' on 2024-07-22

   ID    Z sym.   atoms
    1    9 F      1, 3, 4
    2    6 C      2, 5-9, 11-15, 17-20, 22-35, 37-51
    3    7 N      10, 21, 36
    4    8 O      16
    5    1 H      52-85

          program call               : xtb data2507/gas/BICFOCz/BICFOCz.xyz --gfn 2 --ohess vtight --parallel 40 --molden --ceasefiles --namespace data2507/gas/BICFOCz/BICFOCz_gas_S0_preOpt
          :  Hamiltonian                  GFN2-xTB          :
 * total energy  :  -138.6462075 Eh     change       -0.2753637E-08 Eh
 * total energy  :  -138.6589253 Eh     change       -0.1271780E-01 Eh
 * total energy  :  -138.6618047 Eh     change       -0.2879382E-02 Eh
 * total energy  :  -138.6624863 Eh     change       -0.6816052E-03 Eh
 * total energy  :  -138.6631395 Eh     change       -0.6532011E-03 Eh
 * total energy  :  -138.6636262 Eh     change       -0.4866974E-03 Eh
 * total energy  :  -138.6641236 Eh     change       -0.4974500E-03 Eh
 * total energy  :  -138.6646090 Eh     change       -0.4853968E-03 Eh
 * total energy  :  -138.6649334 Eh     change       -0.3243238E-03 Eh
 * total energy  :  -138.6651433 Eh     change       -0.2099629E-03 Eh
 * total energy  :  -138.6664526 Eh     change       -0.1288164E-05 Eh
 * total energy  :  -138.6664543 Eh     change       -0.1667840E-05 Eh
 * total energy  :  -138.6664563 Eh     change       -0.1994739E-05 Eh
 * total energy  :  -138.6664580 Eh     change       -0.1738636E-05 Eh
 * total energy  :  -138.6664592 Eh     change       -0.1203842E-05 Eh
 * total energy  :  -138.6664602 Eh     change       -0.9769322E-06 Eh
 * total energy  :  -138.6664611 Eh     change       -0.9162460E-06 Eh
 * total energy  :  -138.6664622 Eh     change       -0.1105376E-05 Eh
 * total energy  :  -138.6664622 Eh     change       -0.8009152E-08 Eh
   *** GEOMETRY OPTIMIZATION CONVERGED AFTER 94 ITERATIONS ***

 final structure:
================
85
 xtb: 6.7.1 (edcfbbe)
F           -8.09987951338665        3.79201176681231       -0.48027060683744
C           -6.95648643988761        4.01083542905134       -1.16052058550605
F           -7.11228225552829        3.41580850646370       -2.35251610773271
F           -6.90978479924842        5.33056904893023       -1.39533312126699
C           -5.75807414192274        3.50624441679158       -0.40833717964332
C           -5.07765217128890        4.34896554853168        0.45983583482279
C           -4.00220820795807        3.85286720243334        1.17788858018569
C           -3.62356641928381        2.53018790938535        1.04923401392284
C           -4.31119691081634        1.68872668742200        0.17708407518332
N           -3.95181298802996        0.34163515318272        0.07036806704494
C           -2.69340897179367       -0.18852161347937       -0.10165497714779
C           -1.48510865157581        0.58177731171094       -0.33531454625111
C           -1.48073772306221        1.78060289863622       -1.05035528615045
C           -0.30282332058893        2.45962859450852       -1.26250734804685
C            0.90992479497840        1.96385083640001       -0.77676016539106
O            1.99706512614718        2.74044339016615       -1.02813425720480
C            3.28418128930480        2.28769422351474       -0.66484263790745
C            3.82447251086580        1.23368452922818       -1.63616232351263
C            5.26366896373829        0.83185599657543       -1.32532013459257
C            5.38922515816813       -0.01717297757014       -0.05304991965599
N            6.75701032706870       -0.36777979071612        0.20708813119360
C            7.41213753413077       -1.47875764831886       -0.27106830594897
C            6.92692018231344       -2.54114663283748       -1.02088538570743
C            7.80798429569012       -3.55042088388023       -1.35839268313996
C            9.14399882306430       -3.51194861900875       -0.96571224386780
C            9.63523670807972       -2.45695624881116       -0.22330743240958
C            8.76923468561899       -1.43009621810186        0.12829538732192
C            8.93117693799439       -0.20917408949242        0.86540183874807
C           10.01213492856521        0.39289383331491        1.49547359791503
C            9.82046312904759        1.60796571283040        2.12209522717224
C            8.57073349253413        2.22334724188819        2.12466043469158
C            7.47997196489426        1.64426467004726        1.50511031982047
C            7.66380139692405        0.42055979008047        0.87631473356262
C            0.91220195414250        0.75619866747280       -0.08342575533663
C           -0.27248842192379        0.07823636708907        0.12750277608457
N           -2.73142041444281       -1.49408452234258       -0.08390568198558
C           -4.03224294733304       -1.86082127926482        0.09992665444962
C           -4.39744381802528       -3.26538318596093        0.20343355944455
C           -5.54066409299360       -3.68453134395726        0.88104235666997
C           -5.84898895671387       -5.02961902811278        0.95807027890196
C           -5.02212379585423       -5.97293034296308        0.37037528167030
C           -3.87407313861170       -5.56465719731583       -0.28913599796548
C           -3.56129769325678       -4.22197555327819       -0.37097700818279
C           -4.82050859126632       -0.72821912581953        0.18662531410784
C           -6.25830363848648       -0.55446264427633        0.35524268309162
C           -7.14125476117020       -1.21816496996453       -0.49556742067607
C           -8.50435832939107       -1.03529623447500       -0.36474723191847
C           -9.00431027390923       -0.18778031963149        0.61099044132759
C           -8.13443090646095        0.46750208876975        1.46589314034480
C           -6.76942927272430        0.28662065902427        1.34231380605997
C           -5.38161878809269        2.18131915560390       -0.56242179819260
H           -5.38536689915518        5.37712617238740        0.56671519650884
H           -3.46532797447299        4.50010003356774        1.85336842351392
H           -2.79674394396965        2.13769163788014        1.62150591619995
H           -2.39711506676545        2.17351514864846       -1.46478402914628
H           -0.28948603662139        3.38583134717395       -1.81477026674426
H            3.28208377548620        1.91964394557164        0.36767320658130
H            3.91167299986389        3.18274630730428       -0.71048086277258
H            3.18072402740130        0.35173555594623       -1.61958326567710
H            3.77623100256671        1.65589009020105       -2.64184752382056
H            5.66235380164981        0.25338521666891       -2.16136267737504
H            5.88179374020493        1.72587993157671       -1.21693031249139
H            4.80567291461488       -0.93601838831701       -0.15943388106267
H            5.00821944044139        0.53111266605261        0.81253299852346
H            5.89559699024092       -2.58617307665710       -1.33791607141293
H            7.45330560771852       -4.38746929062305       -1.94177934198533
H            9.80069103387905       -4.32051726665563       -1.25034901413589
H           10.67109036560517       -2.42591356066342        0.07939185819283
H           10.98136532653390       -0.08261472753216        1.49174043307197
H           10.64809737307782        2.09377817693125        2.61713986724220
H            8.45242990341817        3.17588878900101        2.62026475103123
H            6.51927574783869        2.13796872477829        1.51298229421461
H            1.82635553164289        0.33190735951316        0.30087326706747
H           -0.27394921405430       -0.86098544200444        0.65811663658193
H           -6.18106200671209       -2.95806262914391        1.35851137409071
H           -6.73831787154044       -5.34442990120186        1.48491251961740
H           -5.26879415231883       -7.02278587081510        0.43247527166707
H           -3.22167440727016       -6.29786706730261       -0.74110702498871
H           -2.66934092072818       -3.88763250942499       -0.87770017675022
H           -6.74613566615599       -1.87299556788452       -1.25840191320002
H           -9.17964714286249       -1.55067331375503       -1.03142840199032
H          -10.06925382373235       -0.03977224824462        0.70620402525347
H           -8.51965773364575        1.12382792583206        2.23185949283237
H           -6.09531882268327        0.78901834465998        2.02212915278025
H           -5.91133574766353        1.54046832020612       -1.25016031299647

          :  Hamiltonian                  GFN2-xTB          :
         :: gradient norm              0.000065217114 Eh/a0 ::
         :: HOMO-LUMO gap              2.346018557452 eV    ::
         :: SCC energy              -140.883403986507 Eh    ::
         :: -> dispersion             -0.111517228856 Eh    ::
         :: repulsion energy           2.216941762087 Eh    ::

    * Orbital Energies and Occupations

         #    Occupation            Energy/Eh            Energy/eV
      -------------------------------------------------------------
         1        2.0000           -0.8808199             -23.9683
       ...           ...                  ...                  ...
       114        2.0000           -0.4178011             -11.3689
       115        2.0000           -0.4176529             -11.3649
       116        2.0000           -0.4166924             -11.3388
       117        2.0000           -0.4164370             -11.3318
       118        2.0000           -0.4118857             -11.2080
       119        2.0000           -0.4047550             -11.0139
       120        2.0000           -0.4034016             -10.9771
       121        2.0000           -0.3985216             -10.8443
       122        2.0000           -0.3904484             -10.6246
       123        2.0000           -0.3814459             -10.3797
       124        2.0000           -0.3764429             -10.2435
       125        2.0000           -0.3649423              -9.9306
       126        2.0000           -0.3622156              -9.8564 (HOMO)
       127                         -0.2760010              -7.5104 (LUMO)
       128                         -0.2697892              -7.3413
       129                         -0.2500485              -6.8042
       130                         -0.2432663              -6.6196
       131                         -0.2429973              -6.6123
       132                         -0.2349845              -6.3943
       133                         -0.2303786              -6.2689
       134                         -0.2205927              -6.0026
       135                         -0.2199570              -5.9853
       136                         -0.2161238              -5.8810
       137                         -0.1927314              -5.2445
       ...                                ...                  ...
       238                          0.7489473              20.3799
      -------------------------------------------------------------
                  HL-Gap            0.0862146 Eh            2.3460 eV

     #   Z          covCN         q      C6AA      α(0)
     1   9 F        0.791    -0.209    11.333     3.977
     2   6 C        3.337     0.486    17.272     6.580
     3   9 F        0.791    -0.205    11.291     3.969
     4   9 F        0.791    -0.205    11.283     3.968
     5   6 C        2.977    -0.023    28.562     8.766
     6   6 C        2.920    -0.026    28.664     8.780
     7   6 C        2.921    -0.021    28.542     8.761
     8   6 C        2.921    -0.033    28.824     8.804
     9   6 C        2.914     0.078    26.265     8.404
    10   7 N        2.851    -0.037    21.962     6.960
    11   6 C        3.149     0.122    25.077     8.191
    12   6 C        2.973    -0.010    28.264     8.721
    13   6 C        2.921    -0.035    28.866     8.811
    14   6 C        2.920    -0.055    29.361     8.886
    15   6 C        2.861     0.146    24.813     8.165
    16   8 O        1.706    -0.272    18.509     5.809
    17   6 C        3.691     0.077    19.474     6.315
    18   6 C        3.800    -0.070    21.838     6.654
    19   6 C        3.802    -0.067    21.783     6.645
    20   6 C        3.740     0.001    20.638     6.482
    21   7 N        2.798    -0.054    22.280     7.010
    22   6 C        3.080     0.044    26.931     8.508
    23   6 C        2.910    -0.054    29.329     8.880
    24   6 C        2.924    -0.034    28.843     8.807
    25   6 C        2.920    -0.042    29.045     8.838
    26   6 C        2.912    -0.033    28.813     8.802
    27   6 C        3.070    -0.019    28.398     8.738
    28   6 C        3.070    -0.018    28.394     8.737
    29   6 C        2.912    -0.033    28.812     8.802
    30   6 C        2.920    -0.042    29.049     8.838
    31   6 C        2.924    -0.034    28.854     8.809
    32   6 C        2.910    -0.054    29.340     8.882
    33   6 C        3.081     0.043    26.940     8.509
    34   6 C        2.916    -0.065    29.619     8.924
    35   6 C        2.929    -0.031    28.765     8.796
    36   7 N        1.913    -0.285    28.225     7.877
    37   6 C        3.162     0.053    26.484     8.412
    38   6 C        2.974     0.010    27.781     8.646
    39   6 C        2.923    -0.037    28.922     8.819
    40   6 C        2.919    -0.030    28.746     8.792
    41   6 C        2.920    -0.031    28.785     8.798
    42   6 C        2.918    -0.029    28.736     8.791
    43   6 C        2.927    -0.030    28.747     8.793
    44   6 C        3.063     0.013    27.668     8.626
    45   6 C        2.972     0.006    27.874     8.660
    46   6 C        2.925    -0.032    28.801     8.801
    47   6 C        2.919    -0.027    28.668     8.780
    48   6 C        2.920    -0.028    28.701     8.785
    49   6 C        2.919    -0.028    28.697     8.785
    50   6 C        2.924    -0.036    28.890     8.814
    51   6 C        2.924    -0.034    28.849     8.808
    52   1 H        0.926     0.065     2.145     2.290
    53   1 H        0.926     0.059     2.212     2.326
    54   1 H        0.926     0.057     2.231     2.336
    55   1 H        0.926     0.031     2.575     2.509
    56   1 H        0.926     0.051     2.312     2.378
    57   1 H        0.924     0.030     2.592     2.518
    58   1 H        0.924     0.054     2.272     2.357
    59   1 H        0.924     0.045     2.381     2.413
    60   1 H        0.924     0.052     2.294     2.369
    61   1 H        0.924     0.049     2.338     2.391
    62   1 H        0.924     0.044     2.400     2.423
    63   1 H        0.924     0.050     2.324     2.384
    64   1 H        0.924     0.044     2.393     2.419
    65   1 H        0.926     0.023     2.694     2.567
    66   1 H        0.926     0.028     2.614     2.528
    67   1 H        0.926     0.027     2.629     2.535
    68   1 H        0.926     0.030     2.584     2.514
    69   1 H        0.926     0.030     2.581     2.512
    70   1 H        0.926     0.027     2.631     2.537
    71   1 H        0.926     0.027     2.629     2.536
    72   1 H        0.926     0.020     2.739     2.588
    73   1 H        0.926     0.039     2.465     2.455
    74   1 H        0.926     0.056     2.240     2.341
    75   1 H        0.926     0.026     2.638     2.540
    76   1 H        0.926     0.028     2.618     2.530
    77   1 H        0.926     0.029     2.606     2.525
    78   1 H        0.926     0.030     2.585     2.514
    79   1 H        0.926     0.050     2.318     2.381
    80   1 H        0.926     0.035     2.512     2.479
    81   1 H        0.926     0.036     2.501     2.473
    82   1 H        0.926     0.036     2.497     2.471
    83   1 H        0.926     0.034     2.530     2.487
    84   1 H        0.926     0.021     2.719     2.579
    85   1 H        0.926     0.066     2.135     2.285

molecular dipole:
                 x           y           z       tot (Debye)
 q only:        0.873       0.084       0.622
   full:        0.507       0.396       0.728       2.469

 projected vibrational frequencies (cm⁻¹)
eigval :       -0.00    -0.00     0.00     0.00     0.00     0.00
eigval :        4.91     5.66     7.90    16.14    17.09    18.71
eigval :       20.60    29.75    34.03    34.12    37.29    46.91
eigval :       55.64    62.84    73.69    79.55    95.63   100.41
eigval :      102.27   112.77   127.66   138.91   148.99   157.40
eigval :      171.59   192.40   205.32   210.54   226.87   230.66
eigval :      236.18   247.89   254.51   264.16   272.31   279.33
eigval :      285.94   298.69   306.44   326.04   332.17   343.14
eigval :      351.29   371.09   375.67   384.69   388.64   390.86
eigval :      395.63   416.55   425.56   427.20   435.75   457.67
eigval :      466.80   480.08   481.07   503.58   519.13   526.33
eigval :      528.58   530.57   541.87   554.21   558.77   581.20
eigval :      586.37   590.83   592.40   600.53   605.19   612.74
eigval :      623.97   638.23   643.69   656.20   664.71   668.25
eigval :      673.74   676.16   684.05   688.71   693.84   709.39
eigval :      732.18   745.54   762.44   763.90   765.13   765.55
eigval :      776.73   780.37   791.78   801.99   810.49   813.02
eigval :      830.52   861.61   864.34   864.88   869.52   878.13
eigval :      878.43   883.96   899.42   900.44   901.36   902.66
eigval :      903.98   908.83   919.64   920.32   922.50   928.98
eigval :      929.84   930.12   931.76   932.36   942.55   949.64
eigval :      953.66   962.48   974.73   991.86  1002.63  1017.63
eigval :     1031.73  1035.57  1055.56  1066.03  1066.79  1071.70
eigval :     1075.41  1081.64  1083.69  1086.86  1087.80  1108.89
eigval :     1110.47  1119.07  1120.90  1125.31  1132.34  1138.62
eigval :     1155.60  1159.91  1162.86  1172.14  1181.30  1181.75
eigval :     1184.23  1184.81  1185.91  1187.35  1194.95  1200.83
eigval :     1206.87  1214.40  1232.79  1239.63  1239.86  1249.32
eigval :     1262.92  1264.02  1270.98  1272.29  1274.16  1281.99
eigval :     1285.89  1297.49  1299.36  1307.60  1314.86  1321.18
eigval :     1321.94  1328.14  1328.56  1337.23  1352.32  1354.87
eigval :     1359.04  1360.79  1365.98  1377.26  1391.84  1413.61
eigval :     1428.98  1429.82  1434.19  1439.19  1442.66  1453.25
eigval :     1465.89  1469.01  1476.91  1478.17  1485.27  1487.38
eigval :     1488.34  1489.91  1492.11  1545.01  1562.79  1566.79
eigval :     1575.57  1578.09  1579.69  1582.57  1591.12  1592.62
eigval :     1597.17  1599.83  1602.08  1602.55  1618.89  2912.86
eigval :     2956.07  2961.24  2967.50  2977.15  2983.25  2993.95
eigval :     2997.78  3069.58  3070.31  3070.53  3073.30  3074.85
eigval :     3078.23  3079.32  3079.74  3084.80  3085.43  3086.09
eigval :     3086.49  3086.86  3091.01  3093.92  3094.11  3096.07
eigval :     3096.14  3096.62  3099.68  3104.28  3104.65  3107.77
eigval :     3108.81  3109.62  3112.99

   temp. (K)  partition function   enthalpy   heat capacity  entropy
                                   cal/mol     cal/K/mol   cal/K/mol   J/K/mol
 298.15  VIB  0.569E+23            25377.909    152.388    162.745
         ROT  0.162E+09              888.752      2.981     40.541
         INT  0.919E+31            26266.661    155.369    203.286
         TR   0.171E+29             1481.254      4.968     45.401
         TOT                       27747.9150   160.3374   248.6873  1040.5078

       T/K    H(0)-H(T)+PV         H(T)/Eh          T*S/Eh         G(T)/Eh
   ------------------------------------------------------------------------
    298.15    0.442191E-01    0.697841E+00    0.118159E+00    0.579681E+00
   ------------------------------------------------------------------------

         :::::::::::::::::::::::::::::::::::::::::::::::::::::
         ::                  THERMODYNAMIC                  ::
         :::::::::::::::::::::::::::::::::::::::::::::::::::::
         :: total free energy        -138.086780740687 Eh   ::
         ::.................................................::
         :: total energy             -138.666462224449 Eh   ::
         :: zero point energy           0.653621745180 Eh   ::
         :: G(RRHO) w/o ZPVE           -0.073940261418 Eh   ::
         :: G(RRHO) contrib.            0.579681483762 Eh   ::
         :::::::::::::::::::::::::::::::::::::::::::::::::::::

           -------------------------------------------------
          | TOTAL ENERGY             -138.666462224449 Eh   |
          | TOTAL ENTHALPY           -137.968621362028 Eh   |
          | TOTAL FREE ENERGY        -138.086780740687 Eh   |
          | GRADIENT NORM               0.000065217251 Eh/α |
          | HOMO-LUMO GAP               2.346018157934 eV   |
           -------------------------------------------------

 * finished run on 2025/09/13 at 03:46:15.103
