   * xtb version 6.7.1 (edcfbbe) compiled by 'albert@albert-system' on 2024-07-22

   ID    Z sym.   atoms
    1    9 F      1, 3, 4
    2    6 C      2, 5-9, 11-15, 17-20, 22-35, 37-51
    3    7 N      10, 21, 36
    4    8 O      16
    5    1 H      52-85

          program call               : xtb data2507/gas/BICFOCz/BICFOCz_gas_T1_crest.xyz --gfn 2 --spinpol --tblite --uhf 2 --ohess vtight --parallel 40 --molden --ceasefiles --namespace data2507/gas/BICFOCz/BICFOCz_gas_T1_finalOpt
 * total energy  :  -138.5943425 Eh     change       -0.1096714E-07 Eh
 * total energy  :  -138.5943589 Eh     change       -0.1634048E-04 Eh
 * total energy  :  -138.5943656 Eh     change       -0.6698639E-05 Eh
 * total energy  :  -138.5943666 Eh     change       -0.1073177E-05 Eh
 * total energy  :  -138.5943681 Eh     change       -0.1434315E-05 Eh
 * total energy  :  -138.5943692 Eh     change       -0.1169069E-05 Eh
 * total energy  :  -138.5943704 Eh     change       -0.1143784E-05 Eh
 * total energy  :  -138.5943715 Eh     change       -0.1061016E-05 Eh
 * total energy  :  -138.5943722 Eh     change       -0.7679137E-06 Eh
 * total energy  :  -138.5943728 Eh     change       -0.5895960E-06 Eh
 * total energy  :  -138.5943746 Eh     change       -0.2298320E-06 Eh
 * total energy  :  -138.5943749 Eh     change       -0.2637420E-06 Eh
 * total energy  :  -138.5943750 Eh     change       -0.1502030E-06 Eh
 * total energy  :  -138.5943752 Eh     change       -0.1801893E-06 Eh
 * total energy  :  -138.5943753 Eh     change       -0.1145364E-06 Eh
 * total energy  :  -138.5943754 Eh     change       -0.1531324E-06 Eh
 * total energy  :  -138.5943756 Eh     change       -0.1724572E-06 Eh
 * total energy  :  -138.5943756 Eh     change        0.1952142E-07 Eh
 * total energy  :  -138.5943756 Eh     change       -0.1846826E-07 Eh
   *** GEOMETRY OPTIMIZATION CONVERGED AFTER 23 ITERATIONS ***

 final structure:
================
85
 xtb: 6.7.1 (edcfbbe)
F           -2.45934181241618        3.83127672704651       -1.64804171894946
C           -2.28035728252559        4.37701535766404       -0.43596932799705
F           -1.43846307502596        5.41321811458473       -0.61086320737861
F           -3.46601896276725        4.92302215237359       -0.09357580171214
C           -1.78721268165726        3.40510899262420        0.59271745397704
C           -1.31929231640780        3.90325922746434        1.80809856262860
C           -0.86441728908347        3.00821924054345        2.76794810368339
C           -0.87685161086595        1.65233448508807        2.52785351433685
C           -1.34772846163762        1.15139231036716        1.30165835592276
N           -1.37773320830295       -0.21208350569174        1.06689566635184
C           -0.32668785550498       -1.14374739885356        1.26288998249270
C            1.02329429872306       -0.90630871705847        1.56059058915529
C            1.66669478262347        0.35982401051477        1.59964393525462
C            3.01144958000751        0.45456027771940        1.83166778412405
C            3.80365899664666       -0.68727464759403        2.01405350850933
O            5.13652435626103       -0.48025174507811        2.20698734532818
C            6.03538074221667       -1.48484425641292        1.78055197252228
C            5.90470143927209       -1.73742922070876        0.27585819409877
C            6.20048341961918       -0.46408609273140       -0.51929181311409
C            5.42912316439680       -0.40724409040228       -1.84403811807441
N            4.03486163607017       -0.10528956090387       -1.65549472199175
C            2.97386898935746       -0.97535087313556       -1.75653117391081
C            2.95934138071812       -2.34884930075443       -1.95952379148042
C            1.73304137889412       -2.98005738233537       -2.04635655939558
C            0.53876258286055       -2.27152840159816       -1.94907968067544
C            0.54327140278592       -0.90738702193947       -1.73832225118684
C            1.76209304974448       -0.25378945903633       -1.62963095121063
C            2.12618764855236        1.11764479800380       -1.42128245623494
C            1.39453235478715        2.28140833717382       -1.22829231792156
C            2.07363079887760        3.46842904437441       -1.04224045840476
C            3.46625153234909        3.50376210739095       -1.06309932025380
C            4.21636982681762        2.36074704884469       -1.26675330601403
C            3.53949004912064        1.16143556920901       -1.44166486719922
C            3.18644254451509       -1.94867333341423        1.97865760697215
C            1.84284545032402       -2.05280752325787        1.76165120905373
N           -0.76488748778819       -2.38571850329867        0.97729802194492
C           -1.99501646803714       -2.30127572735898        0.51747279876467
C           -2.73841780789043       -3.49717782447605        0.18710220810548
C           -2.02663805036547       -4.62950127891007       -0.22556224583375
C           -2.68876035785837       -5.79704286996086       -0.54075343876376
C           -4.07088458697289       -5.86493416434265       -0.43487496258079
C           -4.78195449662283       -4.76005473369987        0.00666367428668
C           -4.12781673794112       -3.58443573796061        0.31863485732549
C           -2.43384923270944       -0.92161782747389        0.51639781181918
C           -3.68361047141150       -0.37626889716153        0.10691915088635
C           -4.32638038445570       -0.89114152780769       -1.04014596474805
C           -5.52315138350453       -0.36759049949186       -1.46980960007976
C           -6.12830212103578        0.67413633630087       -0.77546534298980
C           -5.51918169192140        1.18103381442157        0.36665802085420
C           -4.31697951329333        0.67519872930887        0.80385073953343
C           -1.81213740078371        2.05009915565325        0.33168057658159
H           -1.31410945832208        4.96540566794673        1.99060143659355
H           -0.50746537488256        3.38010525100326        3.71585466285494
H           -0.53682631652950        0.95706653650330        3.28039265514492
H            1.11736068622481        1.26101587376593        1.39355293489616
H            3.49559514880072        1.41890691122071        1.84128484695968
H            5.88911880916108       -2.41497857911079        2.34319511539929
H            7.02499267024555       -1.08771297578595        2.02074488112261
H            6.57937044357831       -2.54387147019947       -0.01426741794288
H            4.88040346662743       -2.05695693798200        0.07434952192726
H            5.90899502231413        0.39995756174413        0.08078731704777
H            7.27003929893412       -0.38900025442115       -0.72198173790131
H            5.51375331299453       -1.36063868022549       -2.37066178390376
H            5.86344592887779        0.37110102786538       -2.48121959822371
H            3.87246754669525       -2.91832114145287       -2.05605125642210
H            1.70138099986669       -4.04805424289356       -2.20501109121262
H           -0.39864010165406       -2.79842317754372       -2.04339652259609
H           -0.38057869930620       -0.35190472520336       -1.67510499025364
H            0.31569824737177        2.25471406453097       -1.22474859954221
H            1.52162400364148        4.38296931030795       -0.88446905211669
H            3.97160452556080        4.44758273022221       -0.91989716414627
H            5.29478343634443        2.41054932060511       -1.28724435750112
H            3.76647137097168       -2.84545970446447        2.13536182272209
H            1.36237088385175       -3.01693196409798        1.73632455394705
H           -0.95231442655969       -4.55950497022122       -0.29684890788880
H           -2.13068158310384       -6.66099621343486       -0.87113916503305
H           -4.58983946011905       -6.77850268657817       -0.68442917389275
H           -5.85527653594526       -4.81749618475860        0.11411370986972
H           -4.68815119196082       -2.74158369643893        0.69268139798882
H           -3.84456637519743       -1.67799854560701       -1.60111035244394
H           -5.98955903482707       -0.76272101675106       -2.36036642686691
H           -7.06451630997990        1.08552396715483       -1.11952388685279
H           -5.99329691380740        1.97842374624184        0.91974898637085
H           -3.87770535439604        1.05077945434575        1.71560194337662
H           -2.17042049582486        1.68500974498295       -0.61837363649044

 projected vibrational frequencies (cm⁻¹)
eigval :       -0.00    -0.00    -0.00    -0.00     0.00     0.00
eigval :       14.32    16.37    17.71    22.48    25.05    28.07
eigval :       29.89    34.15    42.28    49.54    56.80    60.48
eigval :       64.13    80.29    87.69    92.51   102.48   109.75
eigval :      120.07   125.72   146.53   156.90   158.65   161.98
eigval :      173.94   189.35   203.83   211.50   220.45   229.38
eigval :      236.31   246.04   256.29   264.74   272.57   280.35
eigval :      298.38   308.57   314.79   326.01   334.46   341.29
eigval :      359.12   373.47   381.74   383.76   388.70   393.80
eigval :      400.52   417.21   427.23   430.24   433.91   447.06
eigval :      458.63   468.01   472.94   485.21   486.42   519.57
eigval :      525.97   527.83   542.43   546.12   555.69   573.26
eigval :      577.13   581.63   585.14   586.76   592.56   594.13
eigval :      606.50   610.41   632.29   642.18   645.42   655.51
eigval :      663.15   667.99   672.63   673.45   683.06   708.33
eigval :      720.69   733.62   746.68   758.67   760.87   767.56
eigval :      770.20   778.93   780.72   795.81   797.78   810.61
eigval :      824.92   841.28   855.99   863.95   865.97   868.20
eigval :      873.71   880.87   884.67   887.23   900.67   902.04
eigval :      902.38   904.31   908.42   919.60   921.31   921.94
eigval :      922.16   923.02   924.56   929.42   931.22   932.80
eigval :      941.38   961.18   970.12   977.23   985.85   996.11
eigval :     1005.93  1024.45  1026.85  1052.20  1063.52  1066.77
eigval :     1071.46  1073.43  1076.19  1079.09  1082.34  1085.68
eigval :     1091.45  1104.28  1116.96  1117.88  1121.34  1128.63
eigval :     1137.39  1153.10  1158.72  1162.26  1163.24  1171.80
eigval :     1177.64  1179.93  1182.48  1182.59  1185.88  1191.73
eigval :     1197.77  1200.15  1211.76  1225.98  1233.53  1234.65
eigval :     1239.98  1247.54  1261.84  1264.10  1273.35  1274.75
eigval :     1276.68  1286.40  1301.05  1307.74  1317.92  1319.92
eigval :     1325.21  1326.00  1328.25  1330.53  1334.74  1340.41
eigval :     1351.12  1364.23  1366.99  1375.04  1378.31  1397.86
eigval :     1406.31  1411.79  1423.67  1427.31  1428.70  1430.73
eigval :     1439.53  1444.30  1457.50  1462.55  1470.77  1471.73
eigval :     1476.31  1478.88  1480.88  1482.17  1489.68  1495.13
eigval :     1516.67  1536.74  1555.69  1562.07  1562.96  1574.07
eigval :     1581.51  1590.39  1598.36  1599.37  1616.66  2906.18
eigval :     2934.38  2973.92  2976.95  2982.87  2993.96  2996.70
eigval :     3002.77  3068.15  3075.04  3075.68  3077.01  3078.70
eigval :     3079.36  3079.55  3082.94  3083.55  3088.60  3089.62
eigval :     3090.02  3090.77  3091.05  3093.15  3095.79  3098.99
eigval :     3099.56  3100.28  3100.59  3101.04  3103.30  3104.63
eigval :     3115.02  3119.41  3143.40

   temp. (K)  partition function   enthalpy   heat capacity  entropy
                                   cal/mol     cal/K/mol   cal/K/mol   J/K/mol
 298.15  VIB  0.771E+20            25205.467    155.828    157.027
         ROT  0.667E+08              888.752      2.981     38.781
         INT  0.514E+28            26094.220    158.809    195.809
         TR   0.171E+29             1481.254      4.968     45.401
         TOT                       27575.4737   163.7768   241.2103  1009.2238

       T/K    H(0)-H(T)+PV         H(T)/Eh          T*S/Eh         G(T)/Eh
   ------------------------------------------------------------------------
    298.15    0.439443E-01    0.694198E+00    0.114607E+00    0.579591E+00
   ------------------------------------------------------------------------

         :::::::::::::::::::::::::::::::::::::::::::::::::::::
         ::                  THERMODYNAMIC                  ::
         :::::::::::::::::::::::::::::::::::::::::::::::::::::
         :: total free energy        -138.014784686819 Eh   ::
         ::.................................................::
         :: total energy             -138.594375609332 Eh   ::
         :: zero point energy           0.650253391535 Eh   ::
         :: G(RRHO) w/o ZPVE           -0.070662469021 Eh   ::
         :: G(RRHO) contrib.            0.579590922513 Eh   ::
         :::::::::::::::::::::::::::::::::::::::::::::::::::::

           -------------------------------------------------
          | TOTAL ENERGY             -138.594375609332 Eh   |
          | TOTAL ENTHALPY           -137.900177903225 Eh   |
          | TOTAL FREE ENERGY        -138.014784686819 Eh   |
          | GRADIENT NORM               0.000122903096 Eh/α |
           -------------------------------------------------

 * finished run on 2025/09/13 at 04:24:26.397
