   * xtb version 6.7.1 (edcfbbe) compiled by 'albert@albert-system' on 2024-07-22

   ID    Z sym.   atoms
    1    9 F      1, 3, 4
    2    6 C      2, 5-9, 11-15, 17-20, 22-35, 37-51
    3    7 N      10, 21, 36
    4    8 O      16
    5    1 H      52-85

          program call               : xtb data2507/gas/BICFOCz/BICFOCz_gas_S0_finalOpt.xtbopt.xyz --gfn 2 --spinpol --tblite --uhf 2 --ohess vtight --parallel 40 --molden --ceasefiles --namespace data2507/gas/BICFOCz/BICFOCz_gas_T1_preOpt
 * total energy  :  -138.5823671 Eh     change        0.1758946E-07 Eh
 * total energy  :  -138.5892882 Eh     change       -0.6921056E-02 Eh
 * total energy  :  -138.5918980 Eh     change       -0.2609797E-02 Eh
 * total energy  :  -138.5924034 Eh     change       -0.5054162E-03 Eh
 * total energy  :  -138.5929303 Eh     change       -0.5268437E-03 Eh
 * total energy  :  -138.5932155 Eh     change       -0.2852704E-03 Eh
 * total energy  :  -138.5934419 Eh     change       -0.2263898E-03 Eh
 * total energy  :  -138.5936469 Eh     change       -0.2050209E-03 Eh
 * total energy  :  -138.5938196 Eh     change       -0.1726218E-03 Eh
 * total energy  :  -138.5939503 Eh     change       -0.1307298E-03 Eh
 * total energy  :  -138.5943749 Eh     change       -0.2872737E-06 Eh
 * total energy  :  -138.5943751 Eh     change       -0.2476755E-06 Eh
 * total energy  :  -138.5943753 Eh     change       -0.1796178E-06 Eh
 * total energy  :  -138.5943755 Eh     change       -0.2135593E-06 Eh
 * total energy  :  -138.5943757 Eh     change       -0.2338656E-06 Eh
 * total energy  :  -138.5943759 Eh     change       -0.1368061E-06 Eh
 * total energy  :  -138.5943761 Eh     change       -0.2428496E-06 Eh
 * total energy  :  -138.5943763 Eh     change       -0.1651548E-06 Eh
 * total energy  :  -138.5943763 Eh     change       -0.1749669E-07 Eh
   *** GEOMETRY OPTIMIZATION CONVERGED AFTER 59 ITERATIONS ***

 final structure:
================
85
 xtb: 6.7.1 (edcfbbe)
F           -1.44212724570562        5.42633556934172       -0.64762968645316
C           -2.27820405882828        4.38353710985820       -0.48534407144889
F           -3.47495003353331        4.92027781383118       -0.16747072295016
F           -2.42941839635499        3.83236341847263       -1.69880224839977
C           -1.79677056958754        3.41883282904827        0.55561243349330
C           -1.34473685403112        3.92446950980772        1.77386561197040
C           -0.90193430264703        3.03538308692255        2.74484314445912
C           -0.91084953003130        1.67804677631487        2.51283913905143
C           -1.36557666785332        1.16956173792491        1.28368228738311
N           -1.39268725556847       -0.19533090861068        1.05670615925397
C           -0.34424453403381       -1.12601822613002        1.27010215515500
C            1.00156755952695       -0.88738002261647        1.58517299652580
C            1.64441728335773        0.37891773592994        1.62789470054337
C            2.98577363764497        0.47468017905259        1.87848354032083
C            3.77529719209715       -0.66634366496434        2.07665157193278
O            5.10543001387702       -0.45855053837225        2.28731386349659
C            6.01006935362099       -1.46409834430151        1.87558500356257
C            5.89841591927492       -1.72191743115954        0.37025286620254
C            6.20294800378307       -0.45107729594504       -0.42554122286521
C            5.44953089172663       -0.40055002734046       -1.76084157573531
N            4.05307948976292       -0.09673721604370       -1.59251283805776
C            2.99267208724550       -0.96621376440643       -1.70408034108545
C            2.97943408565161       -2.34061852104786       -1.90096897009979
C            1.75377076063960       -2.97098169827284       -2.00172518506769
C            0.55902617116285       -2.26080852076034       -1.92419850986042
C            0.56210670475171       -0.89574141984621       -1.71945090110859
C            1.78002947644972       -0.24291061350339       -1.59682843857255
C            2.14267922994298        1.12901202460855       -1.38917850577852
C            1.40970063407477        2.29423186554723       -1.21051338148396
C            2.08747473778445        3.48124176756172       -1.01965688691859
C            3.48028808922990        3.51515735284959       -1.02196064165751
C            4.23188188626875        2.37066446317549       -1.21129287393070
C            3.55616714660885        1.17133094906488       -1.39059668501914
C            3.15866045722789       -1.92791447499070        2.03765402094330
C            1.81822247927232       -2.03300775323390        1.80224686964922
N           -0.77875610546900       -2.36918790341802        0.98414684804328
C           -2.00297553754477       -2.28689257065475        0.50849716459216
C           -2.74208584952444       -3.48427819846624        0.17395930483977
C           -2.02513758979149       -4.61841227447766       -0.22464086582224
C           -2.68324612542265       -5.78737918550941       -0.54292178932234
C           -4.06662960281741       -5.85481854865033       -0.45444850187302
C           -4.78323017062604       -4.74798209046326       -0.02699255782974
C           -4.13303042280164       -3.57103687572909        0.28819599635608
C           -2.44185382720279       -0.90728522724318        0.49607954395623
C           -3.68670468499699       -0.36356361616255        0.07005538517017
C           -4.31667819180117       -0.88295355514360       -1.08207659303201
C           -5.50857701504958       -0.36110889883692       -1.52709694264482
C           -6.12126701067097        0.68352629603441       -0.84381430318040
C           -5.52476392769582        1.19513664935333        0.30285029467631
C           -4.32762716009446        0.69090913903749        0.75549367779121
C           -1.81784049276502        2.06223362402648        0.30248651992356
H           -1.34220793366829        4.98769151230416        1.95008654957779
H           -0.55733670003370        3.41311829082251        3.69500126954241
H           -0.58048886880718        0.98746929618477        3.27395728288323
H            1.09812147787786        1.27922966032073        1.41029589247307
H            3.46971194124825        1.43909377487333        1.89102625185963
H            5.85724542806727       -2.39239808899498        2.43952559415398
H            6.99637154280235       -1.06556418213639        2.12682552461906
H            6.57738341254351       -2.52870036027373        0.09130652974943
H            4.87699888878108       -2.04305256843559        0.15700548160293
H            5.90185639649188        0.41470052549762        0.16724815015171
H            7.27506136992901       -0.37493013662795       -0.61380468328499
H            5.54054596392582       -1.35669117711399       -2.28137059083376
H            5.89284451344933        0.37422953213025       -2.39617926626198
H            3.89318971488556       -2.91144989539633       -1.98230387682818
H            1.72312715333677       -4.03967137145351       -2.15581832692988
H           -0.37754394435403       -2.78719745724114       -2.02907336123245
H           -0.36190172784101       -0.33901339190067       -1.67147451870388
H            0.33090616090593        2.26862297631437       -1.22152694327313
H            1.53433321608398        4.39688274290229       -0.87260094990748
H            3.98465108576383        4.45900034767138       -0.87546060318834
H            5.31051991608223        2.41934605023854       -1.21759963982850
H            3.73651816953632       -2.82397327758256        2.20612204770583
H            1.33812568784217       -2.99723406908707        1.77414525324225
H           -0.94999405144611       -4.54869185408145       -0.28270066822481
H           -2.12105091547770       -6.65285156199505       -0.86216107749671
H           -4.58239342394267       -6.76951209486067       -0.70649382225871
H           -5.85785447250665       -4.80487682921137        0.06691136552653
H           -4.69806327760272       -2.72657979701094        0.65139572211716
H           -3.82872266762809       -1.67208842922915       -1.63447418725405
H           -5.96516681097628       -0.75989122499708       -2.42111140137689
H           -7.05357061424666        1.09355522864171       -1.19992157206316
H           -6.00476073766358        1.99495991222943        0.84728258005085
H           -3.89851975295176        1.07015312271001        1.67056040222884
H           -2.16366337882157        1.69132197511659       -0.64993255643888

 projected vibrational frequencies (cm⁻¹)
eigval :       -0.00    -0.00     0.00     0.00     0.00     0.00
eigval :       14.02    15.83    17.80    22.44    25.00    28.09
eigval :       30.08    33.89    41.99    49.54    56.80    60.49
eigval :       64.36    80.32    87.77    92.55   102.58   109.76
eigval :      120.00   125.61   146.35   156.92   158.66   162.06
eigval :      173.97   189.40   203.92   211.44   220.54   229.17
eigval :      236.21   245.98   256.30   264.73   272.55   280.31
eigval :      298.44   308.62   314.72   325.98   334.45   341.21
eigval :      359.01   373.44   381.74   383.82   388.73   393.81
eigval :      400.50   417.26   427.19   430.22   433.96   447.16
eigval :      458.61   468.02   472.99   485.19   486.47   519.58
eigval :      525.96   527.84   542.41   546.26   555.68   573.25
eigval :      577.10   581.60   585.08   586.77   592.59   594.08
eigval :      606.48   610.53   632.35   642.15   645.33   655.60
eigval :      663.15   667.98   672.59   673.43   683.09   708.33
eigval :      720.67   733.65   746.66   758.68   760.86   767.56
eigval :      770.37   778.90   780.79   795.90   797.78   810.77
eigval :      824.99   841.21   856.00   864.03   865.95   868.18
eigval :      873.68   880.89   884.67   887.25   900.66   902.01
eigval :      902.37   904.28   908.41   919.63   921.37   921.93
eigval :      922.14   922.98   924.55   929.44   931.15   932.83
eigval :      941.47   961.10   970.15   977.33   985.85   996.31
eigval :     1005.97  1024.34  1026.90  1052.44  1063.55  1066.76
eigval :     1071.47  1073.34  1076.19  1079.13  1082.39  1085.76
eigval :     1091.41  1104.32  1117.02  1118.06  1121.39  1128.60
eigval :     1137.38  1153.10  1158.70  1162.27  1163.10  1171.81
eigval :     1177.63  1179.93  1182.47  1182.58  1185.87  1191.59
eigval :     1197.80  1200.13  1211.70  1225.95  1233.52  1234.63
eigval :     1240.02  1247.50  1261.78  1264.14  1273.42  1274.78
eigval :     1276.72  1286.47  1301.06  1307.74  1317.94  1319.91
eigval :     1325.19  1325.97  1328.28  1330.53  1334.73  1340.40
eigval :     1351.14  1364.23  1367.00  1375.05  1378.38  1397.90
eigval :     1406.33  1411.83  1423.63  1427.36  1428.64  1430.73
eigval :     1439.55  1444.47  1457.57  1462.59  1470.76  1471.73
eigval :     1476.30  1478.86  1480.87  1482.18  1489.78  1495.16
eigval :     1516.75  1536.96  1555.75  1562.10  1562.96  1574.09
eigval :     1581.58  1590.36  1598.40  1599.37  1616.61  2906.08
eigval :     2934.33  2973.90  2977.04  2982.89  2993.97  2996.68
eigval :     3002.78  3068.16  3075.03  3075.69  3076.98  3078.76
eigval :     3079.36  3079.57  3083.00  3083.56  3088.58  3089.61
eigval :     3090.03  3090.80  3091.10  3093.19  3095.79  3099.06
eigval :     3099.62  3100.28  3100.60  3101.05  3103.28  3104.63
eigval :     3114.99  3119.56  3143.60

   temp. (K)  partition function   enthalpy   heat capacity  entropy
                                   cal/mol     cal/K/mol   cal/K/mol   J/K/mol
 298.15  VIB  0.814E+20            25206.709    155.820    157.071
         ROT  0.666E+08              888.752      2.981     38.781
         INT  0.543E+28            26095.461    158.801    195.851
         TR   0.171E+29             1481.254      4.968     45.401
         TOT                       27576.7154   163.7689   241.2528  1009.4018

       T/K    H(0)-H(T)+PV         H(T)/Eh          T*S/Eh         G(T)/Eh
   ------------------------------------------------------------------------
    298.15    0.439463E-01    0.694203E+00    0.114627E+00    0.579576E+00
   ------------------------------------------------------------------------

         :::::::::::::::::::::::::::::::::::::::::::::::::::::
         ::                  THERMODYNAMIC                  ::
         :::::::::::::::::::::::::::::::::::::::::::::::::::::
         :: total free energy        -138.014799965278 Eh   ::
         ::.................................................::
         :: total energy             -138.594376368579 Eh   ::
         :: zero point energy           0.650257104513 Eh   ::
         :: G(RRHO) w/o ZPVE           -0.070680701212 Eh   ::
         :: G(RRHO) contrib.            0.579576403301 Eh   ::
         :::::::::::::::::::::::::::::::::::::::::::::::::::::

           -------------------------------------------------
          | TOTAL ENERGY             -138.594376368579 Eh   |
          | TOTAL ENTHALPY           -137.900172970793 Eh   |
          | TOTAL FREE ENERGY        -138.014799965278 Eh   |
          | GRADIENT NORM               0.000048458787 Eh/α |
           -------------------------------------------------

 * finished run on 2025/09/13 at 04:06:00.916
