   * xtb version 6.7.1 (edcfbbe) compiled by 'albert@albert-system' on 2024-07-22

   ID    Z sym.   atoms
    1    9 F      1, 3, 4
    2    6 C      2, 5-9, 11-15, 17-20, 22-35, 37-51
    3    7 N      10, 21, 36
    4    8 O      16
    5    1 H      52-85

          program call               : xtb data2507/gas/BICFOCz/BICFOCz_gas_S0_crest.xyz --gfn 2 --ohess vtight --parallel 40 --molden --ceasefiles --namespace data2507/gas/BICFOCz/BICFOCz_gas_S0_finalOpt
          :  Hamiltonian                  GFN2-xTB          :
 * total energy  :  -138.6791763 Eh     change       -0.3955790E-08 Eh
 * total energy  :  -138.6791774 Eh     change       -0.1179498E-05 Eh
 * total energy  :  -138.6791789 Eh     change       -0.1434099E-05 Eh
 * total energy  :  -138.6791830 Eh     change       -0.4104465E-05 Eh
 * total energy  :  -138.6791842 Eh     change       -0.1181325E-05 Eh
 * total energy  :  -138.6791852 Eh     change       -0.1021687E-05 Eh
 * total energy  :  -138.6791862 Eh     change       -0.1047164E-05 Eh
 * total energy  :  -138.6791872 Eh     change       -0.9873205E-06 Eh
 * total energy  :  -138.6791884 Eh     change       -0.1142029E-05 Eh
 * total energy  :  -138.6791896 Eh     change       -0.1233971E-05 Eh
 * total energy  :  -138.6791908 Eh     change       -0.1261114E-05 Eh
 * total energy  :  -138.6791918 Eh     change       -0.9051282E-06 Eh
 * total energy  :  -138.6791924 Eh     change       -0.6849480E-06 Eh
 * total energy  :  -138.6791931 Eh     change       -0.6459298E-06 Eh
 * total energy  :  -138.6791937 Eh     change       -0.6378585E-06 Eh
 * total energy  :  -138.6791943 Eh     change       -0.5847650E-06 Eh
 * total energy  :  -138.6791948 Eh     change       -0.4631001E-06 Eh
 * total energy  :  -138.6791951 Eh     change       -0.3191768E-06 Eh
 * total energy  :  -138.6791951 Eh     change       -0.3512463E-07 Eh
   *** GEOMETRY OPTIMIZATION CONVERGED AFTER 19 ITERATIONS ***

 final structure:
================
85
 xtb: 6.7.1 (edcfbbe)
F           -1.40948391133099        5.29512113045289       -0.63420093493503
C           -2.28523995769062        4.28482838954254       -0.48636056676001
F           -3.46642276582261        4.86034575276609       -0.18925154175020
F           -2.43000576195931        3.72738864937090       -1.69455053503512
C           -1.85420617200551        3.31169189435687        0.57339890883689
C           -1.52978809073797        3.80036160832619        1.83224076515264
C           -1.14582638465930        2.91429849177410        2.82447586821649
C           -1.08792966790753        1.55774041167833        2.56575174329822
C           -1.40445549955321        1.07432429693628        1.29825336963383
N           -1.37850430136413       -0.30062941481110        1.03611208069987
C           -0.35437306933134       -1.20632581475386        1.20136884989042
C            1.02319174964963       -0.92492352008407        1.55117611803900
C            1.60428144464836        0.34276027036615        1.54037605503196
C            2.94704386291252        0.50035935353211        1.80653658812754
C            3.75798516536478       -0.60072873209834        2.07061200838219
O            5.08005251060459       -0.34419604287178        2.30173040221489
C            6.01974359371171       -1.33178539039988        1.92363699933609
C            5.94447627462649       -1.61960428885622        0.42212000954294
C            6.24071446363939       -0.35633703795505       -0.38923801960816
C            5.53383924542278       -0.35103432221266       -1.75030505968685
N            4.12453677318760       -0.08275228678844       -1.63561245115728
C            3.09238994833399       -0.98604577867821       -1.75098509096681
C            3.12390528290393       -2.36310106982283       -1.92266718295735
C            1.91979085738127       -3.03314009898442       -2.02552663544523
C            0.70230283144087       -2.36007915460636       -1.97310775100417
C            0.66142567941720       -0.99265786180712       -1.79786284901521
C            1.85704254394207       -0.29845694892593       -1.67648775979230
C            2.17486519928210        1.08646877514099       -1.48624748353629
C            1.40534641014374        2.23213647733113       -1.33530313286073
C            2.04292976239145        3.44164716404491       -1.14848210334551
C            3.43401833655742        3.51701160160650       -1.12662685987306
C            4.22217667390779        2.39317647984004       -1.28670469008720
C            3.58660760227649        1.17125141444034       -1.46172491864133
C            3.18398217238584       -1.87049422229121        2.08572549603755
C            1.83875901744421       -2.02273402303014        1.83388303337263
N           -0.75604802968950       -2.41225252295889        0.88640862432201
C           -2.05405607477405       -2.32771579938899        0.49059064400149
C           -2.78678440345446       -3.52386323896338        0.10546033520140
C           -2.06655840749082       -4.65025531443304       -0.29217010838930
C           -2.72353642277903       -5.80549542033230       -0.66703564728420
C           -4.10803018245005       -5.85729236943902       -0.64460270551813
C           -4.82986208631219       -4.74943450241639       -0.23179394202565
C           -4.17806719283931       -3.59012826956690        0.14477098546177
C           -2.46552278660039       -1.00871649638516        0.55673250953696
C           -3.72151375748868       -0.35995475746020        0.20046704703556
C           -4.27549475930990       -0.57534178307900       -1.06118097303895
C           -5.44625407475469        0.06030490503495       -1.42648097376820
C           -6.07818151482802        0.92036600480335       -0.54254913955234
C           -5.53937121870151        1.13305195137068        0.71506240032833
C           -4.36892139833548        0.49843951668800        1.08744074208832
C           -1.79775053245347        1.95590306989510        0.29649495718115
H           -1.58045261517473        4.86027635492892        2.02657846233346
H           -0.89711771668314        3.28390450387253        3.80678981463624
H           -0.79082868159129        0.86198948180350        3.33615398978671
H            1.03102760843611        1.21777963029248        1.28297536443061
H            3.39517204200551        1.48148874672134        1.78503093096909
H            5.88509921329467       -2.25341192016657        2.50309912994315
H            6.98935571131523       -0.89982813756474        2.18467899054610
H            6.64565434201857       -2.41670614674161        0.17131244490650
H            4.93477732853473       -1.96590117339827        0.19282985805109
H            5.89555985235353        0.51083269250688        0.17700892576464
H            7.31656633201143       -0.25403779112356       -0.54120430345566
H            5.66779499593450       -1.31401844510173       -2.24847732580277
H            5.97826118337562        0.42315876056656       -2.38582317144838
H            4.05614160701867       -2.90641115975354       -1.98004638561632
H            1.92406401819407       -4.10515395829689       -2.15761545603154
H           -0.21663190770043       -2.91779328972025       -2.06807901507642
H           -0.28125499894409       -0.46631055419502       -1.76452462348567
H            0.32767917419078        2.17457048493789       -1.36857861061255
H            1.46082660734699        4.34293474088640       -1.02384465489361
H            3.90716486327224        4.47754402415385       -0.98376436146772
H            5.29881425997772        2.47401991778075       -1.27355819929678
H            3.78145842013758       -2.74468026119225        2.29397207944785
H            1.38997744312413       -3.00288604629992        1.83235757489509
H           -0.98894772695340       -4.59484600626386       -0.29553483998940
H           -2.15624735072235       -6.67103732653695       -0.97810488096080
H           -4.62293908166523       -6.75972161794698       -0.94031957881735
H           -5.90917812337904       -4.79018100246522       -0.19874133398984
H           -4.74927699618744       -2.73831989131399        0.48236166686390
H           -3.77616434439629       -1.24196559277395       -1.74918834752534
H           -5.86424099457874       -0.11015474879345       -2.40744041958172
H           -6.98911269354833        1.42187650971217       -0.83238385652991
H           -6.03165710837096        1.79708526851175        1.41010283601104
H           -3.96106669302979        0.65731091002024        2.07594338726431
H           -2.05834715127368        1.58497977276585       -0.68291872380824

          :  Hamiltonian                  GFN2-xTB          :
         :: gradient norm              0.000122538355 Eh/a0 ::
         :: HOMO-LUMO gap              2.269958184682 eV    ::
         :: SCC energy              -140.896455294551 Eh    ::
         :: -> dispersion             -0.132768067760 Eh    ::
         :: repulsion energy           2.217260169741 Eh    ::

    * Orbital Energies and Occupations

         #    Occupation            Energy/Eh            Energy/eV
      -------------------------------------------------------------
         1        2.0000           -0.8782799             -23.8992
       ...           ...                  ...                  ...
       114        2.0000           -0.4146434             -11.2830
       115        2.0000           -0.4135642             -11.2537
       116        2.0000           -0.4128006             -11.2329
       117        2.0000           -0.4100337             -11.1576
       118        2.0000           -0.4082614             -11.1094
       119        2.0000           -0.4022441             -10.9456
       120        2.0000           -0.3988243             -10.8526
       121        2.0000           -0.3965253             -10.7900
       122        2.0000           -0.3867348             -10.5236
       123        2.0000           -0.3762536             -10.2384
       124        2.0000           -0.3723880             -10.1332
       125        2.0000           -0.3608745              -9.8199
       126        2.0000           -0.3570322              -9.7153 (HOMO)
       127                         -0.2736128              -7.4454 (LUMO)
       128                         -0.2664624              -7.2508
       129                         -0.2495104              -6.7895
       130                         -0.2418164              -6.5802
       131                         -0.2390637              -6.5053
       132                         -0.2288866              -6.2283
       133                         -0.2266276              -6.1669
       134                         -0.2180508              -5.9335
       135                         -0.2161925              -5.8829
       136                         -0.2141861              -5.8283
       137                         -0.1887553              -5.1363
       ...                                ...                  ...
       238                          0.7534914              20.5035
      -------------------------------------------------------------
                  HL-Gap            0.0834194 Eh            2.2700 eV

     #   Z          covCN         q      C6AA      α(0)
     1   9 F        0.791    -0.207    11.307     3.972
     2   6 C        3.337     0.487    17.255     6.577
     3   9 F        0.791    -0.210    11.337     3.977
     4   9 F        0.791    -0.203    11.271     3.966
     5   6 C        2.977    -0.022    28.546     8.764
     6   6 C        2.921    -0.025    28.619     8.773
     7   6 C        2.920    -0.021    28.540     8.761
     8   6 C        2.921    -0.032    28.790     8.799
     9   6 C        2.914     0.079    26.230     8.398
    10   7 N        2.851    -0.037    21.960     6.960
    11   6 C        3.139     0.123    25.080     8.196
    12   6 C        2.973    -0.008    28.214     8.713
    13   6 C        2.922    -0.036    28.889     8.814
    14   6 C        2.920    -0.052    29.289     8.875
    15   6 C        2.866     0.147    24.812     8.165
    16   8 O        1.704    -0.282    18.689     5.837
    17   6 C        3.696     0.078    19.443     6.308
    18   6 C        3.800    -0.069    21.814     6.650
    19   6 C        3.802    -0.066    21.757     6.641
    20   6 C        3.739     0.001    20.641     6.482
    21   7 N        2.796    -0.053    22.259     7.007
    22   6 C        3.080     0.044    26.935     8.508
    23   6 C        2.910    -0.055    29.364     8.886
    24   6 C        2.924    -0.032    28.806     8.802
    25   6 C        2.920    -0.037    28.923     8.819
    26   6 C        2.913    -0.029    28.729     8.789
    27   6 C        3.072    -0.021    28.450     8.746
    28   6 C        3.070    -0.019    28.406     8.739
    29   6 C        2.913    -0.034    28.838     8.806
    30   6 C        2.919    -0.044    29.085     8.844
    31   6 C        2.924    -0.034    28.854     8.809
    32   6 C        2.910    -0.053    29.311     8.878
    33   6 C        3.084     0.045    26.895     8.502
    34   6 C        2.916    -0.060    29.496     8.906
    35   6 C        2.933    -0.031    28.771     8.797
    36   7 N        1.919    -0.284    28.218     7.876
    37   6 C        3.154     0.055    26.488     8.417
    38   6 C        2.974     0.010    27.784     8.646
    39   6 C        2.928    -0.030    28.760     8.795
    40   6 C        2.918    -0.030    28.744     8.792
    41   6 C        2.920    -0.032    28.794     8.800
    42   6 C        2.919    -0.030    28.750     8.793
    43   6 C        2.923    -0.037    28.929     8.820
    44   6 C        3.065     0.013    27.655     8.623
    45   6 C        2.971     0.006    27.873     8.660
    46   6 C        2.925    -0.032    28.788     8.799
    47   6 C        2.919    -0.027    28.669     8.780
    48   6 C        2.920    -0.029    28.718     8.788
    49   6 C        2.919    -0.029    28.721     8.788
    50   6 C        2.924    -0.037    28.908     8.817
    51   6 C        2.923    -0.031    28.779     8.797
    52   1 H        0.926     0.062     2.176     2.307
    53   1 H        0.926     0.059     2.212     2.326
    54   1 H        0.926     0.059     2.212     2.326
    55   1 H        0.926     0.032     2.556     2.500
    56   1 H        0.926     0.046     2.369     2.407
    57   1 H        0.924     0.029     2.594     2.519
    58   1 H        0.924     0.052     2.295     2.369
    59   1 H        0.924     0.036     2.509     2.477
    60   1 H        0.924     0.051     2.303     2.373
    61   1 H        0.924     0.060     2.197     2.318
    62   1 H        0.924     0.038     2.478     2.462
    63   1 H        0.924     0.050     2.324     2.384
    64   1 H        0.924     0.046     2.370     2.407
    65   1 H        0.926     0.020     2.726     2.582
    66   1 H        0.926     0.029     2.594     2.519
    67   1 H        0.926     0.033     2.550     2.497
    68   1 H        0.926     0.019     2.747     2.592
    69   1 H        0.926     0.019     2.749     2.593
    70   1 H        0.926     0.027     2.623     2.533
    71   1 H        0.926     0.028     2.614     2.528
    72   1 H        0.926     0.024     2.667     2.554
    73   1 H        0.926     0.039     2.460     2.453
    74   1 H        0.926     0.063     2.165     2.301
    75   1 H        0.926     0.052     2.299     2.371
    76   1 H        0.926     0.029     2.600     2.522
    77   1 H        0.926     0.028     2.620     2.531
    78   1 H        0.926     0.027     2.629     2.536
    79   1 H        0.926     0.026     2.643     2.542
    80   1 H        0.926     0.035     2.511     2.478
    81   1 H        0.926     0.036     2.502     2.474
    82   1 H        0.926     0.035     2.513     2.479
    83   1 H        0.926     0.032     2.553     2.499
    84   1 H        0.926     0.021     2.719     2.579
    85   1 H        0.926     0.065     2.137     2.286

molecular dipole:
                 x           y           z       tot (Debye)
 q only:        1.388      -0.840       0.826
   full:        1.273      -0.537       0.816       4.078

 projected vibrational frequencies (cm⁻¹)
eigval :       -0.00    -0.00    -0.00    -0.00     0.00     0.00
eigval :       13.77    15.13    15.55    21.39    22.74    25.55
eigval :       28.44    32.18    39.16    47.08    52.27    56.43
eigval :       57.53    78.14    79.02    87.72    97.38   109.47
eigval :      118.99   124.40   138.05   152.88   155.95   157.41
eigval :      172.32   194.48   203.11   213.06   219.94   231.43
eigval :      237.36   248.43   253.91   264.42   272.41   280.17
eigval :      306.55   317.19   322.08   330.28   343.27   351.71
eigval :      371.93   375.92   381.45   383.11   392.06   398.74
eigval :      409.68   425.72   429.45   430.40   438.01   464.05
eigval :      472.76   481.78   489.96   494.20   519.81   524.84
eigval :      528.26   530.84   542.89   552.48   555.47   579.11
eigval :      579.73   587.21   591.63   593.14   602.23   606.58
eigval :      619.33   641.64   645.22   656.19   661.53   668.45
eigval :      673.26   678.40   681.57   689.89   693.61   708.54
eigval :      721.00   733.05   758.94   762.83   765.73   767.43
eigval :      778.76   786.69   801.84   805.34   817.00   829.73
eigval :      841.43   863.65   865.22   868.23   878.57   880.21
eigval :      885.30   889.55   900.49   902.57   903.25   903.74
eigval :      904.98   912.21   921.37   921.83   922.40   929.61
eigval :      930.10   931.34   932.57   933.94   934.94   942.81
eigval :      961.29   972.87   975.36   993.17  1006.12  1016.95
eigval :     1027.23  1033.27  1035.38  1068.76  1069.18  1071.83
eigval :     1076.73  1081.08  1083.12  1084.09  1084.37  1095.31
eigval :     1110.74  1118.08  1118.83  1120.98  1128.78  1142.02
eigval :     1154.74  1159.78  1160.63  1169.58  1181.11  1181.43
eigval :     1181.64  1183.48  1185.51  1187.79  1194.93  1200.96
eigval :     1202.20  1208.57  1227.86  1235.36  1240.58  1246.88
eigval :     1249.91  1263.21  1270.50  1274.64  1275.35  1282.13
eigval :     1290.35  1302.21  1308.97  1314.88  1319.25  1321.20
eigval :     1322.23  1327.73  1331.85  1332.92  1335.53  1352.87
eigval :     1360.92  1365.72  1368.37  1377.01  1390.53  1415.66
eigval :     1429.18  1430.47  1434.54  1440.49  1442.13  1452.00
eigval :     1463.99  1466.50  1472.91  1477.02  1478.67  1480.86
eigval :     1484.98  1487.79  1490.70  1527.89  1562.15  1568.43
eigval :     1575.82  1577.65  1579.00  1582.15  1591.75  1593.15
eigval :     1596.99  1599.65  1601.85  1603.04  1620.96  2904.13
eigval :     2932.66  2972.78  2976.79  2981.71  2993.63  2995.76
eigval :     3002.58  3067.64  3069.45  3070.84  3073.81  3074.10
eigval :     3074.94  3079.13  3080.02  3083.11  3083.91  3085.46
eigval :     3087.24  3089.93  3093.53  3093.92  3094.35  3094.80
eigval :     3098.60  3099.31  3101.91  3102.72  3104.09  3104.20
eigval :     3111.35  3116.41  3123.75

   temp. (K)  partition function   enthalpy   heat capacity  entropy
                                   cal/mol     cal/K/mol   cal/K/mol   J/K/mol
 298.15  VIB  0.196E+21            25022.386    153.364    156.805
         ROT  0.669E+08              888.752      2.981     38.788
         INT  0.131E+29            25911.138    156.345    195.594
         TR   0.171E+29             1481.254      4.968     45.401
         TOT                       27392.3922   161.3129   240.9950  1008.3232

       T/K    H(0)-H(T)+PV         H(T)/Eh          T*S/Eh         G(T)/Eh
   ------------------------------------------------------------------------
    298.15    0.436526E-01    0.698016E+00    0.114505E+00    0.583511E+00
   ------------------------------------------------------------------------

         :::::::::::::::::::::::::::::::::::::::::::::::::::::
         ::                  THERMODYNAMIC                  ::
         :::::::::::::::::::::::::::::::::::::::::::::::::::::
         :: total free energy        -138.095683992261 Eh   ::
         ::.................................................::
         :: total energy             -138.679195124810 Eh   ::
         :: zero point energy           0.654363096681 Eh   ::
         :: G(RRHO) w/o ZPVE           -0.070851964133 Eh   ::
         :: G(RRHO) contrib.            0.583511132548 Eh   ::
         :::::::::::::::::::::::::::::::::::::::::::::::::::::

           -------------------------------------------------
          | TOTAL ENERGY             -138.679195124810 Eh   |
          | TOTAL ENTHALPY           -137.981179472571 Eh   |
          | TOTAL FREE ENERGY        -138.095683992261 Eh   |
          | GRADIENT NORM               0.000122540693 Eh/α |
          | HOMO-LUMO GAP               2.269958635703 eV   |
           -------------------------------------------------

 * finished run on 2025/09/13 at 04:05:47.975
