   * xtb version 6.7.1 (edcfbbe) compiled by 'albert@albert-system' on 2024-07-22

   ID    Z sym.   atoms
    1    7 N      1, 4, 7, 10
    2    6 C      2, 3, 5, 6, 8, 9, 11-38
    3    1 H      39-56

          program call               : xtb data2507/toluene/APDC-tPh/APDC-tPh_toluene_S0_finalOpt.xtbopt.xyz --gfn 2 --uhf 2 --gbsa toluene --ohess vtight --parallel 40 --molden --ceasefiles --namespace data2507/toluene/APDC-tPh/APDC-tPh_toluene_T1_preOpt
      * Solvation model:               GBSA
        Solvent                        toluene
        Solvent mass                       9.2140E+01 g/mol
          :  Hamiltonian                  GFN2-xTB          :
 * total energy  :   -93.5733757 Eh     change       -0.2852593E-07 Eh
 * total energy  :   -93.5777193 Eh     change       -0.4343559E-02 Eh
 * total energy  :   -93.5811829 Eh     change       -0.3463616E-02 Eh
 * total energy  :   -93.5811431 Eh     change        0.3978872E-04 Eh
 * total energy  :   -93.5815172 Eh     change       -0.3740883E-03 Eh
 * total energy  :   -93.5815029 Eh     change        0.1426761E-04 Eh
 * total energy  :   -93.5815363 Eh     change       -0.3337640E-04 Eh
 * total energy  :   -93.5815401 Eh     change       -0.3841029E-05 Eh
 * total energy  :   -93.5815432 Eh     change       -0.3051760E-05 Eh
 * total energy  :   -93.5815452 Eh     change       -0.1999657E-05 Eh
 * total energy  :   -93.5815491 Eh     change       -0.5872369E-06 Eh
 * total energy  :   -93.5815497 Eh     change       -0.6136005E-06 Eh
 * total energy  :   -93.5815503 Eh     change       -0.5969471E-06 Eh
 * total energy  :   -93.5815508 Eh     change       -0.4730943E-06 Eh
 * total energy  :   -93.5815511 Eh     change       -0.3145294E-06 Eh
 * total energy  :   -93.5815513 Eh     change       -0.2186635E-06 Eh
 * total energy  :   -93.5815515 Eh     change       -0.1769210E-06 Eh
 * total energy  :   -93.5815517 Eh     change       -0.1916103E-06 Eh
 * total energy  :   -93.5815517 Eh     change       -0.5682608E-08 Eh
   *** GEOMETRY OPTIMIZATION CONVERGED AFTER 22 ITERATIONS ***

 final structure:
================
56
 xtb: 6.7.1 (edcfbbe)
N            8.99356126262431        0.83374770414717       -0.82331284270403
C            7.90201815722580        0.55878675268956       -0.57612326907448
C            6.58685527288377        0.21655007164436       -0.26730573652318
N            5.56356567961243        0.82971209705016       -0.82853311355875
C            4.33842427417845        0.53465430892817       -0.56954522462951
C            4.06414061714361       -0.57341806414847        0.42888787938092
N            5.07078328906090       -1.16537592709453        0.97081679794053
C            6.32198466616951       -0.85135839145086        0.70082302589724
C            7.38732506851948       -1.51307404503096        1.30873823049753
N            8.27498300613343       -2.05424563576114        1.80619246357434
C            2.65349973909712       -0.70351203165796        0.53357843196004
C            1.80126388328799       -1.52933655671332        1.25716879402821
C            0.43039829478618       -1.35549502646710        1.09106253449541
C           -0.13555494024680       -0.39912719208555        0.25270458194548
C           -1.59673153272350       -0.26304752673052        0.19219441446744
C           -2.39951044648977       -1.38174411097339       -0.00797453062997
C           -3.78752232998361       -1.26348749214168       -0.06574287434294
C           -4.62533840637185       -2.44742514020744       -0.30277701959392
C           -4.33257941992063       -3.66116455929210        0.31965410711934
C           -5.12671860357068       -4.77149167352254        0.10381931247735
C           -6.21973877920091       -4.69279137952792       -0.74519227529796
C           -6.51730903119174       -3.49310717755151       -1.37296121648264
C           -5.73056290450941       -2.37872380430737       -1.15123824057741
C           -4.36657926604011       -0.00906158099037        0.10288829416566
C           -3.58270721309594        1.11876851894779        0.32565904411967
C           -4.20504457316547        2.43428472047265        0.53237489569794
C           -3.65852006574774        3.57980224418164       -0.04597307735257
C           -4.25102636534837        4.81403087518691        0.14375660845342
C           -5.39133941952967        4.92758493562213        0.92358280413711
C           -5.93877373453535        3.79683171827573        1.50946316771572
C           -5.35423870378745        2.55993935155845        1.31283644526405
C           -2.19567111936026        0.98285901229389        0.36037104387787
C            0.71443180828547        0.44308314409837       -0.51929717137041
C            0.34619973299080        1.41373850319854       -1.47665162086166
C            1.30804493843731        2.14809140319758       -2.14425511914934
C            2.67792078856133        1.98048125533287       -1.93445459724531
C            3.07717690768065        1.01376703959574       -1.02147196856787
C            2.09022536013847        0.25939343053276       -0.33948670531791
H            2.18677605743231       -2.27852865998402        1.93058843960237
H           -0.23512600032083       -1.98276723781220        1.66676903848276
H           -1.93697323223789       -2.34450005444933       -0.16604230107928
H           -3.49251235025358       -3.72570419362014        0.99560560134398
H           -4.89432040502017       -5.70287990070486        0.59965352002304
H           -6.83635443022327       -5.56269731400946       -0.91745197064234
H           -7.36523574372708       -3.42820561836391       -2.03938977442196
H           -5.95744721637748       -1.45184119728885       -1.65744236754451
H           -5.44093255856981        0.08938377311789        0.06640255699669
H           -2.77791519996978        3.49810922971377       -0.66604619469436
H           -3.82312509857660        5.69237423408148       -0.31754653529493
H           -5.85070920001357        5.89335568647996        1.07521821838689
H           -6.82367179499161        3.88143883238702        2.12362601409130
H           -5.77527980989812        1.68500037390508        1.78634215802863
H           -1.57944406146475        1.84335242372742        0.57379184918550
H           -0.69714394449162        1.57091802772891       -1.70208595850186
H            0.99058928537542        2.88511039238998       -2.86771518088629
H            3.39980579910198        2.57444346434961       -2.47235630055125

          :  Hamiltonian                  GFN2-xTB          :
         :: gradient norm              0.000110504639 Eh/a0 ::
         :: HOMO-LUMO gap              0.570678393923 eV    ::
         :: SCC energy               -95.405723722710 Eh    ::
         :: -> dispersion             -0.075990923349 Eh    ::
         :: -> Gsolv                  -0.051484266548 Eh    ::
         :: repulsion energy           1.824172014012 Eh    ::

    * Orbital Energies and Occupations

         #    Occupation            Energy/Eh            Energy/eV
      -------------------------------------------------------------
         1        2.0000           -0.7202419             -19.5988
       ...           ...                  ...                  ...
        76        2.0000           -0.4302767             -11.7084
        77        2.0000           -0.4237680             -11.5313
        78        2.0000           -0.4225471             -11.4981
        79        2.0000           -0.4211554             -11.4602
        80        2.0000           -0.4193153             -11.4102
        81        2.0000           -0.4150623             -11.2944
        82        2.0000           -0.4114121             -11.1951
        83        2.0000           -0.4110755             -11.1859
        84        2.0000           -0.4057689             -11.0415
        85        1.9874           -0.3952745             -10.7560
        86        1.8582           -0.3928440             -10.6898
        87        1.1545           -0.3895189             -10.5993
        88        1.0000           -0.3331719              -9.0661 (HOMO)
        89        0.0000           -0.3122000              -8.4954 (LUMO)
        90                         -0.2921744              -7.9505
        91                         -0.2597456              -7.0680
        92                         -0.2499706              -6.8020
        93                         -0.2458757              -6.6906
        94                         -0.2335983              -6.3565
        95                         -0.2320766              -6.3151
        96                         -0.2291568              -6.2357
        97                         -0.2288825              -6.2282
        98                         -0.2236557              -6.0860
        99                         -0.2035014              -5.5376
       ...                                ...                  ...
       170                          1.1592902              31.5459
      -------------------------------------------------------------
                  HL-Gap            0.0209719 Eh            0.5707 eV

     #   Z          covCN         q      C6AA      α(0)
     1   7 N        0.911    -0.258    26.705     7.474
     2   6 C        1.907     0.109    28.401     8.607
     3   6 C        2.942     0.069    26.452     8.435
     4   7 N        1.844    -0.142    24.863     7.390
     5   6 C        3.029     0.075    26.303     8.412
     6   6 C        3.028     0.075    26.298     8.412
     7   7 N        1.844    -0.143    24.879     7.392
     8   6 C        2.942     0.070    26.433     8.432
     9   6 C        1.907     0.109    28.400     8.607
    10   7 N        0.911    -0.258    26.693     7.472
    11   6 C        3.022    -0.011    28.270     8.721
    12   6 C        2.908    -0.027    28.668     8.779
    13   6 C        2.924    -0.032    28.788     8.799
    14   6 C        2.976     0.010    27.787     8.647
    15   6 C        2.972     0.015    27.668     8.628
    16   6 C        2.929    -0.036    28.887     8.814
    17   6 C        2.973     0.017    27.634     8.623
    18   6 C        2.977     0.014    27.700     8.633
    19   6 C        2.924    -0.032    28.791     8.799
    20   6 C        2.918    -0.028    28.703     8.785
    21   6 C        2.920    -0.027    28.671     8.781
    22   6 C        2.918    -0.028    28.699     8.785
    23   6 C        2.924    -0.032    28.789     8.799
    24   6 C        2.929    -0.038    28.949     8.824
    25   6 C        2.973     0.016    27.653     8.626
    26   6 C        2.977     0.013    27.714     8.635
    27   6 C        2.924    -0.032    28.801     8.801
    28   6 C        2.918    -0.028    28.708     8.786
    29   6 C        2.920    -0.027    28.682     8.782
    30   6 C        2.918    -0.028    28.703     8.785
    31   6 C        2.924    -0.032    28.795     8.800
    32   6 C        2.929    -0.034    28.853     8.809
    33   6 C        2.975     0.016    27.652     8.626
    34   6 C        2.918    -0.031    28.785     8.798
    35   6 C        2.918    -0.026    28.651     8.778
    36   6 C        2.909    -0.026    28.650     8.777
    37   6 C        3.022    -0.009    28.208     8.712
    38   6 C        3.146    -0.002    27.818     8.629
    39   1 H        0.926     0.048     2.350     2.397
    40   1 H        0.926     0.053     2.289     2.366
    41   1 H        0.926     0.045     2.383     2.414
    42   1 H        0.926     0.038     2.470     2.458
    43   1 H        0.926     0.036     2.504     2.474
    44   1 H        0.926     0.036     2.506     2.475
    45   1 H        0.926     0.036     2.499     2.472
    46   1 H        0.926     0.039     2.456     2.451
    47   1 H        0.926     0.046     2.377     2.411
    48   1 H        0.926     0.038     2.470     2.457
    49   1 H        0.926     0.036     2.506     2.475
    50   1 H        0.926     0.035     2.514     2.479
    51   1 H        0.926     0.036     2.508     2.477
    52   1 H        0.926     0.039     2.467     2.456
    53   1 H        0.926     0.046     2.365     2.405
    54   1 H        0.926     0.054     2.273     2.358
    55   1 H        0.926     0.052     2.299     2.371
    56   1 H        0.926     0.047     2.359     2.402

molecular dipole:
                 x           y           z       tot (Debye)
 q only:       -6.651       0.514      -0.470
   full:       -7.168       0.581      -0.530      18.329

 projected vibrational frequencies (cm⁻¹)
eigval :       -0.00    -0.00     0.00     0.00     0.00     0.00
eigval :       15.37    19.13    28.17    45.12    47.35    48.45
eigval :       53.23    54.82    79.75    93.94    98.01   110.72
eigval :      115.35   143.14   148.24   160.21   166.34   190.77
eigval :      218.59   226.63   249.21   265.81   272.01   278.00
eigval :      311.18   323.48   337.73   354.33   368.07   370.04
eigval :      371.50   380.34   398.41   411.77   432.22   446.19
eigval :      456.30   465.66   470.25   493.42   501.72   517.76
eigval :      529.41   542.94   552.52   578.56   581.04   584.90
eigval :      589.72   597.94   599.12   612.97   621.81   635.80
eigval :      656.27   658.41   667.45   670.35   674.50   677.29
eigval :      725.33   729.10   754.69   756.77   772.22   784.52
eigval :      815.38   822.88   824.81   837.70   868.58   870.19
eigval :      873.84   888.98   894.47   897.21   905.23   905.29
eigval :      906.55   917.63   925.39   930.19   931.41   932.12
eigval :      932.95   966.34   981.18   986.72  1029.94  1057.18
eigval :     1079.73  1080.79  1090.38  1112.93  1115.92  1120.53
eigval :     1121.66  1129.09  1133.85  1175.62  1179.12  1179.71
eigval :     1180.95  1191.35  1196.48  1199.84  1223.65  1233.62
eigval :     1235.21  1243.80  1244.77  1278.07  1279.63  1314.25
eigval :     1316.44  1319.48  1321.91  1324.43  1347.74  1363.43
eigval :     1374.87  1396.78  1408.61  1413.29  1415.89  1431.31
eigval :     1435.90  1443.30  1472.56  1475.05  1478.35  1518.06
eigval :     1518.40  1530.93  1539.88  1541.87  1557.96  1564.91
eigval :     1566.92  1585.42  1590.30  1598.35  2293.27  2297.95
eigval :     3070.73  3071.55  3072.72  3073.38  3079.75  3080.02
eigval :     3080.67  3081.23  3084.53  3084.72  3088.59  3090.35
eigval :     3090.76  3091.43  3093.19  3098.61  3101.04  3103.38

   temp. (K)  partition function   enthalpy   heat capacity  entropy
                                   cal/mol     cal/K/mol   cal/K/mol   J/K/mol
 298.15  VIB  0.540E+13            17106.828    107.886    105.857
         ROT  0.538E+08              888.752      2.981     38.355
         INT  0.290E+21            17995.580    110.867    144.212
         TR   0.103E+29             1481.254      4.968     44.389
         TOT                       19476.8342   115.8349   188.6013   789.1077

       T/K    H(0)-H(T)+PV         H(T)/Eh          T*S/Eh         G(T)/Eh
   ------------------------------------------------------------------------
    298.15    0.310383E-01    0.434993E+00    0.896106E-01    0.345383E+00
   ------------------------------------------------------------------------

         :::::::::::::::::::::::::::::::::::::::::::::::::::::
         ::                  THERMODYNAMIC                  ::
         :::::::::::::::::::::::::::::::::::::::::::::::::::::
         :: total free energy         -93.236169140533 Eh   ::
         ::.................................................::
         :: total energy              -93.581551710526 Eh   ::
         :: zero point energy           0.403954809600 Eh   ::
         :: G(RRHO) w/o ZPVE           -0.058572239606 Eh   ::
         :: G(RRHO) contrib.            0.345382569994 Eh   ::
         :::::::::::::::::::::::::::::::::::::::::::::::::::::

           -------------------------------------------------
          | TOTAL ENERGY              -93.581551710526 Eh   |
          | TOTAL ENTHALPY            -93.146558589936 Eh   |
          | TOTAL FREE ENERGY         -93.236169140533 Eh   |
          | GRADIENT NORM               0.000111120832 Eh/α |
          | HOMO-LUMO GAP               0.570673234949 eV   |
           -------------------------------------------------

 * finished run on 2025/09/10 at 03:33:13.397
