   * xtb version 6.7.1 (edcfbbe) compiled by 'albert@albert-system' on 2024-07-22

   ID    Z sym.   atoms
    1    7 N      1, 4, 7, 10
    2    6 C      2, 3, 5, 6, 8, 9, 11-38
    3    1 H      39-56

          program call               : xtb data2507/toluene/APDC-tPh/APDC-tPh.xyz --gfn 2 --gbsa toluene --ohess vtight --parallel 40 --molden --ceasefiles --namespace data2507/toluene/APDC-tPh/APDC-tPh_toluene_S0_preOpt
      * Solvation model:               GBSA
        Solvent                        toluene
        Solvent mass                       9.2140E+01 g/mol
          :  Hamiltonian                  GFN2-xTB          :
 * total energy  :   -93.6207107 Eh     change       -0.3341057E-08 Eh
 * total energy  :   -93.6322909 Eh     change       -0.1158025E-01 Eh
 * total energy  :   -93.6349428 Eh     change       -0.2651865E-02 Eh
 * total energy  :   -93.6353714 Eh     change       -0.4286132E-03 Eh
 * total energy  :   -93.6349981 Eh     change        0.3732532E-03 Eh
 * total energy  :   -93.6356715 Eh     change       -0.6733966E-03 Eh
 * total energy  :   -93.6355918 Eh     change        0.7973993E-04 Eh
 * total energy  :   -93.6357813 Eh     change       -0.1895305E-03 Eh
 * total energy  :   -93.6358483 Eh     change       -0.6697026E-04 Eh
 * total energy  :   -93.6360416 Eh     change       -0.1933167E-03 Eh
 * total energy  :   -93.6379224 Eh     change        0.3887612E-06 Eh
 * total energy  :   -93.6379230 Eh     change       -0.6040050E-06 Eh
 * total energy  :   -93.6379227 Eh     change        0.2916081E-06 Eh
 * total energy  :   -93.6379232 Eh     change       -0.4905073E-06 Eh
 * total energy  :   -93.6379233 Eh     change       -0.1191385E-06 Eh
 * total energy  :   -93.6379235 Eh     change       -0.1934007E-06 Eh
 * total energy  :   -93.6379237 Eh     change       -0.1473542E-06 Eh
 * total energy  :   -93.6379238 Eh     change       -0.1295457E-06 Eh
 * total energy  :   -93.6379239 Eh     change       -0.9944137E-07 Eh
   *** GEOMETRY OPTIMIZATION CONVERGED AFTER 78 ITERATIONS ***

 final structure:
================
56
 xtb: 6.7.1 (edcfbbe)
N           10.01252065669005        0.74361727387531       -0.49188948138371
C            8.91172616964262        0.50232292565975       -0.27876983737870
C            7.56626362414385        0.17880973862336        0.01574477635813
N            6.59912101632835        0.75294749266136       -0.71099307346481
C            5.36879477213544        0.41801673223116       -0.39137803315849
C            5.07932778523450       -0.50951969479966        0.67882549860956
N            6.03335302612048       -1.07569796961480        1.38740107395025
C            7.28378746912768       -0.73286747810599        1.05768460882115
C            8.35288420928350       -1.30978566843315        1.78406759776575
N            9.24004307124039       -1.76058596254889        2.35397194223309
C            3.64792754451605       -0.65899214318917        0.77359914577262
C            2.78292843952766       -1.39372434267108        1.55674550758982
C            1.40899950687137       -1.25539882444031        1.33296059784635
C            0.86607529670220       -0.41672596823740        0.36870252949680
C           -0.59166037757681       -0.29459858070345        0.24512676215322
C           -1.38661655086126       -1.43514764317415        0.17925359818156
C           -2.76936290772262       -1.33079250476862        0.07559028617040
C           -3.60422946355845       -2.54139730038205        0.00034642527638
C           -4.78199920843107       -2.63527337890695        0.73807987818362
C           -5.56268940419121       -3.77495482787765        0.67466504838098
C           -5.18266810043595       -4.83539451320556       -0.13158390691629
C           -4.01515333850249       -4.75052723271284       -0.87225674885308
C           -3.22920681994009       -3.61459039970532       -0.80441305873438
C           -3.35218644990272       -0.06748297479527        0.04841462224906
C           -2.57553136289958        1.08513654662027        0.12341389242424
C           -3.20479463317517        2.41592469886212        0.10101687515017
C           -4.38868832487979        2.65325179727592        0.79634890989773
C           -4.97908409053125        3.90351849882224        0.77683221164500
C           -4.39986043409709        4.93695944201960        0.05888186967076
C           -3.22360411399695        4.71230150924622       -0.63719464202354
C           -2.62940373707056        3.46386949801789       -0.61474029065382
C           -1.19297271990614        0.96108383854361        0.21904321694532
C            1.74019146699014        0.32555715136540       -0.47892119595262
C            1.40138983022505        1.15974237753779       -1.56807795230580
C            2.37986693824236        1.81011218705818       -2.28829771115181
C            3.74811528774835        1.67962472648508       -2.00358856590937
C            4.11547892180134        0.84673266381875       -0.97055778874173
C            3.10820834094843        0.17925057859534       -0.23149131487799
H            3.14892188599548       -2.05191804425988        2.32958517143511
H            0.73084241232845       -1.81201990255945        1.96325894294731
H           -0.92295007226050       -2.40994102238543        0.20225836324101
H           -5.07569867543943       -1.81778199143389        1.38066098197073
H           -6.47055474687622       -3.83742875875533        1.25747897525754
H           -5.79412209435515       -5.72454972137874       -0.18249479114427
H           -3.71616186504234       -5.57328674008493       -1.50588663932408
H           -2.32719428521082       -3.54900558979191       -1.39575753772506
H           -4.42256824298064        0.01880278049028       -0.06487735159175
H           -4.83809660035083        1.85822977283229        1.37347743107904
H           -5.89426351791573        4.07375878310181        1.32570794161125
H           -4.86311087015703        5.91273229137529        0.04227883092813
H           -2.76846285606532        5.51362311606167       -1.20159942254474
H           -1.72056424605797        3.29599844751043       -1.17373519861929
H           -0.58300778939443        1.84540065951331        0.32758835458720
H            0.36541553675562        1.27304098157974       -1.84835787884642
H            2.08825199306273        2.44303051251386       -3.11323942318957
H            4.48603069812171        2.20599115663726       -2.58890702334004

          :  Hamiltonian                  GFN2-xTB          :
         :: gradient norm              0.000065406170 Eh/a0 ::
         :: HOMO-LUMO gap              1.499908796208 eV    ::
         :: SCC energy               -95.454902237035 Eh    ::
         :: -> dispersion             -0.076185441108 Eh    ::
         :: -> Gsolv                  -0.051136979377 Eh    ::
         :: repulsion energy           1.816978327496 Eh    ::

    * Orbital Energies and Occupations

         #    Occupation            Energy/Eh            Energy/eV
      -------------------------------------------------------------
         1        2.0000           -0.7184759             -19.5507
       ...           ...                  ...                  ...
        75        2.0000           -0.4318597             -11.7515
        76        2.0000           -0.4297358             -11.6937
        77        2.0000           -0.4289378             -11.6720
        78        2.0000           -0.4243873             -11.5482
        79        2.0000           -0.4229167             -11.5081
        80        2.0000           -0.4193641             -11.4115
        81        2.0000           -0.4159489             -11.3185
        82        2.0000           -0.4075885             -11.0910
        83        2.0000           -0.4075490             -11.0900
        84        2.0000           -0.4067262             -11.0676
        85        2.0000           -0.3947407             -10.7414
        86        2.0000           -0.3903660             -10.6224
        87        2.0000           -0.3898650             -10.6088 (HOMO)
        88                         -0.3347443              -9.1089 (LUMO)
        89                         -0.3198173              -8.7027
        90                         -0.2964124              -8.0658
        91                         -0.2559923              -6.9659
        92                         -0.2550439              -6.9401
        93                         -0.2486123              -6.7651
        94                         -0.2452882              -6.6746
        95                         -0.2368010              -6.4437
        96                         -0.2257539              -6.1431
        97                         -0.2256153              -6.1393
        98                         -0.2242192              -6.1013
       ...                                ...                  ...
       170                          1.1465164              31.1983
      -------------------------------------------------------------
                  HL-Gap            0.0551207 Eh            1.4999 eV

     #   Z          covCN         q      C6AA      α(0)
     1   7 N        0.911    -0.227    25.974     7.371
     2   6 C        1.910     0.114    28.297     8.591
     3   6 C        2.978     0.096    25.868     8.343
     4   7 N        1.842    -0.234    26.978     7.698
     5   6 C        3.070     0.090    25.935     8.350
     6   6 C        3.070     0.090    25.933     8.350
     7   7 N        1.842    -0.235    27.007     7.702
     8   6 C        2.978     0.097    25.835     8.338
     9   6 C        1.910     0.114    28.290     8.590
    10   7 N        0.911    -0.226    25.943     7.367
    11   6 C        3.032    -0.014    28.325     8.730
    12   6 C        2.910    -0.010    28.264     8.718
    13   6 C        2.924    -0.031    28.762     8.795
    14   6 C        2.976     0.028    27.377     8.583
    15   6 C        2.974     0.012    27.748     8.641
    16   6 C        2.929    -0.039    28.968     8.827
    17   6 C        2.973     0.014    27.704     8.634
    18   6 C        2.977     0.010    27.799     8.649
    19   6 C        2.925    -0.034    28.838     8.807
    20   6 C        2.918    -0.030    28.746     8.792
    21   6 C        2.920    -0.031    28.770     8.796
    22   6 C        2.918    -0.030    28.747     8.792
    23   6 C        2.924    -0.034    28.851     8.809
    24   6 C        2.930    -0.037    28.915     8.819
    25   6 C        2.973     0.013    27.720     8.636
    26   6 C        2.977     0.009    27.804     8.649
    27   6 C        2.925    -0.034    28.839     8.807
    28   6 C        2.918    -0.030    28.746     8.792
    29   6 C        2.920    -0.031    28.770     8.796
    30   6 C        2.918    -0.030    28.753     8.793
    31   6 C        2.925    -0.035    28.862     8.810
    32   6 C        2.929    -0.039    28.970     8.827
    33   6 C        2.976     0.019    27.591     8.616
    34   6 C        2.919    -0.017    28.423     8.743
    35   6 C        2.919    -0.024    28.593     8.769
    36   6 C        2.911    -0.009    28.252     8.716
    37   6 C        3.031    -0.010    28.237     8.716
    38   6 C        3.147    -0.005    27.886     8.639
    39   1 H        0.926     0.061     2.183     2.311
    40   1 H        0.926     0.062     2.175     2.306
    41   1 H        0.926     0.042     2.419     2.432
    42   1 H        0.926     0.034     2.528     2.486
    43   1 H        0.926     0.032     2.558     2.501
    44   1 H        0.926     0.031     2.571     2.507
    45   1 H        0.926     0.032     2.563     2.503
    46   1 H        0.926     0.034     2.527     2.486
    47   1 H        0.926     0.042     2.418     2.432
    48   1 H        0.926     0.034     2.529     2.487
    49   1 H        0.926     0.032     2.564     2.504
    50   1 H        0.926     0.031     2.574     2.509
    51   1 H        0.926     0.032     2.554     2.499
    52   1 H        0.926     0.035     2.516     2.480
    53   1 H        0.926     0.043     2.405     2.425
    54   1 H        0.926     0.067     2.113     2.273
    55   1 H        0.926     0.062     2.171     2.304
    56   1 H        0.926     0.062     2.177     2.308

molecular dipole:
                 x           y           z       tot (Debye)
 q only:       -5.288       0.472      -0.834
   full:       -5.839       0.519      -0.918      15.082

 projected vibrational frequencies (cm⁻¹)
eigval :       -0.00    -0.00    -0.00     0.00     0.00     0.00
eigval :       15.68    19.58    28.92    38.08    40.80    46.42
eigval :       50.80    54.12    80.68    94.93    99.95   107.98
eigval :      117.94   149.92   151.61   158.74   165.95   195.76
eigval :      216.74   231.72   249.66   265.20   272.88   277.48
eigval :      314.13   330.42   350.82   362.08   368.22   372.92
eigval :      374.76   388.21   391.60   416.70   431.15   459.59
eigval :      477.05   483.79   501.42   507.96   527.75   530.98
eigval :      545.16   551.21   581.58   584.31   585.98   588.66
eigval :      604.13   608.75   617.38   634.39   653.25   667.26
eigval :      672.92   673.53   679.80   683.48   694.13   734.96
eigval :      736.74   749.18   753.32   763.89   777.44   804.83
eigval :      827.61   834.53   838.03   850.23   874.65   876.02
eigval :      893.39   899.73   903.01   905.22   912.52   913.73
eigval :      918.53   929.04   930.08   932.70   933.81   935.76
eigval :      953.36   984.95   989.39  1012.88  1061.40  1081.46
eigval :     1084.11  1091.18  1113.43  1119.47  1120.93  1123.76
eigval :     1131.73  1133.16  1165.88  1180.45  1181.58  1182.61
eigval :     1197.36  1199.00  1202.64  1230.73  1239.88  1241.85
eigval :     1245.58  1247.32  1280.53  1281.86  1312.70  1315.69
eigval :     1317.41  1320.27  1322.36  1326.32  1343.66  1359.36
eigval :     1376.24  1393.35  1410.86  1419.58  1421.61  1436.15
eigval :     1440.97  1447.03  1476.08  1482.57  1483.43  1517.55
eigval :     1524.29  1563.16  1570.16  1574.17  1581.06  1582.74
eigval :     1587.90  1598.63  1598.66  1599.65  2358.57  2360.60
eigval :     3067.04  3067.91  3068.33  3070.31  3076.44  3078.55
eigval :     3079.73  3082.62  3087.11  3087.75  3088.36  3088.68
eigval :     3088.92  3089.73  3091.50  3100.39  3100.66  3104.96

   temp. (K)  partition function   enthalpy   heat capacity  entropy
                                   cal/mol     cal/K/mol   cal/K/mol   J/K/mol
 298.15  VIB  0.536E+13            16849.399    105.730    104.290
         ROT  0.536E+08              888.752      2.981     38.348
         INT  0.287E+21            17738.152    108.711    142.639
         TR   0.103E+29             1481.254      4.968     44.389
         TOT                       19219.4054   113.6790   187.0282   782.5259

       T/K    H(0)-H(T)+PV         H(T)/Eh          T*S/Eh         G(T)/Eh
   ------------------------------------------------------------------------
    298.15    0.306281E-01    0.437956E+00    0.888631E-01    0.349093E+00
   ------------------------------------------------------------------------

         :::::::::::::::::::::::::::::::::::::::::::::::::::::
         ::                  THERMODYNAMIC                  ::
         :::::::::::::::::::::::::::::::::::::::::::::::::::::
         :: total free energy         -93.288831273097 Eh   ::
         ::.................................................::
         :: total energy              -93.637923907589 Eh   ::
         :: zero point energy           0.407327687930 Eh   ::
         :: G(RRHO) w/o ZPVE           -0.058235053439 Eh   ::
         :: G(RRHO) contrib.            0.349092634492 Eh   ::
         :::::::::::::::::::::::::::::::::::::::::::::::::::::

           -------------------------------------------------
          | TOTAL ENERGY              -93.637923907589 Eh   |
          | TOTAL ENTHALPY            -93.199968147534 Eh   |
          | TOTAL FREE ENERGY         -93.288831273097 Eh   |
          | GRADIENT NORM               0.000065441257 Eh/α |
          | HOMO-LUMO GAP               1.499909910791 eV   |
           -------------------------------------------------

 * finished run on 2025/09/10 at 03:30:55.783
