   * xtb version 6.7.1 (edcfbbe) compiled by 'albert@albert-system' on 2024-07-22

   ID    Z sym.   atoms
    1    7 N      1, 4, 7, 10
    2    6 C      2, 3, 5, 6, 8, 9, 11-38
    3    1 H      39-56

          program call               : xtb data2507/toluene/APDC-tPh/APDC-tPh_toluene_T1_crest.xyz --gfn 2 --uhf 2 --gbsa toluene --ohess vtight --parallel 40 --molden --ceasefiles --namespace data2507/toluene/APDC-tPh/APDC-tPh_toluene_T1_finalOpt
      * Solvation model:               GBSA
        Solvent                        toluene
        Solvent mass                       9.2140E+01 g/mol
          :  Hamiltonian                  GFN2-xTB          :
 * total energy  :   -93.5814091 Eh     change       -0.1654983E-07 Eh
 * total energy  :   -93.5815052 Eh     change       -0.9611111E-04 Eh
 * total energy  :   -93.5815351 Eh     change       -0.2982218E-04 Eh
 * total energy  :   -93.5815488 Eh     change       -0.1377804E-04 Eh
 * total energy  :   -93.5815478 Eh     change        0.1058655E-05 Eh
 * total energy  :   -93.5815560 Eh     change       -0.8196524E-05 Eh
 * total energy  :   -93.5815591 Eh     change       -0.3135704E-05 Eh
 * total energy  :   -93.5815602 Eh     change       -0.1076405E-05 Eh
 * total energy  :   -93.5815626 Eh     change       -0.2400121E-05 Eh
 * total energy  :   -93.5815651 Eh     change       -0.2497957E-05 Eh
 * total energy  :   -93.5815747 Eh     change       -0.5051537E-06 Eh
 * total energy  :   -93.5815751 Eh     change       -0.3681725E-06 Eh
 * total energy  :   -93.5815754 Eh     change       -0.3772190E-06 Eh
 * total energy  :   -93.5815757 Eh     change       -0.3125389E-06 Eh
 * total energy  :   -93.5815760 Eh     change       -0.2463835E-06 Eh
 * total energy  :   -93.5815760 Eh     change       -0.4151985E-08 Eh
 * total energy  :   -93.5815760 Eh     change        0.1503336E-07 Eh
 * total energy  :   -93.5815761 Eh     change       -0.1705400E-06 Eh
 * total energy  :   -93.5815762 Eh     change       -0.6297803E-07 Eh
   *** GEOMETRY OPTIMIZATION CONVERGED AFTER 25 ITERATIONS ***

 final structure:
================
56
 xtb: 6.7.1 (edcfbbe)
N            8.99627417089242        0.82171725739441       -0.78607342738245
C            7.90342883418060        0.55153704073241       -0.53924333871500
C            6.58654814659857        0.21558205710119       -0.23096519097027
N            5.56644978777912        0.82008970855753       -0.80725356731264
C            4.33985548102126        0.53104801016812       -0.54817382220885
C            4.05992856291715       -0.55852317566396        0.46882238375892
N            5.06346248887167       -1.14241268115101        1.02505118390959
C            6.31623481382023       -0.83537369319544        0.75406039599100
C            7.37799548108691       -1.48844844820533        1.37721654811579
N            8.26249326472564       -2.02335915924812        1.88695121530025
C            2.64871945979996       -0.68554410309866        0.56948465965502
C            1.79246537356823       -1.49859841684431        1.30273701639447
C            0.42236438616309       -1.32718888833272        1.12700619159035
C           -0.13841637936428       -0.38502022850994        0.26959964890011
C           -1.59949596323321       -0.25232086596802        0.19424723782092
C           -2.39692090086272       -1.37525877994390       -0.00291334723219
C           -3.78550157345359       -1.26463693052057       -0.06594553592775
C           -4.61574548932505       -2.45573932124780       -0.29375886293560
C           -5.81331442317993       -2.63153749122877        0.40000202981740
C           -6.59063344097774       -3.75449954964392        0.18848286054149
C           -6.19099361035516       -4.71717981461374       -0.72539301203339
C           -5.00495808203329       -4.55128359825735       -1.42360242013138
C           -4.22133975743909       -3.43355092524302       -1.20745666890878
C           -4.37074298340580       -0.01166323162468        0.09020893948896
C           -3.59149088705662        1.12304434061793        0.29575339197420
C           -4.21944205529489        2.44058052898350        0.46685046245324
C           -5.37748582024475        2.57942976559709        1.23230962893862
C           -5.96613734038958        3.81853681921951        1.39923151445620
C           -5.41434811277129        4.93900646788341        0.79772622648981
C           -4.26551160749276        4.81265429476937        0.03230170466232
C           -3.66932771009239        3.57614475280343       -0.12797498301614
C           -2.20394444418475        0.99313274699784        0.34107615997966
C            0.71561542072457        0.44366530097638       -0.51249229911404
C            0.35247201677217        1.39755146121959       -1.48859229639395
C            1.31801011019014        2.11921876192225       -2.16460791165009
C            2.68677712924914        1.95451488752945       -1.94537506984043
C            3.08114928875754        1.00348386247216       -1.01396969107343
C            2.09041170440806        0.26239890257984       -0.32292891197654
H            2.17413202447553       -2.23665243732911        1.99050032312298
H           -0.24676983026351       -1.94502182446944        1.70896608543123
H           -1.93151487467391       -2.34378347843694       -0.10814841256633
H           -6.12214296244698       -1.89484348537738        1.12702646928544
H           -7.51142159160180       -3.88240136531340        0.73908063677496
H           -6.80067043455235       -5.59296933603628       -0.89240608085495
H           -4.69149163182315       -5.29663586624167       -2.14027693692770
H           -3.30694879200524       -3.30352294946811       -1.76773905528639
H           -5.44270487215374        0.08792729228183        0.01062106591543
H           -5.80194710843656        1.71336920742802        1.71853213269054
H           -6.85758703909138        3.91339639085531        2.00228622219883
H           -5.87712100924579        5.90652179563885        0.92585071353630
H           -3.83404321087723        5.68289967323171       -0.44083245474539
H           -2.78222441273224        3.48441552099988       -0.73718986410178
H           -1.59242233927006        1.85927070926873        0.54505148178553
H           -0.68968939025488        1.55145465374460       -1.72167545802845
H            1.00453781114506        2.84328108898135       -2.90275785250435
H            3.41154345363989        2.53844865655880       -2.49035187974110

          :  Hamiltonian                  GFN2-xTB          :
         :: gradient norm              0.000092917063 Eh/a0 ::
         :: HOMO-LUMO gap              0.570673763631 eV    ::
         :: SCC energy               -95.405633410741 Eh    ::
         :: -> dispersion             -0.076002394946 Eh    ::
         :: -> Gsolv                  -0.051551779491 Eh    ::
         :: repulsion energy           1.824057201116 Eh    ::

    * Orbital Energies and Occupations

         #    Occupation            Energy/Eh            Energy/eV
      -------------------------------------------------------------
         1        2.0000           -0.7200725             -19.5942
       ...           ...                  ...                  ...
        76        2.0000           -0.4293748             -11.6839
        77        2.0000           -0.4254087             -11.5760
        78        2.0000           -0.4229631             -11.5094
        79        2.0000           -0.4206653             -11.4469
        80        2.0000           -0.4186992             -11.3934
        81        2.0000           -0.4149321             -11.2909
        82        2.0000           -0.4114771             -11.1969
        83        2.0000           -0.4114076             -11.1950
        84        2.0000           -0.4053320             -11.0296
        85        1.9946           -0.3959236             -10.7736
        86        1.8491           -0.3926126             -10.6835
        87        1.1563           -0.3893698             -10.5953
        88        1.0000           -0.3330223              -9.0620 (HOMO)
        89        0.0000           -0.3120505              -8.4913 (LUMO)
        90                         -0.2920169              -7.9462
        91                         -0.2596379              -7.0651
        92                         -0.2505982              -6.8191
        93                         -0.2457160              -6.6863
        94                         -0.2334850              -6.3534
        95                         -0.2319547              -6.3118
        96                         -0.2292551              -6.2383
        97                         -0.2291640              -6.2359
        98                         -0.2238865              -6.0923
        99                         -0.2034500              -5.5362
       ...                                ...                  ...
       170                          1.1593945              31.5487
      -------------------------------------------------------------
                  HL-Gap            0.0209718 Eh            0.5707 eV

     #   Z          covCN         q      C6AA      α(0)
     1   7 N        0.911    -0.259    26.711     7.475
     2   6 C        1.907     0.109    28.402     8.607
     3   6 C        2.942     0.069    26.452     8.435
     4   7 N        1.844    -0.142    24.869     7.391
     5   6 C        3.029     0.075    26.304     8.413
     6   6 C        3.028     0.075    26.298     8.412
     7   7 N        1.844    -0.143    24.886     7.393
     8   6 C        2.942     0.070    26.434     8.432
     9   6 C        1.907     0.109    28.401     8.607
    10   7 N        0.911    -0.258    26.700     7.473
    11   6 C        3.022    -0.011    28.273     8.722
    12   6 C        2.908    -0.027    28.666     8.779
    13   6 C        2.924    -0.032    28.794     8.800
    14   6 C        2.976     0.010    27.792     8.647
    15   6 C        2.972     0.015    27.670     8.628
    16   6 C        2.929    -0.035    28.876     8.813
    17   6 C        2.973     0.017    27.638     8.623
    18   6 C        2.977     0.014    27.701     8.633
    19   6 C        2.924    -0.031    28.784     8.798
    20   6 C        2.918    -0.028    28.702     8.785
    21   6 C        2.920    -0.027    28.671     8.781
    22   6 C        2.918    -0.028    28.700     8.785
    23   6 C        2.924    -0.032    28.793     8.800
    24   6 C        2.929    -0.038    28.956     8.825
    25   6 C        2.973     0.016    27.650     8.625
    26   6 C        2.977     0.014    27.703     8.634
    27   6 C        2.924    -0.031    28.784     8.798
    28   6 C        2.918    -0.028    28.701     8.785
    29   6 C        2.920    -0.027    28.672     8.781
    30   6 C        2.918    -0.028    28.703     8.785
    31   6 C        2.924    -0.032    28.794     8.800
    32   6 C        2.929    -0.034    28.858     8.810
    33   6 C        2.975     0.016    27.653     8.626
    34   6 C        2.918    -0.032    28.789     8.799
    35   6 C        2.918    -0.026    28.654     8.778
    36   6 C        2.909    -0.026    28.652     8.777
    37   6 C        3.022    -0.009    28.210     8.712
    38   6 C        3.146    -0.002    27.820     8.629
    39   1 H        0.926     0.047     2.354     2.399
    40   1 H        0.926     0.053     2.287     2.365
    41   1 H        0.926     0.045     2.380     2.413
    42   1 H        0.926     0.039     2.461     2.453
    43   1 H        0.926     0.036     2.498     2.471
    44   1 H        0.926     0.036     2.506     2.476
    45   1 H        0.926     0.036     2.508     2.476
    46   1 H        0.926     0.038     2.469     2.457
    47   1 H        0.926     0.045     2.379     2.412
    48   1 H        0.926     0.039     2.465     2.455
    49   1 H        0.926     0.036     2.501     2.473
    50   1 H        0.926     0.036     2.508     2.476
    51   1 H        0.926     0.036     2.501     2.473
    52   1 H        0.926     0.039     2.466     2.456
    53   1 H        0.926     0.046     2.366     2.406
    54   1 H        0.926     0.054     2.275     2.359
    55   1 H        0.926     0.051     2.302     2.372
    56   1 H        0.926     0.047     2.362     2.403

molecular dipole:
                 x           y           z       tot (Debye)
 q only:       -6.697       0.532      -0.501
   full:       -7.211       0.597      -0.567      18.447

 projected vibrational frequencies (cm⁻¹)
eigval :       -0.00    -0.00     0.00     0.00     0.00     0.00
eigval :       14.94    20.39    25.36    43.86    45.15    47.98
eigval :       51.33    54.46    78.78    93.79    97.57   104.82
eigval :      115.67   147.54   149.41   162.85   165.96   195.64
eigval :      215.00   229.45   247.48   260.86   271.46   275.57
eigval :      311.66   336.71   347.49   357.15   363.51   369.20
eigval :      371.10   376.89   390.06   411.40   432.59   446.05
eigval :      450.91   467.01   474.95   495.94   503.19   517.96
eigval :      527.33   543.32   553.25   578.07   581.42   583.55
eigval :      589.69   595.63   601.91   611.39   621.83   638.01
eigval :      655.75   659.13   665.36   669.77   673.98   678.57
eigval :      725.91   729.23   750.93   761.07   771.59   785.83
eigval :      814.22   822.51   825.73   838.52   868.33   868.66
eigval :      874.22   890.74   894.92   897.34   903.77   906.38
eigval :      906.96   917.85   928.27   929.22   931.18   931.71
eigval :      933.52   966.87   981.08   986.92  1030.76  1057.25
eigval :     1080.16  1080.96  1091.01  1113.87  1115.57  1120.48
eigval :     1122.65  1129.22  1134.19  1177.77  1179.99  1180.89
eigval :     1181.72  1191.50  1196.58  1201.37  1224.11  1234.05
eigval :     1235.49  1243.22  1246.63  1278.33  1280.19  1314.19
eigval :     1316.56  1319.53  1321.94  1324.42  1347.74  1363.43
eigval :     1375.07  1398.71  1408.25  1413.50  1416.03  1431.55
eigval :     1435.99  1443.65  1472.86  1475.20  1478.18  1518.31
eigval :     1522.83  1534.94  1540.38  1546.69  1558.41  1564.86
eigval :     1565.90  1585.68  1589.98  1598.53  2293.23  2297.93
eigval :     3070.51  3071.19  3072.27  3073.39  3078.39  3079.56
eigval :     3080.73  3081.17  3084.06  3085.17  3089.16  3090.23
eigval :     3090.60  3091.10  3092.85  3098.44  3100.37  3103.22

   temp. (K)  partition function   enthalpy   heat capacity  entropy
                                   cal/mol     cal/K/mol   cal/K/mol   J/K/mol
 298.15  VIB  0.650E+13            17111.669    107.692    105.891
         ROT  0.537E+08              888.752      2.981     38.353
         INT  0.350E+21            18000.421    110.673    144.244
         TR   0.103E+29             1481.254      4.968     44.389
         TOT                       19481.6751   115.6409   188.6337   789.2433

       T/K    H(0)-H(T)+PV         H(T)/Eh          T*S/Eh         G(T)/Eh
   ------------------------------------------------------------------------
    298.15    0.310460E-01    0.435069E+00    0.896260E-01    0.345443E+00
   ------------------------------------------------------------------------

         :::::::::::::::::::::::::::::::::::::::::::::::::::::
         ::                  THERMODYNAMIC                  ::
         :::::::::::::::::::::::::::::::::::::::::::::::::::::
         :: total free energy         -93.236133627426 Eh   ::
         ::.................................................::
         :: total energy              -93.581576209644 Eh   ::
         :: zero point energy           0.404022508206 Eh   ::
         :: G(RRHO) w/o ZPVE           -0.058579925989 Eh   ::
         :: G(RRHO) contrib.            0.345442582217 Eh   ::
         :::::::::::::::::::::::::::::::::::::::::::::::::::::

           -------------------------------------------------
          | TOTAL ENERGY              -93.581576209644 Eh   |
          | TOTAL ENTHALPY            -93.146507676015 Eh   |
          | TOTAL FREE ENERGY         -93.236133627426 Eh   |
          | GRADIENT NORM               0.000092731588 Eh/α |
          | HOMO-LUMO GAP               0.570670874300 eV   |
           -------------------------------------------------

 * finished run on 2025/09/10 at 03:36:15.494
