   * xtb version 6.7.1 (edcfbbe) compiled by 'albert@albert-system' on 2024-07-22

   ID    Z sym.   atoms
    1    7 N      1, 4, 7, 10
    2    6 C      2, 3, 5, 6, 8, 9, 11-38
    3    1 H      39-56

          program call               : xtb data2507/toluene/APDC-tPh/APDC-tPh_toluene_S0_crest.xyz --gfn 2 --gbsa toluene --ohess vtight --parallel 40 --molden --ceasefiles --namespace data2507/toluene/APDC-tPh/APDC-tPh_toluene_S0_finalOpt
      * Solvation model:               GBSA
        Solvent                        toluene
        Solvent mass                       9.2140E+01 g/mol
          :  Hamiltonian                  GFN2-xTB          :
 * total energy  :   -93.6378543 Eh     change       -0.1579565E-08 Eh
 * total energy  :   -93.6379106 Eh     change       -0.5631502E-04 Eh
 * total energy  :   -93.6379118 Eh     change       -0.1148869E-05 Eh
 * total energy  :   -93.6379222 Eh     change       -0.1041942E-04 Eh
 * total energy  :   -93.6379306 Eh     change       -0.8463321E-05 Eh
 * total energy  :   -93.6379230 Eh     change        0.7601533E-05 Eh
 * total energy  :   -93.6379360 Eh     change       -0.1295514E-04 Eh
 * total energy  :   -93.6379390 Eh     change       -0.2962559E-05 Eh
 * total energy  :   -93.6379440 Eh     change       -0.5051006E-05 Eh
 * total energy  :   -93.6379461 Eh     change       -0.2051919E-05 Eh
 * total energy  :   -93.6379507 Eh     change        0.3191915E-06 Eh
 * total energy  :   -93.6379516 Eh     change       -0.9260737E-06 Eh
 * total energy  :   -93.6379513 Eh     change        0.3558692E-06 Eh
 * total energy  :   -93.6379519 Eh     change       -0.6354110E-06 Eh
 * total energy  :   -93.6379521 Eh     change       -0.1631689E-06 Eh
 * total energy  :   -93.6379523 Eh     change       -0.2486306E-06 Eh
 * total energy  :   -93.6379526 Eh     change       -0.2475920E-06 Eh
 * total energy  :   -93.6379527 Eh     change       -0.1558650E-06 Eh
 * total energy  :   -93.6379527 Eh     change       -0.4849937E-08 Eh
   *** GEOMETRY OPTIMIZATION CONVERGED AFTER 22 ITERATIONS ***

 final structure:
================
56
 xtb: 6.7.1 (edcfbbe)
N            8.98435651839709        0.81321762902517       -0.78358028783071
C            7.88984654990420        0.55407818128022       -0.55953234422506
C            6.55282368291525        0.20520011608849       -0.25558311176998
N            5.56544634307627        0.87013525458065       -0.86887577905484
C            4.34442059891409        0.50502362938609       -0.54673485333137
C            4.08507898108335       -0.54542348978710        0.41180088078960
N            5.05872942443663       -1.19985105746587        1.00879454251170
C            6.29960470829843       -0.82642473007904        0.67610505338655
C            7.38874019441263       -1.49669223845288        1.28253693659518
N            8.29207839030012       -2.02197901492702        1.75492739777823
C            2.65662737019732       -0.69874308291194        0.54014270439364
C            1.81352067207204       -1.51973846821002        1.25882588809741
C            0.43376709821540       -1.35142571741246        1.10030089456761
C           -0.13500769332887       -0.40127407091876        0.26312631478453
C           -1.59548066090236       -0.26399120147180        0.20134465624303
C           -2.39625456231368       -1.38342858215873       -0.00452287950438
C           -3.78058710699985       -1.26332535283616       -0.06586542787570
C           -4.62362042955141       -2.44652918330374       -0.30525989479736
C           -4.35324942733273       -3.65263844677770        0.33726102857867
C           -5.14924247994599       -4.76158776444984        0.11571071772008
C           -6.22319832123879       -4.68565300424578       -0.75593827663576
C           -6.49889712128763       -3.49189636847016       -1.40241047566682
C           -5.70824170255926       -2.37997395384215       -1.17690303401654
C           -4.35798175549257       -0.00901246755323        0.10666260354530
C           -3.57502729100742        1.11833350654619        0.33511592341231
C           -4.20200638097559        2.43498606258592        0.53801924764683
C           -3.67125704429150        3.57611866603114       -0.05916357556994
C           -4.26656661440807        4.81011732745086        0.12880141345188
C           -5.39600182248024        4.92516383607995        0.92246073199725
C           -5.92857485598516        3.79751480448653        1.52565646342037
C           -5.33908324214317        2.56153604407440        1.33288306329163
C           -2.19110892087060        0.98310682466606        0.37108343566327
C            0.71469594031967        0.43857463232890       -0.51476494908310
C            0.34400332037210        1.40433430909464       -1.47745411049300
C            1.30197560903717        2.13406724224432       -2.14741225314649
C            2.67835693566449        1.96204117993848       -1.93201061981532
C            3.07521120697314        1.00736985022003       -1.02269384679731
C            2.08913601233914        0.25810177489718       -0.33539141754954
H            2.20099303333561       -2.26789161076723        1.93306345067895
H           -0.22708284383425       -1.97888545525877        1.68034374762259
H           -1.93381892750673       -2.34618914819444       -0.16322358220097
H           -3.52696822101973       -3.71533678619901        1.03056641452409
H           -4.93226080582409       -5.68914966811762        0.62594320472502
H           -6.84267367642583       -5.55324312821160       -0.93075105682708
H           -7.33278935767738       -3.42767949033348       -2.08670505967545
H           -5.91989627722218       -1.45644197705899       -1.69627111526916
H           -5.43252760614740        0.09020269524014        0.06782877395253
H           -2.79841531581859        3.49355566594899       -0.69033465636744
H           -3.84879864710290        5.68640892135743       -0.34591556440878
H           -5.85918161301601        5.88980700085987        1.07088600807669
H           -6.80645907012578        3.88215393164444        2.15015869542502
H           -5.75021469775111        1.68832685829584        1.81868806547365
H           -1.57475890596021        1.84327314884978        0.58625678111778
H           -0.70067385993901        1.55824049298995       -1.70009801993053
H            0.98727346864892        2.86591535037323       -2.87648299270233
H            3.39952807987285        2.55268905935009       -2.47541139732584

          :  Hamiltonian                  GFN2-xTB          :
         :: gradient norm              0.000135935432 Eh/a0 ::
         :: HOMO-LUMO gap              1.510465769506 eV    ::
         :: SCC energy               -95.455176671019 Eh    ::
         :: -> dispersion             -0.076130855884 Eh    ::
         :: -> Gsolv                  -0.051153276804 Eh    ::
         :: repulsion energy           1.817223924007 Eh    ::

    * Orbital Energies and Occupations

         #    Occupation            Energy/Eh            Energy/eV
      -------------------------------------------------------------
         1        2.0000           -0.7185237             -19.5520
       ...           ...                  ...                  ...
        75        2.0000           -0.4317992             -11.7499
        76        2.0000           -0.4301148             -11.7040
        77        2.0000           -0.4282215             -11.6525
        78        2.0000           -0.4253144             -11.5734
        79        2.0000           -0.4208481             -11.4519
        80        2.0000           -0.4192539             -11.4085
        81        2.0000           -0.4171716             -11.3518
        82        2.0000           -0.4079433             -11.1007
        83        2.0000           -0.4074360             -11.0869
        84        2.0000           -0.4069095             -11.0726
        85        2.0000           -0.3939214             -10.7191
        86        2.0000           -0.3904505             -10.6247
        87        2.0000           -0.3902829             -10.6201 (HOMO)
        88                         -0.3347743              -9.1097 (LUMO)
        89                         -0.3198483              -8.7035
        90                         -0.2963838              -8.0650
        91                         -0.2561204              -6.9694
        92                         -0.2550876              -6.9413
        93                         -0.2478607              -6.7446
        94                         -0.2453134              -6.6753
        95                         -0.2368189              -6.4442
        96                         -0.2257296              -6.1424
        97                         -0.2254971              -6.1361
        98                         -0.2238756              -6.0920
       ...                                ...                  ...
       170                          1.1465688              31.1997
      -------------------------------------------------------------
                  HL-Gap            0.0555086 Eh            1.5105 eV

     #   Z          covCN         q      C6AA      α(0)
     1   7 N        0.911    -0.227    25.972     7.371
     2   6 C        1.910     0.114    28.297     8.591
     3   6 C        2.978     0.096    25.868     8.343
     4   7 N        1.842    -0.234    26.977     7.697
     5   6 C        3.070     0.090    25.934     8.350
     6   6 C        3.070     0.090    25.932     8.350
     7   7 N        1.842    -0.235    27.005     7.701
     8   6 C        2.978     0.097    25.836     8.338
     9   6 C        1.910     0.114    28.290     8.590
    10   7 N        0.911    -0.226    25.943     7.367
    11   6 C        3.032    -0.014    28.325     8.730
    12   6 C        2.910    -0.010    28.265     8.718
    13   6 C        2.924    -0.030    28.757     8.794
    14   6 C        2.976     0.028    27.375     8.582
    15   6 C        2.974     0.012    27.748     8.641
    16   6 C        2.929    -0.039    28.970     8.827
    17   6 C        2.973     0.014    27.703     8.634
    18   6 C        2.977     0.009    27.801     8.649
    19   6 C        2.925    -0.034    28.853     8.809
    20   6 C        2.918    -0.030    28.750     8.793
    21   6 C        2.920    -0.031    28.772     8.796
    22   6 C        2.918    -0.030    28.746     8.792
    23   6 C        2.925    -0.034    28.845     8.808
    24   6 C        2.930    -0.037    28.917     8.819
    25   6 C        2.973     0.013    27.718     8.636
    26   6 C        2.977     0.009    27.803     8.649
    27   6 C        2.925    -0.035    28.860     8.810
    28   6 C        2.918    -0.030    28.753     8.793
    29   6 C        2.920    -0.031    28.771     8.796
    30   6 C        2.918    -0.030    28.743     8.792
    31   6 C        2.925    -0.034    28.842     8.807
    32   6 C        2.929    -0.039    28.966     8.826
    33   6 C        2.976     0.018    27.591     8.616
    34   6 C        2.919    -0.016    28.419     8.742
    35   6 C        2.919    -0.023    28.590     8.768
    36   6 C        2.911    -0.009    28.251     8.716
    37   6 C        3.031    -0.010    28.236     8.716
    38   6 C        3.147    -0.005    27.884     8.638
    39   1 H        0.926     0.061     2.181     2.310
    40   1 H        0.926     0.062     2.180     2.309
    41   1 H        0.926     0.042     2.423     2.434
    42   1 H        0.926     0.034     2.526     2.485
    43   1 H        0.926     0.032     2.561     2.502
    44   1 H        0.926     0.031     2.572     2.508
    45   1 H        0.926     0.032     2.560     2.502
    46   1 H        0.926     0.035     2.520     2.482
    47   1 H        0.926     0.042     2.418     2.432
    48   1 H        0.926     0.035     2.518     2.481
    49   1 H        0.926     0.032     2.553     2.499
    50   1 H        0.926     0.031     2.574     2.509
    51   1 H        0.926     0.032     2.565     2.504
    52   1 H        0.926     0.034     2.527     2.486
    53   1 H        0.926     0.043     2.412     2.428
    54   1 H        0.926     0.067     2.115     2.274
    55   1 H        0.926     0.062     2.170     2.304
    56   1 H        0.926     0.062     2.177     2.307

molecular dipole:
                 x           y           z       tot (Debye)
 q only:       -5.301       0.602      -0.581
   full:       -5.856       0.664      -0.636      15.068

 projected vibrational frequencies (cm⁻¹)
eigval :       -0.00    -0.00     0.00     0.00     0.00     0.00
eigval :       15.89    20.96    26.91    41.36    47.97    48.52
eigval :       52.54    55.44    79.51    92.83    98.14   110.69
eigval :      114.97   145.94   149.73   159.03   165.53   192.29
eigval :      219.26   228.37   250.15   266.58   273.49   281.25
eigval :      313.02   320.82   339.45   362.20   370.98   373.03
eigval :      377.35   389.68   394.17   418.03   435.34   463.07
eigval :      470.81   483.96   497.01   506.39   529.15   531.26
eigval :      545.70   550.96   581.35   583.51   586.22   589.46
eigval :      605.40   606.35   618.77   634.07   650.51   668.98
eigval :      672.04   674.43   678.87   682.50   693.09   734.61
eigval :      736.63   748.71   757.58   759.69   778.14   804.40
eigval :      827.53   836.06   836.36   849.13   876.74   877.99
eigval :      892.63   899.35   903.68   906.28   911.73   913.93
eigval :      919.02   929.44   930.11   932.03   932.48   934.97
eigval :      953.35   985.26   989.24  1012.58  1061.54  1081.01
eigval :     1084.18  1091.00  1112.76  1119.74  1121.41  1122.64
eigval :     1130.83  1132.35  1165.93  1179.87  1180.47  1181.90
eigval :     1196.86  1199.56  1201.20  1230.02  1239.46  1241.59
eigval :     1244.22  1246.11  1280.18  1281.70  1312.60  1315.51
eigval :     1317.43  1319.96  1322.20  1326.46  1343.73  1359.53
eigval :     1376.19  1393.37  1411.09  1419.34  1421.97  1435.36
eigval :     1441.13  1447.24  1476.28  1482.43  1482.99  1517.55
eigval :     1524.53  1563.61  1570.47  1574.16  1581.16  1582.92
eigval :     1588.03  1598.29  1598.65  1599.81  2358.83  2360.64
eigval :     3067.70  3068.03  3069.70  3069.88  3076.98  3077.43
eigval :     3080.88  3081.37  3086.50  3087.21  3087.77  3088.26
eigval :     3088.57  3089.32  3090.78  3099.22  3100.59  3104.05

   temp. (K)  partition function   enthalpy   heat capacity  entropy
                                   cal/mol     cal/K/mol   cal/K/mol   J/K/mol
 298.15  VIB  0.426E+13            16852.579    106.056    104.460
         ROT  0.536E+08              888.752      2.981     38.350
         INT  0.228E+21            17741.332    109.036    142.810
         TR   0.103E+29             1481.254      4.968     44.389
         TOT                       19222.5857   114.0046   187.1994   783.2422

       T/K    H(0)-H(T)+PV         H(T)/Eh          T*S/Eh         G(T)/Eh
   ------------------------------------------------------------------------
    298.15    0.306331E-01    0.437899E+00    0.889445E-01    0.348955E+00
   ------------------------------------------------------------------------

         :::::::::::::::::::::::::::::::::::::::::::::::::::::
         ::                  THERMODYNAMIC                  ::
         :::::::::::::::::::::::::::::::::::::::::::::::::::::
         :: total free energy         -93.288997846999 Eh   ::
         ::.................................................::
         :: total energy              -93.637952750315 Eh   ::
         :: zero point energy           0.407266225261 Eh   ::
         :: G(RRHO) w/o ZPVE           -0.058311321945 Eh   ::
         :: G(RRHO) contrib.            0.348954903316 Eh   ::
         :::::::::::::::::::::::::::::::::::::::::::::::::::::

           -------------------------------------------------
          | TOTAL ENERGY              -93.637952750315 Eh   |
          | TOTAL ENTHALPY            -93.200053384805 Eh   |
          | TOTAL FREE ENERGY         -93.288997846999 Eh   |
          | GRADIENT NORM               0.000135966259 Eh/α |
          | HOMO-LUMO GAP               1.510466697876 eV   |
           -------------------------------------------------

 * finished run on 2025/09/10 at 03:33:10.018
