   * xtb version 6.7.1 (edcfbbe) compiled by 'albert@albert-system' on 2024-07-22

   ID    Z sym.   atoms
    1    6 C      1-8, 10-13, 16-21, 23-36
    2    7 N      9
    3    5 B      14
    4    8 O      15, 22
    5    1 H      37-78

          program call               : xtb data2507/toluene/CN-TPA/CN-TPA.xyz --gfn 2 --gbsa toluene --ohess vtight --parallel 40 --molden --ceasefiles --namespace data2507/toluene/CN-TPA/CN-TPA_toluene_S0_preOpt
      * Solvation model:               GBSA
        Solvent                        toluene
        Solvent mass                       9.2140E+01 g/mol
          :  Hamiltonian                  GFN2-xTB          :
 * total energy  :  -102.3336464 Eh     change       -0.1892658E-08 Eh
 * total energy  :  -102.3767603 Eh     change       -0.4311389E-01 Eh
 * total energy  :  -102.3907925 Eh     change       -0.1403222E-01 Eh
 * total energy  :  -102.3953430 Eh     change       -0.4550499E-02 Eh
 * total energy  :  -102.3988240 Eh     change       -0.3480966E-02 Eh
 * total energy  :  -102.4016378 Eh     change       -0.2813779E-02 Eh
 * total energy  :  -102.4041778 Eh     change       -0.2540071E-02 Eh
 * total energy  :  -102.4062879 Eh     change       -0.2110112E-02 Eh
 * total energy  :  -102.4077895 Eh     change       -0.1501574E-02 Eh
 * total energy  :  -102.4087882 Eh     change       -0.9986563E-03 Eh
 * total energy  :  -102.4168451 Eh     change       -0.8201337E-06 Eh
 * total energy  :  -102.4168459 Eh     change       -0.8716599E-06 Eh
 * total energy  :  -102.4168469 Eh     change       -0.9281566E-06 Eh
 * total energy  :  -102.4168478 Eh     change       -0.9776274E-06 Eh
 * total energy  :  -102.4168488 Eh     change       -0.1010826E-05 Eh
 * total energy  :  -102.4168499 Eh     change       -0.1026377E-05 Eh
 * total energy  :  -102.4168509 Eh     change       -0.1022412E-05 Eh
 * total energy  :  -102.4168519 Eh     change       -0.1001833E-05 Eh
 * total energy  :  -102.4168519 Eh     change       -0.4234110E-08 Eh
   *** GEOMETRY OPTIMIZATION CONVERGED AFTER 185 ITERATIONS ***

 final structure:
================
78
 xtb: 6.7.1 (edcfbbe)
C           -3.79844338074926        5.58089175290469       -1.79991353659244
C           -3.75167115996784        5.15301280124208       -0.32540965920919
C           -5.18106313084580        4.99496429460616        0.21453059851242
C           -3.06143975831509        6.26363866042339        0.47235893676793
C           -3.02832909402463        3.81901370115145       -0.21901698923831
C           -3.54062444772024        2.70209340933270       -0.87705185682027
C           -2.92189461552885        1.47091994092264       -0.81302849310563
C           -1.75414413192135        1.30580075184192       -0.07063976465524
N           -1.12479862574315        0.05621312607787        0.01524255151020
C            0.26805787640339       -0.02432170795188        0.01304492666763
C            0.92996233867894       -0.97248224903052        0.79646987717257
C            2.30678876851196       -1.04463260052659        0.78835681561638
C            3.08100241602991       -0.18534304279576        0.00471400650714
B            4.63904100546257       -0.27411286758573       -0.00142028062734
O            5.44259063872971        0.48067226756835       -0.81198016850978
C            6.79476704750596        0.02856807464304       -0.67222273651386
C            7.73284585654555        1.23366297018279       -0.64378761338791
C            7.11007797890435       -0.82308493930220       -1.90909367735936
C            6.75219335535900       -0.81270303185642        0.65613442179747
C            7.16540014088494       -0.00082576858869        1.89093776706289
C            7.55248197148071       -2.11321030394946        0.62292646690197
O            5.35938104216383       -1.11387224557058        0.80374771922612
C            2.40547181725524        0.75792300037137       -0.77358062925018
C            1.02954001586193        0.84351536070018       -0.77319306427139
C           -1.90003563571962       -1.10762561278042        0.09698160276848
C           -3.09684122035332       -1.12137599116284        0.81125028673464
C           -3.86399623034212       -2.26625642835743        0.86794608341452
C           -3.47657152504497       -3.44494222677777        0.23275933401283
C           -4.36460015935212       -4.67669999726699        0.32393721937103
C           -4.54060239818348       -5.06444032978263        1.79979650961445
C           -3.77980832779937       -5.88199935481056       -0.41883128544034
C           -5.73290382968102       -4.35137613811676       -0.29406115537802
C           -2.27583629574090       -3.42185930116257       -0.46780991621945
C           -1.50255514696745       -2.27830024652761       -0.54275569731364
C           -1.23229096837290        2.41345496647716        0.59118644797563
C           -1.85810669142763        3.64358267280019        0.51098511705716
H           -2.78907102761704        5.68081241990422       -2.19460816429983
H           -4.33043939031068        4.85326190880701       -2.40670589330514
H           -4.30329381836854        6.54002988184174       -1.89594291654036
H           -5.74274897226648        4.26188322673128       -0.35783185613997
H           -5.15701787765565        4.67103713644448        1.25333772520001
H           -5.70856023549000        5.94521327730108        0.16135657844505
H           -2.05146356777052        6.43785844850405        0.10815376160281
H           -3.02171416104318        6.01797988343465        1.53127141296777
H           -3.62211911382040        7.19000930469311        0.36296011625469
H           -4.44245346250936        2.78701084226154       -1.46465218236547
H           -3.34105672999662        0.62635501579492       -1.34092704036655
H            0.35231683376687       -1.64501036595873        1.41450096158256
H            2.80925076708375       -1.77590288077279        1.40455843122748
H            8.75178927032238        0.90879401001173       -0.45458919248110
H            7.69460478780542        1.73142168089537       -1.60987751412968
H            7.43178089473638        1.94900832887689        0.11489993089071
H            6.43517806554216       -1.67409301028378       -1.96397852654808
H            6.95409866849611       -0.21391083298799       -2.79690294117723
H            8.13873123143095       -1.16884171428357       -1.89225966806379
H            8.22560525323950        0.23029781988721        1.86865371474447
H            6.58784462130133        0.91885296615435        1.94892795420335
H            6.94831649506438       -0.58932607878550        2.77984153878736
H            7.17073480503229       -2.79104383968434       -0.13389253400030
H            8.59977529613931       -1.90169634677021        0.42783770611906
H            7.46542645493527       -2.60402054763945        1.58939947844786
H            2.98457832577086        1.42771320462649       -1.39242289298561
H            0.52879672945757        1.57838257717653       -1.38730626142004
H           -3.42257379788415       -0.22654986023851        1.32193105190760
H           -4.78489739411403       -2.23263271784118        1.43064041393862
H           -3.57237557155922       -5.26780667363097        2.25341577050497
H           -5.15492167675459       -5.95891329400295        1.88111205910755
H           -5.02095964001031       -4.26988912732057        2.36414324436344
H           -2.81438832354043       -6.16565414898988       -0.00574911195088
H           -4.45209408937972       -6.73172790742901       -0.31607351274491
H           -3.66607270797465       -5.67080266002266       -1.47976311479774
H           -5.61411364170916       -4.05301576221812       -1.33405644164324
H           -6.37864762512835       -5.22638867257544       -0.25725315652348
H           -6.22517485665569       -3.54206183510278        0.23828827085484
H           -1.92288964216046       -4.30054657379039       -0.98271817967897
H           -0.58018717411034       -2.28937267451972       -1.10583571557634
H           -0.32874677150332        2.30651933463635        1.17449155136701
H           -1.41389372679887        4.46830388950387        1.04411097940001

          :  Hamiltonian                  GFN2-xTB          :
         :: gradient norm              0.000053674964 Eh/a0 ::
         :: HOMO-LUMO gap              2.837859084155 eV    ::
         :: SCC energy              -104.030706447269 Eh    ::
         :: -> dispersion             -0.086279756016 Eh    ::
         :: -> Gsolv                  -0.040566178517 Eh    ::
         :: repulsion energy           1.613854544781 Eh    ::

    * Orbital Energies and Occupations

         #    Occupation            Energy/Eh            Energy/eV
      -------------------------------------------------------------
         1        2.0000           -0.6947230             -18.9044
       ...           ...                  ...                  ...
        83        2.0000           -0.4179711             -11.3736
        84        2.0000           -0.4162121             -11.3257
        85        2.0000           -0.4124716             -11.2239
        86        2.0000           -0.4106532             -11.1744
        87        2.0000           -0.4096255             -11.1465
        88        2.0000           -0.4066238             -11.0648
        89        2.0000           -0.4028925             -10.9633
        90        2.0000           -0.4021349             -10.9426
        91        2.0000           -0.3992324             -10.8637
        92        2.0000           -0.3983860             -10.8406
        93        2.0000           -0.3963851             -10.7862
        94        2.0000           -0.3920058             -10.6670
        95        2.0000           -0.3431020              -9.3363 (HOMO)
        96                         -0.2388126              -6.4984 (LUMO)
        97                         -0.2234151              -6.0794
        98                         -0.2207020              -6.0056
        99                         -0.2156271              -5.8675
       100                         -0.2149596              -5.8493
       101                         -0.1956613              -5.3242
       102                         -0.1364852              -3.7140
       103                         -0.0940213              -2.5584
       104                         -0.0803557              -2.1866
       105                         -0.0602385              -1.6392
       106                          0.0011085               0.0302
       ...                                ...                  ...
       186                          0.6742192              18.3464
      -------------------------------------------------------------
                  HL-Gap            0.1042894 Eh            2.8379 eV

     #   Z          covCN         q      C6AA      α(0)
     1   6 C        3.761    -0.105    22.557     6.770
     2   6 C        3.902     0.025    20.095     6.372
     3   6 C        3.761    -0.105    22.558     6.771
     4   6 C        3.761    -0.107    22.599     6.777
     5   6 C        2.972     0.001    28.004     8.680
     6   6 C        2.927    -0.037    28.912     8.818
     7   6 C        2.921    -0.050    29.249     8.869
     8   6 C        2.924     0.061    26.624     8.462
     9   7 N        2.751    -0.080    22.805     7.093
    10   6 C        2.924     0.070    26.439     8.432
    11   6 C        2.918    -0.050    29.246     8.868
    12   6 C        2.922    -0.030    28.756     8.794
    13   6 C        2.886    -0.092    30.311     9.026
    14   5 B        2.650     0.433    15.583     6.652
    15   8 O        1.637    -0.387    20.611     6.128
    16   6 C        3.854     0.128    18.471     6.113
    17   6 C        3.755    -0.119    22.837     6.814
    18   6 C        3.755    -0.117    22.788     6.807
    19   6 C        3.854     0.128    18.471     6.113
    20   6 C        3.755    -0.117    22.788     6.807
    21   6 C        3.755    -0.119    22.837     6.814
    22   8 O        1.637    -0.387    20.612     6.128
    23   6 C        2.922    -0.030    28.756     8.794
    24   6 C        2.919    -0.050    29.247     8.868
    25   6 C        2.923     0.061    26.625     8.462
    26   6 C        2.921    -0.051    29.260     8.871
    27   6 C        2.927    -0.037    28.914     8.818
    28   6 C        2.972     0.000    28.014     8.682
    29   6 C        3.902     0.025    20.096     6.372
    30   6 C        3.761    -0.105    22.557     6.771
    31   6 C        3.761    -0.107    22.598     6.777
    32   6 C        3.761    -0.105    22.554     6.770
    33   6 C        2.925    -0.041    29.016     8.834
    34   6 C        2.921    -0.052    29.285     8.874
    35   6 C        2.922    -0.051    29.272     8.872
    36   6 C        2.925    -0.041    29.014     8.833
    37   1 H        0.925     0.032     2.552     2.498
    38   1 H        0.925     0.037     2.495     2.470
    39   1 H        0.925     0.039     2.463     2.454
    40   1 H        0.925     0.037     2.491     2.468
    41   1 H        0.925     0.033     2.550     2.497
    42   1 H        0.925     0.039     2.465     2.455
    43   1 H        0.925     0.036     2.507     2.476
    44   1 H        0.925     0.036     2.506     2.476
    45   1 H        0.925     0.038     2.479     2.462
    46   1 H        0.926     0.033     2.546     2.495
    47   1 H        0.926     0.029     2.604     2.524
    48   1 H        0.926     0.033     2.544     2.494
    49   1 H        0.926     0.034     2.534     2.489
    50   1 H        0.925     0.051     2.310     2.377
    51   1 H        0.925     0.055     2.255     2.348
    52   1 H        0.925     0.051     2.302     2.373
    53   1 H        0.925     0.039     2.457     2.451
    54   1 H        0.925     0.052     2.297     2.370
    55   1 H        0.925     0.053     2.279     2.361
    56   1 H        0.925     0.053     2.279     2.361
    57   1 H        0.925     0.039     2.458     2.452
    58   1 H        0.925     0.052     2.297     2.370
    59   1 H        0.925     0.051     2.302     2.373
    60   1 H        0.925     0.051     2.310     2.377
    61   1 H        0.925     0.055     2.254     2.348
    62   1 H        0.926     0.034     2.533     2.489
    63   1 H        0.926     0.033     2.547     2.496
    64   1 H        0.926     0.028     2.608     2.526
    65   1 H        0.926     0.033     2.551     2.498
    66   1 H        0.925     0.032     2.553     2.499
    67   1 H        0.925     0.039     2.466     2.456
    68   1 H        0.925     0.037     2.494     2.470
    69   1 H        0.925     0.036     2.508     2.477
    70   1 H        0.925     0.038     2.481     2.463
    71   1 H        0.925     0.036     2.507     2.476
    72   1 H        0.925     0.032     2.552     2.498
    73   1 H        0.925     0.039     2.465     2.455
    74   1 H        0.925     0.037     2.493     2.469
    75   1 H        0.926     0.039     2.465     2.455
    76   1 H        0.926     0.026     2.637     2.539
    77   1 H        0.926     0.027     2.634     2.538
    78   1 H        0.926     0.039     2.461     2.453

molecular dipole:
                 x           y           z       tot (Debye)
 q only:        0.253       0.008      -0.006
   full:        0.404      -0.001      -0.009       1.027

 projected vibrational frequencies (cm⁻¹)
eigval :       -0.00    -0.00    -0.00     0.00     0.00     0.00
eigval :       12.32    15.26    16.78    23.50    24.21    31.59
eigval :       47.34    52.55    56.25    64.18    68.48    93.57
eigval :      101.81   102.43   126.29   141.52   172.86   174.44
eigval :      184.42   186.99   201.26   217.38   224.58   225.89
eigval :      229.19   232.73   253.46   256.20   256.45   268.24
eigval :      274.72   280.39   289.86   306.19   311.39   314.24
eigval :      316.93   318.43   343.82   353.71   356.74   361.69
eigval :      372.68   375.93   381.80   383.72   387.65   393.02
eigval :      394.22   421.36   429.51   439.82   448.15   460.34
eigval :      463.86   485.17   499.44   515.65   531.63   537.61
eigval :      554.58   578.63   581.63   589.71   604.72   607.21
eigval :      610.46   654.77   681.72   686.05   689.78   695.02
eigval :      716.72   756.80   810.06   810.31   814.31   817.03
eigval :      868.36   869.75   874.52   874.92   880.90   886.76
eigval :      895.60   912.82   914.65   921.92   925.90   927.32
eigval :      928.16   932.12   933.03   946.40   949.11   958.13
eigval :      959.64   960.62   962.31   962.45   963.05   963.73
eigval :      979.55   999.70  1000.99  1006.11  1020.28  1024.67
eigval :     1032.05  1034.75  1035.04  1036.73  1101.23  1101.29
eigval :     1133.97  1142.11  1143.28  1150.39  1151.73  1153.49
eigval :     1160.14  1186.95  1187.58  1196.10  1207.70  1209.03
eigval :     1223.35  1224.97  1225.39  1225.53  1231.64  1232.54
eigval :     1246.44  1268.09  1276.59  1280.11  1283.03  1288.18
eigval :     1296.80  1310.18  1319.21  1319.94  1326.07  1328.41
eigval :     1382.43  1387.86  1395.38  1396.76  1399.04  1401.69
eigval :     1402.20  1403.39  1406.32  1411.82  1414.08  1425.12
eigval :     1427.63  1457.32  1468.00  1473.68  1479.49  1482.51
eigval :     1486.56  1487.27  1488.75  1489.00  1490.27  1492.21
eigval :     1492.34  1498.19  1499.97  1500.33  1503.03  1503.24
eigval :     1504.45  1509.81  1510.68  1516.38  1516.51  1517.86
eigval :     1546.19  1563.20  1568.11  1587.72  1600.96  1605.15
eigval :     3017.89  3019.92  3020.17  3020.75  3023.17  3023.95
eigval :     3024.77  3025.09  3025.89  3026.93  3027.43  3027.44
eigval :     3030.31  3030.77  3034.89  3035.43  3035.73  3037.27
eigval :     3038.21  3039.43  3043.63  3043.76  3044.41  3044.96
eigval :     3047.04  3047.41  3051.97  3054.59  3059.89  3061.34
eigval :     3071.11  3072.25  3072.51  3073.94  3074.80  3075.96
eigval :     3083.20  3085.99  3086.15  3087.11  3109.92  3110.39

   temp. (K)  partition function   enthalpy   heat capacity  entropy
                                   cal/mol     cal/K/mol   cal/K/mol   J/K/mol
 298.15  VIB  0.560E+17            21808.020    133.789    134.731
         ROT  0.609E+08              888.752      2.981     38.601
         INT  0.341E+25            22696.772    136.770    173.332
         TR   0.103E+29             1481.254      4.968     44.395
         TOT                       24178.0259   141.7378   217.7272   910.9706

       T/K    H(0)-H(T)+PV         H(T)/Eh          T*S/Eh         G(T)/Eh
   ------------------------------------------------------------------------
    298.15    0.385301E-01    0.698528E+00    0.103449E+00    0.595079E+00
   ------------------------------------------------------------------------

         :::::::::::::::::::::::::::::::::::::::::::::::::::::
         ::                  THERMODYNAMIC                  ::
         :::::::::::::::::::::::::::::::::::::::::::::::::::::
         :: total free energy        -101.821773265591 Eh   ::
         ::.................................................::
         :: total energy             -102.416851904207 Eh   ::
         :: zero point energy           0.659997724469 Eh   ::
         :: G(RRHO) w/o ZPVE           -0.064919085853 Eh   ::
         :: G(RRHO) contrib.            0.595078638616 Eh   ::
         :::::::::::::::::::::::::::::::::::::::::::::::::::::

           -------------------------------------------------
          | TOTAL ENERGY             -102.416851904207 Eh   |
          | TOTAL ENTHALPY           -101.718324042993 Eh   |
          | TOTAL FREE ENERGY        -101.821773265591 Eh   |
          | GRADIENT NORM               0.000053677024 Eh/α |
          | HOMO-LUMO GAP               2.837858997134 eV   |
           -------------------------------------------------

 * finished run on 2025/07/18 at 23:14:25.518
