   * xtb version 6.7.1 (edcfbbe) compiled by 'albert@albert-system' on 2024-07-22

   ID    Z sym.   atoms
    1    6 C      1-8, 10-13, 16-21, 23-36
    2    7 N      9
    3    5 B      14
    4    8 O      15, 22
    5    1 H      37-78

          program call               : xtb data2507/toluene/CN-TPA/CN-TPA_toluene_S0_crest.xyz --gfn 2 --gbsa toluene --ohess vtight --parallel 40 --molden --ceasefiles --namespace data2507/toluene/CN-TPA/CN-TPA_toluene_S0_finalOpt
      * Solvation model:               GBSA
        Solvent                        toluene
        Solvent mass                       9.2140E+01 g/mol
          :  Hamiltonian                  GFN2-xTB          :
 * total energy  :  -102.4168180 Eh     change       -0.4902319E-09 Eh
 * total energy  :  -102.4168851 Eh     change       -0.6714501E-04 Eh
 * total energy  :  -102.4169154 Eh     change       -0.3033756E-04 Eh
 * total energy  :  -102.4169262 Eh     change       -0.1071354E-04 Eh
 * total energy  :  -102.4169365 Eh     change       -0.1036741E-04 Eh
 * total energy  :  -102.4169451 Eh     change       -0.8536045E-05 Eh
 * total energy  :  -102.4169553 Eh     change       -0.1026180E-04 Eh
 * total energy  :  -102.4169626 Eh     change       -0.7325972E-05 Eh
 * total energy  :  -102.4169660 Eh     change       -0.3327929E-05 Eh
 * total energy  :  -102.4169672 Eh     change       -0.1230298E-05 Eh
 * total energy  :  -102.4169811 Eh     change       -0.6483022E-06 Eh
 * total energy  :  -102.4169808 Eh     change        0.2617412E-06 Eh
 * total energy  :  -102.4169813 Eh     change       -0.5172464E-06 Eh
 * total energy  :  -102.4169815 Eh     change       -0.1895135E-06 Eh
 * total energy  :  -102.4169818 Eh     change       -0.2657110E-06 Eh
 * total energy  :  -102.4169819 Eh     change       -0.1342482E-06 Eh
 * total energy  :  -102.4169820 Eh     change       -0.1218971E-06 Eh
 * total energy  :  -102.4169821 Eh     change       -0.1063025E-06 Eh
 * total energy  :  -102.4169822 Eh     change       -0.6670861E-07 Eh
   *** GEOMETRY OPTIMIZATION CONVERGED AFTER 31 ITERATIONS ***

 final structure:
================
78
 xtb: 6.7.1 (edcfbbe)
C           -3.21071185896950        6.07993273154130        0.50035540594301
C           -4.14639360445913        4.98186064962472       -0.02721069938435
C           -4.55549070319634        5.29960944463032       -1.47339251249522
C           -5.41175077635343        4.97789424695055        0.83605038890476
C           -3.41300764643877        3.64938939473130        0.00157074170472
C           -2.24055416606598        3.49163944360006       -0.73581340133322
C           -1.53932118253221        2.30398630332627       -0.74465086005850
C           -1.98553130918881        1.21567521281979        0.00296336084283
N           -1.28060833497249        0.00348716240513        0.00138921307996
C            0.11291141030171        0.00027941266610        0.00050487867062
C            0.82451435047598       -0.99689824999933       -0.67159766827064
C            2.20298361705776       -0.99520604710509       -0.66551928519592
C            2.93229578814331       -0.00614943115317       -0.00086185157987
B            4.49232630936525       -0.00955161585894       -0.00135083911244
O            5.25752526499970        0.93442277898108        0.62738230320060
C            6.63302050171428        0.54215502059148        0.55527388040823
C            7.01666977684744        0.00465489468405        1.94041808961459
C            7.49191093430935        1.76619120258402        0.24174762382155
C            6.63050130700230       -0.56993334706627       -0.55892728690251
C            7.48458547240664       -1.79741148796478       -0.24574074421430
C            7.01574101633485       -0.03394785434030       -1.94421194633934
O            5.25337276706840       -0.95662514549712       -0.63044262588703
C            2.20814079485068        0.98628482146201        0.66440094533921
C            0.82971824987112        0.99427127414864        0.67180218130098
C           -1.99160315980307       -1.20507106066295        0.00179756251239
C           -1.54845856313144       -2.29609416254828        0.74730155896482
C           -2.25598152280637       -3.48002514477811        0.74050487170665
C           -3.43202321418347       -3.63122456824594        0.00747631200367
C           -4.17247371261512       -4.95973765327588        0.03853873073794
C           -4.57662548005067       -5.27670870659347        1.48628652056809
C           -3.24516543745105       -6.06229992668268       -0.49440139535649
C           -5.44182049173158       -4.94821599364753       -0.81878492745173
C           -3.86817469269290       -2.53319440848140       -0.72523417959872
C           -3.16381462261999       -1.34344909545073       -0.73522747104872
C           -3.15430653656489        1.36048690952178        0.74415102934033
C           -3.85233122596534        2.55398375661568        0.73630835662755
H           -2.90020503159309        5.85270730382724        1.51849778227329
H           -2.31954063418871        6.17039603402215       -0.11468905984187
H           -3.72312838082833        7.03987438520015        0.50177270499747
H           -3.68777665281449        5.38056521115978       -2.12234230364349
H           -5.20046244631877        4.51427472833481       -1.86301350830132
H           -5.09791658702102        6.24215381974102       -1.51067868428759
H           -5.17337754110104        4.78373369957352        1.87939835766563
H           -6.12157535908019        4.23138128176823        0.48681211602235
H           -5.89296194098903        5.95230034154879        0.77727798929666
H           -1.86039842941644        4.30978151819174       -1.32906361762730
H           -0.63802694421776        2.21125427585800       -1.33365190068522
H            0.28416238532784       -1.76776730919473       -1.20219158767119
H            2.74225539232547       -1.76917775689349       -1.19198293862371
H            8.06338739225512       -0.28038188481844        1.97181533198598
H            6.83933181955854        0.78714473425331        2.67519042587964
H            6.39375759887407       -0.84741249032935        2.20208536144116
H            7.13903078029466        2.27683486041999       -0.64859824027828
H            7.42955594339097        2.46162575296777        1.07542496602516
H            8.52806754456945        1.47058817365904        0.10596701675730
H            7.41914538752395       -2.49257084615376       -1.07941201615972
H            8.52196503717711       -1.50597467382192       -0.11030446022185
H            7.12996229441471       -2.30666241924413        0.64471557754052
H            8.06354201939022        0.24704188018239       -1.97600339874416
H            6.83511425729923       -0.81575625454336       -2.67890452496266
H            6.39601205815315        0.82051008719240       -2.20565364831128
H            2.75145585407103        1.75778356072629        1.19033163946285
H            0.29342055548286        1.76760563019255        1.20291910498907
H           -0.64465979922665       -2.20837400594600        1.33321992652748
H           -1.87797763299396       -4.30043300180666        1.33201183048486
H           -3.70639842006644       -5.36323705436579        2.13112805667132
H           -5.12413625369179       -6.21625093110111        1.52512063123192
H           -5.21539299788375       -4.48820322708586        1.87971249483564
H           -2.35123428182485       -6.15749932097724        0.11591226190186
H           -3.76245680950691       -7.01962472888806       -0.49351001886733
H           -2.93887207146458       -5.83620748114956       -1.51407414188930
H           -5.20730311133546       -4.75477741441488       -1.86313530460040
H           -5.92815722833777       -5.91996169526885       -0.75830990685996
H           -6.14578923114899       -4.19795100380649       -0.46578441330235
H           -4.76880123647959       -2.58868574536277       -1.31468151217715
H           -3.52423800999053       -0.51013085405167       -1.32134864703754
H           -3.51701447727125        0.52929368703030        1.33186685440884
H           -4.75044761437653        2.61449138023782        1.32907831903187

          :  Hamiltonian                  GFN2-xTB          :
         :: gradient norm              0.000077430903 Eh/a0 ::
         :: HOMO-LUMO gap              2.856654608130 eV    ::
         :: SCC energy              -104.030865373234 Eh    ::
         :: -> dispersion             -0.086275897901 Eh    ::
         :: -> Gsolv                  -0.040639550051 Eh    ::
         :: repulsion energy           1.613883170213 Eh    ::

    * Orbital Energies and Occupations

         #    Occupation            Energy/Eh            Energy/eV
      -------------------------------------------------------------
         1        2.0000           -0.6944582             -18.8972
       ...           ...                  ...                  ...
        83        2.0000           -0.4174933             -11.3606
        84        2.0000           -0.4172385             -11.3536
        85        2.0000           -0.4124197             -11.2225
        86        2.0000           -0.4106245             -11.1737
        87        2.0000           -0.4091162             -11.1326
        88        2.0000           -0.4065737             -11.0634
        89        2.0000           -0.4028443             -10.9620
        90        2.0000           -0.4019845             -10.9386
        91        2.0000           -0.3992740             -10.8648
        92        2.0000           -0.3987479             -10.8505
        93        2.0000           -0.3953464             -10.7579
        94        2.0000           -0.3926282             -10.6840
        95        2.0000           -0.3432335              -9.3399 (HOMO)
        96                         -0.2382534              -6.4832 (LUMO)
        97                         -0.2236715              -6.0864
        98                         -0.2206999              -6.0055
        99                         -0.2153359              -5.8596
       100                         -0.2151314              -5.8540
       101                         -0.1961866              -5.3385
       102                         -0.1353703              -3.6836
       103                         -0.0941957              -2.5632
       104                         -0.0808010              -2.1987
       105                         -0.0589859              -1.6051
       106                          0.0012905               0.0351
       ...                                ...                  ...
       186                          0.6732935              18.3212
      -------------------------------------------------------------
                  HL-Gap            0.1049802 Eh            2.8567 eV

     #   Z          covCN         q      C6AA      α(0)
     1   6 C        3.761    -0.105    22.556     6.770
     2   6 C        3.902     0.025    20.095     6.372
     3   6 C        3.761    -0.105    22.557     6.770
     4   6 C        3.761    -0.108    22.602     6.777
     5   6 C        2.972     0.001    27.999     8.680
     6   6 C        2.927    -0.037    28.908     8.817
     7   6 C        2.921    -0.050    29.254     8.870
     8   6 C        2.924     0.061    26.626     8.462
     9   7 N        2.751    -0.080    22.796     7.091
    10   6 C        2.923     0.070    26.439     8.432
    11   6 C        2.919    -0.051    29.271     8.872
    12   6 C        2.923    -0.030    28.759     8.794
    13   6 C        2.886    -0.093    30.334     9.030
    14   5 B        2.647     0.432    15.600     6.658
    15   8 O        1.637    -0.387    20.611     6.128
    16   6 C        3.853     0.128    18.474     6.113
    17   6 C        3.755    -0.117    22.788     6.807
    18   6 C        3.755    -0.119    22.835     6.814
    19   6 C        3.853     0.128    18.474     6.113
    20   6 C        3.755    -0.119    22.835     6.814
    21   6 C        3.755    -0.117    22.788     6.807
    22   8 O        1.637    -0.387    20.611     6.128
    23   6 C        2.923    -0.030    28.759     8.794
    24   6 C        2.919    -0.051    29.271     8.872
    25   6 C        2.924     0.061    26.626     8.462
    26   6 C        2.921    -0.051    29.255     8.870
    27   6 C        2.927    -0.037    28.909     8.817
    28   6 C        2.972     0.001    28.000     8.680
    29   6 C        3.902     0.025    20.095     6.372
    30   6 C        3.761    -0.105    22.557     6.770
    31   6 C        3.761    -0.105    22.556     6.770
    32   6 C        3.761    -0.108    22.602     6.777
    33   6 C        2.925    -0.041    29.015     8.834
    34   6 C        2.922    -0.051    29.258     8.870
    35   6 C        2.922    -0.051    29.257     8.870
    36   6 C        2.925    -0.041    29.015     8.834
    37   1 H        0.925     0.032     2.552     2.498
    38   1 H        0.925     0.036     2.498     2.472
    39   1 H        0.925     0.039     2.464     2.455
    40   1 H        0.925     0.036     2.498     2.472
    41   1 H        0.925     0.033     2.548     2.496
    42   1 H        0.925     0.039     2.464     2.455
    43   1 H        0.925     0.036     2.504     2.474
    44   1 H        0.925     0.036     2.500     2.473
    45   1 H        0.925     0.038     2.478     2.462
    46   1 H        0.926     0.032     2.554     2.499
    47   1 H        0.926     0.027     2.626     2.534
    48   1 H        0.926     0.033     2.550     2.497
    49   1 H        0.926     0.033     2.542     2.493
    50   1 H        0.925     0.053     2.280     2.362
    51   1 H        0.925     0.052     2.297     2.370
    52   1 H        0.925     0.040     2.455     2.450
    53   1 H        0.925     0.051     2.307     2.375
    54   1 H        0.925     0.055     2.257     2.349
    55   1 H        0.925     0.051     2.311     2.377
    56   1 H        0.925     0.055     2.257     2.349
    57   1 H        0.925     0.051     2.311     2.377
    58   1 H        0.925     0.051     2.307     2.375
    59   1 H        0.925     0.053     2.280     2.361
    60   1 H        0.925     0.052     2.297     2.370
    61   1 H        0.925     0.040     2.455     2.450
    62   1 H        0.926     0.033     2.542     2.493
    63   1 H        0.926     0.033     2.550     2.497
    64   1 H        0.926     0.027     2.626     2.534
    65   1 H        0.926     0.032     2.555     2.499
    66   1 H        0.925     0.036     2.498     2.472
    67   1 H        0.925     0.039     2.464     2.455
    68   1 H        0.925     0.033     2.548     2.496
    69   1 H        0.925     0.036     2.499     2.472
    70   1 H        0.925     0.039     2.464     2.455
    71   1 H        0.925     0.032     2.552     2.498
    72   1 H        0.925     0.036     2.504     2.474
    73   1 H        0.925     0.038     2.478     2.462
    74   1 H        0.925     0.036     2.500     2.473
    75   1 H        0.926     0.040     2.449     2.447
    76   1 H        0.926     0.029     2.607     2.525
    77   1 H        0.926     0.029     2.607     2.525
    78   1 H        0.926     0.040     2.449     2.447

molecular dipole:
                 x           y           z       tot (Debye)
 q only:        0.185       0.001       0.001
   full:        0.364       0.001       0.001       0.926

 projected vibrational frequencies (cm⁻¹)
eigval :       -0.00    -0.00    -0.00     0.00     0.00     0.00
eigval :       18.81    19.50    19.81    24.90    25.44    30.91
eigval :       48.33    55.07    58.14    65.12    68.49    99.01
eigval :      101.04   103.92   125.96   144.94   167.18   171.12
eigval :      176.46   193.86   202.34   217.56   221.46   225.88
eigval :      233.14   233.28   246.15   265.01   269.16   273.38
eigval :      277.84   281.39   286.78   306.41   309.67   316.36
eigval :      317.02   328.77   346.29   351.84   358.12   360.80
eigval :      373.75   377.88   382.71   384.57   387.03   392.50
eigval :      394.75   421.21   428.77   440.23   447.95   460.08
eigval :      462.88   487.40   498.97   515.85   530.78   535.98
eigval :      554.33   578.46   581.55   591.05   604.46   607.67
eigval :      610.60   654.15   682.87   684.56   688.32   693.71
eigval :      716.90   756.77   809.22   810.96   815.16   818.08
eigval :      870.30   871.30   873.90   875.11   881.54   888.18
eigval :      896.46   915.93   917.26   919.03   927.25   928.74
eigval :      931.49   932.63   932.89   945.83   950.49   959.37
eigval :      959.44   961.61   961.83   962.87   962.92   963.80
eigval :      979.96  1001.16  1001.19  1006.92  1020.46  1025.82
eigval :     1034.48  1034.62  1035.34  1035.62  1102.01  1102.69
eigval :     1134.64  1142.99  1143.59  1153.81  1154.10  1154.62
eigval :     1159.70  1187.93  1188.04  1197.25  1208.17  1211.00
eigval :     1223.32  1225.30  1225.35  1227.20  1232.02  1232.33
eigval :     1245.19  1267.80  1278.21  1280.72  1283.44  1288.42
eigval :     1297.01  1309.04  1321.00  1321.05  1325.88  1326.11
eigval :     1382.16  1388.32  1396.23  1396.64  1400.32  1402.27
eigval :     1402.31  1404.20  1406.68  1412.25  1414.44  1426.79
eigval :     1426.80  1457.71  1469.03  1474.51  1479.44  1483.14
eigval :     1486.63  1486.74  1488.68  1488.72  1491.48  1491.97
eigval :     1491.99  1497.99  1499.99  1500.16  1503.62  1503.84
eigval :     1503.94  1511.34  1511.39  1517.22  1517.50  1517.54
eigval :     1545.49  1563.74  1567.78  1588.03  1600.78  1604.99
eigval :     3019.98  3019.98  3020.23  3020.28  3023.70  3023.72
eigval :     3025.11  3025.17  3026.69  3027.35  3027.43  3027.93
eigval :     3031.05  3031.13  3035.42  3036.17  3036.26  3036.96
eigval :     3039.33  3040.39  3044.19  3044.29  3044.31  3044.79
eigval :     3047.14  3047.16  3052.57  3055.11  3061.25  3061.43
eigval :     3071.21  3072.30  3073.36  3073.81  3076.36  3078.15
eigval :     3082.95  3085.88  3086.77  3087.45  3111.00  3111.29

   temp. (K)  partition function   enthalpy   heat capacity  entropy
                                   cal/mol     cal/K/mol   cal/K/mol   J/K/mol
 298.15  VIB  0.192E+17            21744.044    133.854    133.600
         ROT  0.305E+08              888.752      2.981     37.225
         INT  0.584E+24            22632.796    136.835    170.825
         TR   0.103E+29             1481.254      4.968     44.395
         TOT                       24114.0500   141.8031   215.2204   900.4823

       T/K    H(0)-H(T)+PV         H(T)/Eh          T*S/Eh         G(T)/Eh
   ------------------------------------------------------------------------
    298.15    0.384282E-01    0.698724E+00    0.102258E+00    0.596466E+00
   ------------------------------------------------------------------------

         :::::::::::::::::::::::::::::::::::::::::::::::::::::
         ::                  THERMODYNAMIC                  ::
         :::::::::::::::::::::::::::::::::::::::::::::::::::::
         :: total free energy        -101.820516628103 Eh   ::
         ::.................................................::
         :: total energy             -102.416982202763 Eh   ::
         :: zero point energy           0.660295558121 Eh   ::
         :: G(RRHO) w/o ZPVE           -0.063829983460 Eh   ::
         :: G(RRHO) contrib.            0.596465574661 Eh   ::
         :::::::::::::::::::::::::::::::::::::::::::::::::::::

           -------------------------------------------------
          | TOTAL ENERGY             -102.416982202763 Eh   |
          | TOTAL ENTHALPY           -101.718258459923 Eh   |
          | TOTAL FREE ENERGY        -101.820516628103 Eh   |
          | GRADIENT NORM               0.000077362994 Eh/α |
          | HOMO-LUMO GAP               2.856655481125 eV   |
           -------------------------------------------------

 * finished run on 2025/07/18 at 23:19:24.471
