   * xtb version 6.7.1 (edcfbbe) compiled by 'albert@albert-system' on 2024-07-22

   ID    Z sym.   atoms
    1    6 C      1-8, 10-13, 16-21, 23-36
    2    7 N      9
    3    5 B      14
    4    8 O      15, 22
    5    1 H      37-78

          program call               : xtb data2507/toluene/CN-TPA/CN-TPA_toluene_T1_crest.xyz --gfn 2 --uhf 2 --gbsa toluene --ohess vtight --parallel 40 --molden --ceasefiles --namespace data2507/toluene/CN-TPA/CN-TPA_toluene_T1_finalOpt
      * Solvation model:               GBSA
        Solvent                        toluene
        Solvent mass                       9.2140E+01 g/mol
          :  Hamiltonian                  GFN2-xTB          :
 * total energy  :  -102.3092658 Eh     change       -0.1034600E-07 Eh
 * total energy  :  -102.3094261 Eh     change       -0.1602141E-03 Eh
 * total energy  :  -102.3095034 Eh     change       -0.7732309E-04 Eh
 * total energy  :  -102.3095123 Eh     change       -0.8932171E-05 Eh
 * total energy  :  -102.3095159 Eh     change       -0.3580688E-05 Eh
 * total energy  :  -102.3095149 Eh     change        0.1045014E-05 Eh
 * total energy  :  -102.3095173 Eh     change       -0.2461405E-05 Eh
 * total energy  :  -102.3095182 Eh     change       -0.8838454E-06 Eh
 * total energy  :  -102.3095194 Eh     change       -0.1194409E-05 Eh
 * total energy  :  -102.3095203 Eh     change       -0.8789298E-06 Eh
 * total energy  :  -102.3095247 Eh     change       -0.1890041E-06 Eh
 * total energy  :  -102.3095251 Eh     change       -0.4103061E-06 Eh
 * total energy  :  -102.3095248 Eh     change        0.3560787E-06 Eh
 * total energy  :  -102.3095253 Eh     change       -0.4975170E-06 Eh
 * total energy  :  -102.3095254 Eh     change       -0.1015520E-06 Eh
 * total energy  :  -102.3095256 Eh     change       -0.2174262E-06 Eh
 * total energy  :  -102.3095256 Eh     change       -0.5002676E-08 Eh
 * total energy  :  -102.3095257 Eh     change       -0.1047035E-06 Eh
 * total energy  :  -102.3095258 Eh     change       -0.8736208E-07 Eh
   *** GEOMETRY OPTIMIZATION CONVERGED AFTER 30 ITERATIONS ***

 final structure:
================
78
 xtb: 6.7.1 (edcfbbe)
C           -5.50657402488726        4.79920247259700       -0.60496701794656
C           -4.09228381808442        5.01462280693757       -0.04326416219035
C           -4.18312966352007        5.51165492855823        1.40865926729324
C           -3.40681828427897        6.10103141947488       -0.87747923559301
C           -3.33998402181779        3.69722103664363       -0.06614202800972
C           -2.14102706652586        3.51184424829588       -0.75962654922212
C           -1.47958747253918        2.30531866855284       -0.75209475025615
C           -2.00060175195763        1.20876358386276       -0.04459288483302
N           -1.31371592940221        0.00290806078705        0.00297070227381
C            0.06141212797412       -0.00425157754231        0.00582771436634
C            0.79743324841860       -1.04468053285837       -0.65111710596611
C            2.15295221777738       -1.03666766398145       -0.65234412970038
C            2.91548331009085       -0.01449103362307        0.00495973966684
B            4.44020517395879       -0.01777580631092        0.00158185601916
O            5.22961610817705        0.95610006235674        0.60200413838966
C            6.59003049367182        0.53300639386766        0.55286039057175
C            6.94167146510840       -0.02726424368591        1.93957975977644
C            7.48989004079738        1.73410362801728        0.26211873636613
C            6.58497822113887       -0.57432699274377       -0.56315446466436
C            7.48395579308653       -1.77752219997216       -0.27848755644730
C            6.92865277929657       -0.01483958080674       -1.95219485820434
O            5.22321944641365       -0.99405670509699       -0.60334607645735
C            2.16077087272569        1.01191141359537        0.66456088250258
C            0.80536000908728        1.02969885823517        0.66413591890443
C           -2.01351980580516       -1.19573629901787        0.04736574521193
C           -1.50829686181835       -2.29702043459181        0.75872805777328
C           -2.18304832466213       -3.49619930332940        0.76410618756047
C           -3.37997550234620       -3.66935501136265        0.06398508059481
C           -4.14582812897894       -4.97888341059357        0.03741118736299
C           -5.56362318669928       -4.74761661234694        0.58371377340379
C           -3.48032354693964       -6.06978659941538        0.88186391901352
C           -4.22665332993041       -5.47893665500878       -1.41408972931669
C           -3.87252584384415       -2.56366196234474       -0.64612968478111
C           -3.21687809179047       -1.35814881111101       -0.65974044646432
C           -3.20625144844873        1.38348965760569        0.65577001781429
C           -3.84876058835119        2.59598083687498        0.63959469530649
H           -6.06516760973893        4.08046905426500       -0.01202490343217
H           -6.05440130160971        5.73915834685949       -0.60468494346408
H           -5.45295787406799        4.43120942960420       -1.62769752577137
H           -4.72208440419555        4.80766810517780        2.03656993129885
H           -3.18601666318429        5.64565392705744        1.82363034495016
H           -4.70272742204274        6.46686075447186        1.44355644722023
H           -3.98974721497030        7.01849069030038       -0.82605473872353
H           -3.33621331305346        5.80693926536229       -1.92229169035027
H           -2.41024870093113        6.31597364726247       -0.49850938852952
H           -1.71050738520545        4.31904817676177       -1.32888368542906
H           -0.56784419027909        2.17803102369890       -1.31683161484047
H            0.24536577876822       -1.79954703816378       -1.19332851131184
H            2.70403972170218       -1.80682315134513       -1.17233802647328
H            7.98563532737446       -0.32048905912766        1.99073867937717
H            6.75191809687433        0.74586781577991        2.68152511987611
H            6.30601273240576       -0.87866157882238        2.17232825292617
H            7.15787956383445        2.26674580949270       -0.62352562471648
H            7.44390829065035        2.42034964742105        1.10467553339098
H            8.51737731984675        1.40786960714716        0.12794142851857
H            7.43080866381797       -2.46361866385614       -1.12074448349489
H            8.51305053991781       -1.45360857762145       -0.15118068042684
H            7.15670247571259       -2.30946466398930        0.60933962681340
H            7.97277019124851        0.27653285518980       -2.01021177971705
H            6.73266302807145       -0.78770776998786       -2.69279451708911
H            6.29291304063540        0.83760994775918       -2.18088703419937
H            2.71773536479285        1.77744952348668        1.18510691516389
H            0.25900850574225        1.78779704068796        1.20764018807982
H           -0.59816894771065       -2.17907501528034        1.32810013890532
H           -1.76472603184404       -4.30733214183314        1.33685300457550
H           -5.51699459211930       -4.37523010082095        1.60520282865511
H           -6.12009911979653       -5.68248007474706        0.58227049039015
H           -6.10964891022307       -4.02675625972919       -0.01824557526438
H           -3.41634600010816       -5.77258310916695        1.92623837736011
H           -4.07282858755626       -6.98095735658414        0.82813878639150
H           -2.48267729951262       -6.29719073878975        0.51314518736714
H           -3.22669945103659       -5.62517199918394       -1.81796231400422
H           -4.75650770821813       -6.42837430348922       -1.45212164136338
H           -4.75084927326422       -4.77052000005573       -2.04951903591380
H           -4.78716801706221       -2.65400949453022       -1.21151922384617
H           -3.60457073645139       -0.53182970418599       -1.23739121384939
H           -3.60619147231324        0.56084149102149        1.23031021016107
H           -4.76587496609352        2.69555663958200        1.19939895016878

          :  Hamiltonian                  GFN2-xTB          :
         :: gradient norm              0.000043275088 Eh/a0 ::
         :: HOMO-LUMO gap              0.178286475121 eV    ::
         :: SCC energy              -103.903232055090 Eh    ::
         :: -> dispersion             -0.086355688554 Eh    ::
         :: -> Gsolv                  -0.043565049050 Eh    ::
         :: repulsion energy           1.593706243705 Eh    ::

    * Orbital Energies and Occupations

         #    Occupation            Energy/Eh            Energy/eV
      -------------------------------------------------------------
         1        2.0000           -0.6806757             -18.5221
       ...           ...                  ...                  ...
        84        2.0000           -0.4164925             -11.3333
        85        2.0000           -0.4139065             -11.2630
        86        2.0000           -0.4138444             -11.2613
        87        2.0000           -0.4100296             -11.1575
        88        2.0000           -0.4076780             -11.0935
        89        2.0000           -0.4030011             -10.9662
        90        2.0000           -0.3988607             -10.8536
        91        2.0000           -0.3980506             -10.8315
        92        2.0000           -0.3934852             -10.7073
        93        2.0000           -0.3910277             -10.6404
        94        2.0000           -0.3871629             -10.5352
        95        1.0000           -0.3464670              -9.4278
        96        0.9692           -0.2410551              -6.5594 (HOMO)
        97        0.0308           -0.2345030              -6.3812 (LUMO)
        98        0.0000           -0.2253334              -6.1316
        99                         -0.2216153              -6.0305
       100                         -0.2024602              -5.5092
       101                         -0.2019900              -5.4964
       102                         -0.1303741              -3.5477
       103                         -0.1037173              -2.8223
       104                         -0.0883366              -2.4038
       105                         -0.0529212              -1.4401
       106                          0.0151075               0.4111
       107                          0.0231764               0.6307
       ...                                ...                  ...
       186                          0.6762128              18.4007
      -------------------------------------------------------------
                  HL-Gap            0.0065521 Eh            0.1783 eV

     #   Z          covCN         q      C6AA      α(0)
     1   6 C        3.761    -0.107    22.587     6.775
     2   6 C        3.902     0.027    20.065     6.367
     3   6 C        3.761    -0.106    22.574     6.773
     4   6 C        3.761    -0.109    22.629     6.781
     5   6 C        2.971     0.007    27.870     8.660
     6   6 C        2.920    -0.038    28.944     8.823
     7   6 C        2.917    -0.042    29.033     8.836
     8   6 C        2.931     0.048    26.922     8.509
     9   7 N        2.750     0.011    21.064     6.816
    10   6 C        2.929     0.017    27.635     8.621
    11   6 C        2.905    -0.045    29.108     8.847
    12   6 C        2.910    -0.042    29.042     8.837
    13   6 C        2.881    -0.109    30.749     9.091
    14   5 B        2.637     0.411    15.890     6.728
    15   8 O        1.637    -0.409    21.037     6.191
    16   6 C        3.848     0.130    18.450     6.110
    17   6 C        3.755    -0.113    22.727     6.798
    18   6 C        3.755    -0.116    22.784     6.806
    19   6 C        3.848     0.130    18.449     6.110
    20   6 C        3.755    -0.116    22.784     6.806
    21   6 C        3.755    -0.113    22.727     6.798
    22   8 O        1.637    -0.409    21.038     6.191
    23   6 C        2.910    -0.042    29.042     8.837
    24   6 C        2.905    -0.045    29.108     8.846
    25   6 C        2.931     0.048    26.921     8.509
    26   6 C        2.917    -0.042    29.032     8.836
    27   6 C        2.920    -0.038    28.944     8.823
    28   6 C        2.971     0.007    27.869     8.659
    29   6 C        3.902     0.027    20.065     6.367
    30   6 C        3.761    -0.107    22.587     6.775
    31   6 C        3.761    -0.109    22.629     6.781
    32   6 C        3.761    -0.106    22.573     6.773
    33   6 C        2.922    -0.035    28.874     8.812
    34   6 C        2.916    -0.043    29.062     8.840
    35   6 C        2.916    -0.043    29.063     8.840
    36   6 C        2.922    -0.035    28.874     8.812
    37   1 H        0.925     0.039     2.458     2.452
    38   1 H        0.925     0.041     2.435     2.440
    39   1 H        0.925     0.035     2.520     2.483
    40   1 H        0.925     0.039     2.464     2.455
    41   1 H        0.925     0.034     2.534     2.489
    42   1 H        0.925     0.041     2.432     2.439
    43   1 H        0.925     0.039     2.457     2.451
    44   1 H        0.925     0.037     2.485     2.465
    45   1 H        0.925     0.037     2.491     2.468
    46   1 H        0.926     0.046     2.366     2.405
    47   1 H        0.926     0.039     2.462     2.454
    48   1 H        0.926     0.026     2.638     2.540
    49   1 H        0.926     0.020     2.729     2.583
    50   1 H        0.925     0.047     2.356     2.401
    51   1 H        0.925     0.047     2.363     2.404
    52   1 H        0.925     0.036     2.503     2.474
    53   1 H        0.925     0.048     2.347     2.396
    54   1 H        0.925     0.050     2.314     2.379
    55   1 H        0.925     0.045     2.386     2.416
    56   1 H        0.925     0.050     2.314     2.379
    57   1 H        0.925     0.045     2.386     2.416
    58   1 H        0.925     0.048     2.347     2.396
    59   1 H        0.925     0.047     2.356     2.400
    60   1 H        0.925     0.047     2.363     2.404
    61   1 H        0.925     0.036     2.503     2.474
    62   1 H        0.926     0.020     2.729     2.583
    63   1 H        0.926     0.026     2.638     2.540
    64   1 H        0.926     0.039     2.462     2.454
    65   1 H        0.926     0.046     2.365     2.405
    66   1 H        0.925     0.035     2.520     2.483
    67   1 H        0.925     0.041     2.435     2.440
    68   1 H        0.925     0.039     2.458     2.452
    69   1 H        0.925     0.037     2.485     2.465
    70   1 H        0.925     0.039     2.457     2.451
    71   1 H        0.925     0.037     2.491     2.468
    72   1 H        0.925     0.034     2.534     2.489
    73   1 H        0.925     0.041     2.431     2.438
    74   1 H        0.925     0.039     2.464     2.455
    75   1 H        0.926     0.041     2.429     2.437
    76   1 H        0.926     0.040     2.455     2.450
    77   1 H        0.926     0.039     2.456     2.451
    78   1 H        0.926     0.041     2.429     2.437

molecular dipole:
                 x           y           z       tot (Debye)
 q only:       -2.385       0.010      -0.004
   full:       -2.087       0.009      -0.005       5.304

 projected vibrational frequencies (cm⁻¹)
eigval :       -0.00    -0.00     0.00     0.00     0.00     0.00
eigval :       15.31    21.48    21.94    24.73    28.38    33.68
eigval :       43.87    55.56    63.55    68.43    78.39    93.53
eigval :      105.13   112.19   114.44   141.36   167.88   171.38
eigval :      180.41   183.09   207.23   214.46   221.17   221.97
eigval :      226.77   227.84   234.34   254.74   258.78   277.08
eigval :      278.33   282.50   286.98   307.26   314.50   314.99
eigval :      317.35   318.79   334.07   339.92   348.32   353.69
eigval :      360.63   374.14   377.46   380.45   387.34   389.89
eigval :      392.07   409.14   416.96   425.93   433.81   454.57
eigval :      459.75   489.74   492.74   514.81   521.89   525.49
eigval :      535.89   546.52   570.43   580.02   586.14   601.93
eigval :      605.07   613.80   633.23   675.24   678.69   688.88
eigval :      701.70   742.38   769.38   781.96   797.11   802.92
eigval :      808.42   841.89   849.53   870.94   871.97   880.88
eigval :      885.54   893.90   893.93   897.61   902.66   906.51
eigval :      907.13   916.83   919.48   943.49   946.38   947.59
eigval :      958.32   958.61   961.57   962.28   962.92   963.02
eigval :      963.22   977.52   990.90   991.85   999.74  1006.15
eigval :     1029.84  1033.23  1033.43  1034.49  1034.86  1056.00
eigval :     1123.74  1126.46  1131.64  1142.01  1147.56  1148.93
eigval :     1152.97  1155.57  1167.90  1173.83  1175.51  1181.13
eigval :     1208.97  1217.38  1219.92  1219.93  1224.64  1225.53
eigval :     1226.99  1243.19  1256.61  1265.85  1270.83  1279.26
eigval :     1283.51  1296.89  1300.50  1312.09  1328.09  1328.64
eigval :     1337.08  1378.62  1380.46  1385.12  1392.90  1394.81
eigval :     1400.95  1400.99  1401.91  1403.23  1403.96  1410.97
eigval :     1426.42  1426.78  1431.08  1432.26  1433.96  1458.78
eigval :     1460.59  1471.00  1475.97  1482.43  1487.37  1487.73
eigval :     1489.83  1489.99  1491.91  1495.17  1497.18  1497.25
eigval :     1499.88  1500.99  1501.09  1505.58  1506.31  1507.01
eigval :     1511.10  1511.63  1516.75  1516.89  1518.52  1618.33
eigval :     3021.17  3022.32  3022.47  3022.86  3022.99  3023.61
eigval :     3025.84  3025.94  3027.28  3027.40  3029.51  3029.58
eigval :     3031.57  3032.33  3032.34  3032.92  3035.02  3035.88
eigval :     3037.18  3037.42  3038.43  3039.25  3046.42  3046.57
eigval :     3046.76  3049.12  3049.18  3049.31  3058.11  3058.14
eigval :     3058.50  3060.01  3074.83  3077.67  3077.76  3079.59
eigval :     3083.06  3083.38  3092.90  3093.59  3115.69  3115.83

   temp. (K)  partition function   enthalpy   heat capacity  entropy
                                   cal/mol     cal/K/mol   cal/K/mol   J/K/mol
 298.15  VIB  0.207E+17            22053.779    136.305    135.176
         ROT  0.303E+08              888.752      2.981     37.216
         INT  0.628E+24            22942.532    139.286    172.392
         TR   0.103E+29             1481.254      4.968     44.395
         TOT                       24423.7855   144.2539   216.7871   907.0372

       T/K    H(0)-H(T)+PV         H(T)/Eh          T*S/Eh         G(T)/Eh
   ------------------------------------------------------------------------
    298.15    0.389218E-01    0.693970E+00    0.103003E+00    0.590968E+00
   ------------------------------------------------------------------------

         :::::::::::::::::::::::::::::::::::::::::::::::::::::
         ::                  THERMODYNAMIC                  ::
         :::::::::::::::::::::::::::::::::::::::::::::::::::::
         :: total free energy        -101.718558105327 Eh   ::
         ::.................................................::
         :: total energy             -102.309525812003 Eh   ::
         :: zero point energy           0.655048472003 Eh   ::
         :: G(RRHO) w/o ZPVE           -0.064080765327 Eh   ::
         :: G(RRHO) contrib.            0.590967706676 Eh   ::
         :::::::::::::::::::::::::::::::::::::::::::::::::::::

           -------------------------------------------------
          | TOTAL ENERGY             -102.309525812003 Eh   |
          | TOTAL ENTHALPY           -101.615555560376 Eh   |
          | TOTAL FREE ENERGY        -101.718558105327 Eh   |
          | GRADIENT NORM               0.000043401464 Eh/α |
          | HOMO-LUMO GAP               0.178292045011 eV   |
           -------------------------------------------------

 * finished run on 2025/07/18 at 23:25:41.763
