   * xtb version 6.7.1 (edcfbbe) compiled by 'albert@albert-system' on 2024-07-22

   ID    Z sym.   atoms
    1    6 C      1-8, 10-13, 16-21, 23-36
    2    7 N      9
    3    5 B      14
    4    8 O      15, 22
    5    1 H      37-78

          program call               : xtb data2507/toluene/CN-TPA/CN-TPA_toluene_S0_finalOpt.xtbopt.xyz --gfn 2 --uhf 2 --gbsa toluene --ohess vtight --parallel 40 --molden --ceasefiles --namespace data2507/toluene/CN-TPA/CN-TPA_toluene_T1_preOpt
      * Solvation model:               GBSA
        Solvent                        toluene
        Solvent mass                       9.2140E+01 g/mol
          :  Hamiltonian                  GFN2-xTB          :
 * total energy  :  -102.3025121 Eh     change       -0.1762928E-08 Eh
 * total energy  :  -102.3079001 Eh     change       -0.5388026E-02 Eh
 * total energy  :  -102.3090640 Eh     change       -0.1163843E-02 Eh
 * total energy  :  -102.3092264 Eh     change       -0.1623931E-03 Eh
 * total energy  :  -102.3092978 Eh     change       -0.7138528E-04 Eh
 * total energy  :  -102.3093266 Eh     change       -0.2882706E-04 Eh
 * total energy  :  -102.3093575 Eh     change       -0.3088604E-04 Eh
 * total energy  :  -102.3093857 Eh     change       -0.2826656E-04 Eh
 * total energy  :  -102.3094094 Eh     change       -0.2362482E-04 Eh
 * total energy  :  -102.3094211 Eh     change       -0.1171128E-04 Eh
 * total energy  :  -102.3095046 Eh     change       -0.3482821E-06 Eh
 * total energy  :  -102.3095049 Eh     change       -0.3804893E-06 Eh
 * total energy  :  -102.3095053 Eh     change       -0.3609427E-06 Eh
 * total energy  :  -102.3095056 Eh     change       -0.2517320E-06 Eh
 * total energy  :  -102.3095059 Eh     change       -0.3015572E-06 Eh
 * total energy  :  -102.3095061 Eh     change       -0.2047984E-06 Eh
 * total energy  :  -102.3095062 Eh     change       -0.1114081E-06 Eh
 * total energy  :  -102.3095064 Eh     change       -0.2175882E-06 Eh
 * total energy  :  -102.3095065 Eh     change       -0.8884633E-07 Eh
   *** GEOMETRY OPTIMIZATION CONVERGED AFTER 43 ITERATIONS ***

 final structure:
================
78
 xtb: 6.7.1 (edcfbbe)
C           -3.13388108935115        6.09754063553031        0.53340474248219
C           -4.08145269038261        5.03333946978563       -0.04255490481486
C           -4.43511093731539        5.38823843139978       -1.49591873790458
C           -5.37374596677806        5.04794555846215        0.77972933025950
C           -3.38594777990741        3.68508055706086       -0.01768496783985
C           -2.18530663116565        3.51083324486736       -0.72051352218937
C           -1.51409626398409        2.31340760662216       -0.72842415120944
C           -2.02662655469748        1.20756423565789       -0.02821473582687
N           -1.33525102456432        0.00358933596546        0.00320859742390
C            0.03991139373195        0.00016735488735        0.00238300572512
C            0.77709780136435       -1.03170972679207       -0.66656385153281
C            2.13260437421440       -1.02187999267458       -0.66846320786745
C            2.89419141896459       -0.00661187798596        0.00061351869028
B            4.41890677223785       -0.00968760713282       -0.00065146648674
O            5.20742308689476        0.95919654229958        0.60901334779096
C            6.56783490983883        0.53621500969505        0.55942132531240
C            6.91688725912158       -0.03358338087473        1.94292156584630
C            7.46845870334053        1.73919166174554        0.27884409127651
C            6.56488483892620       -0.56334473148149       -0.56437605968045
C            7.46170506682693       -1.76951919274543       -0.28536714674682
C            6.91356360353441        0.00522160512626       -1.94847480331059
O            5.20286664805602       -0.98143647032850       -0.61162746093738
C            2.13825775463091        1.01208877707593        0.67087942486022
C            0.78282815437446        1.02837952805542        0.67065009373160
C           -2.03281387503827       -1.19671095513400        0.03556841761963
C           -1.52502230295302       -2.30544367956829        0.73482396998604
C           -2.20264573156227       -3.49921554504974        0.72791221703833
C           -3.40541246562786       -3.66702773369659        0.02702382413228
C           -4.10812491680803       -5.01153152363971        0.05302413510003
C           -4.46093632244182       -5.36483672871956        1.50698952957269
C           -3.16741067545488       -6.08075306112572       -0.52488669593736
C           -5.40205323134489       -5.01906260445332       -0.76678304617787
C           -3.89810402650545       -2.55898279550691       -0.67014188945743
C           -3.23699822055131       -1.35292338186034       -0.67063244455943
C           -3.22879178449667        1.37015435692576        0.67979272449395
C           -3.88344826391893        2.57977465309154        0.68030165856833
H           -2.86348678602108        5.84660374504500        1.55733588182961
H           -2.22076286323519        6.17482360466879       -0.05028704991747
H           -3.62146960256904        7.07014294908748        0.53375006483228
H           -3.54533213865852        5.45798364596840       -2.11538696769933
H           -5.08845673399626        4.62857594667012       -1.92061477101467
H           -4.95053713574174        6.34568447936913       -1.53088782608456
H           -5.17497800032924        4.82822071673890        1.82626221214650
H           -6.09264488145121        4.32929746858340        0.39290155141577
H           -5.82550810476332        6.03641622328926        0.72505050886929
H           -1.76956261754951        4.33177451628023       -1.28430000111199
H           -0.60322679405157        2.19710604802529       -1.29702776503692
H            0.22578986777083       -1.78150473551399       -1.21657584032655
H            2.68435701703209       -1.78540698236761       -1.19743608252437
H            7.96053378071127       -0.32798270899709        1.99372470916369
H            6.72664021644727        0.73479576496243        2.68966172795218
H            6.28019292528713       -0.88597393827785        2.16911930379555
H            7.13882662032901        2.27772260899236       -0.60412765948376
H            7.42030325592005        2.41988530110900        1.12577913146032
H            8.49628700958399        1.41379267319729        0.14524189868785
H            7.40969213174177       -2.45004409475499       -1.13221006077758
H            8.49089921270284       -1.44773979738485       -0.15354090870286
H            7.13170985748185       -2.30687708986458        0.59818217859666
H            7.95808462661693        0.29618978646334       -2.00099802995804
H            6.71957504896980       -0.76254981276729       -2.69487708151160
H            6.27927905696754        0.85967934969109       -2.17365883944914
H            2.69431045426961        1.77289765460530        1.19926026837420
H            0.23577353320290        1.78070077666638        1.22145760153919
H           -0.61263389862565       -2.19405766492700        1.30196737138721
H           -1.79039758146369       -4.32243802354579        1.29093237040733
H           -3.57036468928111       -5.43962871599000        2.12472691426923
H           -4.98153362057614       -6.31945383967588        1.54271425121726
H           -5.10930290984833       -4.60172396251190        1.93313110444518
H           -2.25348387900828       -6.16282808621552        0.05688414423033
H           -3.66015814955742       -7.05074911652688       -0.52412899888829
H           -2.89787167587841       -5.83130863233166       -1.54940774529119
H           -5.20408258958057       -4.80038532440961       -1.81368527581903
H           -5.85909151360116       -6.00506312972690       -0.71128279294264
H           -6.11628076826459       -4.29651672180957       -0.37857432173818
H           -4.81195054140807       -2.63464757159246       -1.23577484909403
H           -3.62506178242921       -0.52098266734059       -1.23980542654452
H           -3.62039404059275        0.54033791529854        1.24964753232551
H           -4.79593456132275        2.66037614505428        1.24744473938264

          :  Hamiltonian                  GFN2-xTB          :
         :: gradient norm              0.000088002660 Eh/a0 ::
         :: HOMO-LUMO gap              0.173462534157 eV    ::
         :: SCC energy              -103.903140718834 Eh    ::
         :: -> dispersion             -0.086352710945 Eh    ::
         :: -> Gsolv                  -0.043593386539 Eh    ::
         :: repulsion energy           1.593634190718 Eh    ::

    * Orbital Energies and Occupations

         #    Occupation            Energy/Eh            Energy/eV
      -------------------------------------------------------------
         1        2.0000           -0.6806907             -18.5225
       ...           ...                  ...                  ...
        84        2.0000           -0.4164665             -11.3326
        85        2.0000           -0.4142936             -11.2735
        86        2.0000           -0.4132260             -11.2445
        87        2.0000           -0.4098502             -11.1526
        88        2.0000           -0.4082423             -11.1088
        89        2.0000           -0.4026485             -10.9566
        90        2.0000           -0.3989022             -10.8547
        91        2.0000           -0.3980720             -10.8321
        92        2.0000           -0.3937154             -10.7135
        93        2.0000           -0.3910786             -10.6418
        94        2.0000           -0.3870648             -10.5326
        95        1.0000           -0.3465668              -9.4306
        96        0.9663           -0.2410347              -6.5589 (HOMO)
        97        0.0337           -0.2346596              -6.3854 (LUMO)
        98        0.0000           -0.2252348              -6.1290
        99                         -0.2215902              -6.0298
       100                         -0.2025820              -5.5125
       101                         -0.2020125              -5.4970
       102                         -0.1303564              -3.5472
       103                         -0.1037679              -2.8237
       104                         -0.0883566              -2.4043
       105                         -0.0529550              -1.4410
       106                          0.0149928               0.4080
       107                          0.0231402               0.6297
       ...                                ...                  ...
       186                          0.6754468              18.3798
      -------------------------------------------------------------
                  HL-Gap            0.0063751 Eh            0.1735 eV

     #   Z          covCN         q      C6AA      α(0)
     1   6 C        3.761    -0.106    22.575     6.773
     2   6 C        3.902     0.027    20.065     6.367
     3   6 C        3.761    -0.106    22.578     6.774
     4   6 C        3.761    -0.109    22.636     6.782
     5   6 C        2.971     0.007    27.869     8.659
     6   6 C        2.922    -0.034    28.853     8.809
     7   6 C        2.916    -0.041    29.014     8.833
     8   6 C        2.931     0.048    26.922     8.509
     9   7 N        2.750     0.011    21.063     6.816
    10   6 C        2.929     0.017    27.631     8.621
    11   6 C        2.905    -0.045    29.109     8.847
    12   6 C        2.910    -0.042    29.043     8.837
    13   6 C        2.881    -0.109    30.750     9.091
    14   5 B        2.637     0.411    15.892     6.729
    15   8 O        1.637    -0.409    21.038     6.191
    16   6 C        3.848     0.130    18.450     6.110
    17   6 C        3.755    -0.113    22.727     6.798
    18   6 C        3.755    -0.116    22.784     6.806
    19   6 C        3.848     0.130    18.450     6.110
    20   6 C        3.755    -0.116    22.784     6.806
    21   6 C        3.755    -0.113    22.727     6.798
    22   8 O        1.637    -0.409    21.038     6.191
    23   6 C        2.910    -0.042    29.043     8.837
    24   6 C        2.905    -0.045    29.109     8.847
    25   6 C        2.931     0.048    26.922     8.509
    26   6 C        2.916    -0.041    29.014     8.833
    27   6 C        2.922    -0.034    28.853     8.809
    28   6 C        2.971     0.007    27.870     8.659
    29   6 C        3.902     0.027    20.064     6.367
    30   6 C        3.761    -0.106    22.578     6.774
    31   6 C        3.761    -0.106    22.575     6.773
    32   6 C        3.761    -0.109    22.636     6.782
    33   6 C        2.920    -0.039    28.962     8.825
    34   6 C        2.916    -0.043    29.079     8.843
    35   6 C        2.916    -0.043    29.079     8.843
    36   6 C        2.920    -0.039    28.962     8.825
    37   1 H        0.925     0.034     2.532     2.488
    38   1 H        0.925     0.038     2.479     2.462
    39   1 H        0.925     0.041     2.435     2.440
    40   1 H        0.925     0.038     2.475     2.460
    41   1 H        0.925     0.035     2.516     2.481
    42   1 H        0.925     0.041     2.433     2.439
    43   1 H        0.925     0.038     2.481     2.463
    44   1 H        0.925     0.038     2.470     2.458
    45   1 H        0.925     0.039     2.456     2.451
    46   1 H        0.926     0.039     2.456     2.451
    47   1 H        0.926     0.039     2.463     2.454
    48   1 H        0.926     0.026     2.638     2.540
    49   1 H        0.926     0.020     2.729     2.583
    50   1 H        0.925     0.047     2.356     2.400
    51   1 H        0.925     0.047     2.363     2.404
    52   1 H        0.925     0.036     2.503     2.474
    53   1 H        0.925     0.048     2.348     2.396
    54   1 H        0.925     0.051     2.314     2.379
    55   1 H        0.925     0.045     2.386     2.416
    56   1 H        0.925     0.050     2.314     2.379
    57   1 H        0.925     0.045     2.386     2.416
    58   1 H        0.925     0.048     2.348     2.396
    59   1 H        0.925     0.047     2.356     2.400
    60   1 H        0.925     0.047     2.363     2.404
    61   1 H        0.925     0.036     2.503     2.474
    62   1 H        0.926     0.020     2.729     2.583
    63   1 H        0.926     0.026     2.638     2.540
    64   1 H        0.926     0.039     2.463     2.454
    65   1 H        0.926     0.039     2.457     2.451
    66   1 H        0.925     0.038     2.475     2.460
    67   1 H        0.925     0.041     2.433     2.439
    68   1 H        0.925     0.035     2.516     2.481
    69   1 H        0.925     0.038     2.479     2.462
    70   1 H        0.925     0.041     2.435     2.440
    71   1 H        0.925     0.034     2.532     2.488
    72   1 H        0.925     0.038     2.481     2.463
    73   1 H        0.925     0.039     2.456     2.451
    74   1 H        0.925     0.038     2.470     2.458
    75   1 H        0.926     0.048     2.339     2.391
    76   1 H        0.926     0.039     2.455     2.450
    77   1 H        0.926     0.040     2.455     2.450
    78   1 H        0.926     0.049     2.338     2.391

molecular dipole:
                 x           y           z       tot (Debye)
 q only:       -2.378       0.007       0.001
   full:       -2.055       0.006       0.001       5.224

 projected vibrational frequencies (cm⁻¹)
eigval :       -0.00     0.00     0.00     0.00     0.00     0.00
eigval :       14.71    16.26    21.19    24.91    27.23    32.24
eigval :       44.54    55.82    60.77    65.63    75.98   101.32
eigval :      102.45   111.16   111.68   144.65   167.78   168.56
eigval :      176.15   181.79   207.89   215.52   219.55   221.39
eigval :      227.46   229.51   244.84   251.43   267.58   268.92
eigval :      278.60   279.38   284.35   306.70   307.18   315.07
eigval :      316.10   326.05   328.66   342.23   349.02   353.37
eigval :      358.44   373.05   376.29   381.75   387.32   390.05
eigval :      392.32   407.95   416.78   426.08   433.62   454.10
eigval :      458.02   489.50   492.76   514.17   520.67   525.05
eigval :      535.88   546.65   569.70   579.67   585.95   602.26
eigval :      605.02   613.96   633.17   674.09   677.87   688.25
eigval :      700.99   741.71   770.25   781.74   798.28   803.04
eigval :      807.32   841.33   849.27   870.59   870.98   881.93
eigval :      883.46   893.31   894.41   896.76   904.29   905.09
eigval :      907.72   918.44   919.32   942.40   946.35   947.16
eigval :      958.14   958.19   959.98   960.39   960.98   962.58
eigval :      962.61   975.81   990.85   991.47   998.62  1004.75
eigval :     1029.65  1032.20  1032.21  1033.43  1034.11  1055.75
eigval :     1123.20  1126.75  1131.82  1142.15  1147.60  1148.76
eigval :     1152.95  1155.47  1167.80  1173.73  1175.30  1181.42
eigval :     1208.35  1217.28  1219.78  1219.85  1223.88  1225.19
eigval :     1227.13  1242.27  1255.86  1265.71  1270.65  1279.17
eigval :     1283.53  1296.21  1300.94  1311.66  1327.05  1328.45
eigval :     1338.66  1377.52  1380.27  1385.08  1392.83  1394.68
eigval :     1401.48  1401.61  1401.84  1402.32  1403.85  1404.98
eigval :     1425.93  1425.97  1430.12  1434.08  1434.53  1456.64
eigval :     1460.48  1470.96  1475.81  1481.97  1487.34  1487.41
eigval :     1490.43  1490.45  1493.09  1493.23  1496.47  1497.10
eigval :     1499.82  1500.62  1500.97  1505.09  1505.45  1506.67
eigval :     1510.39  1510.69  1516.32  1516.63  1518.57  1618.19
eigval :     3021.51  3021.54  3022.02  3022.16  3022.16  3023.18
eigval :     3025.45  3025.46  3026.48  3026.63  3029.05  3029.22
eigval :     3031.00  3032.34  3032.36  3032.79  3033.93  3035.17
eigval :     3037.00  3037.10  3038.57  3039.35  3044.75  3044.80
eigval :     3046.65  3048.45  3048.58  3049.26  3058.04  3058.10
eigval :     3058.30  3059.99  3074.75  3077.68  3079.19  3079.61
eigval :     3080.87  3083.06  3092.84  3092.91  3116.51  3116.68

   temp. (K)  partition function   enthalpy   heat capacity  entropy
                                   cal/mol     cal/K/mol   cal/K/mol   J/K/mol
 298.15  VIB  0.337E+17            22085.957    136.261    135.659
         ROT  0.303E+08              888.752      2.981     37.217
         INT  0.102E+25            22974.709    139.242    172.876
         TR   0.103E+29             1481.254      4.968     44.395
         TOT                       24455.9628   144.2104   217.2711   909.0624

       T/K    H(0)-H(T)+PV         H(T)/Eh          T*S/Eh         G(T)/Eh
   ------------------------------------------------------------------------
    298.15    0.389731E-01    0.693823E+00    0.103233E+00    0.590590E+00
   ------------------------------------------------------------------------

         :::::::::::::::::::::::::::::::::::::::::::::::::::::
         ::                  THERMODYNAMIC                  ::
         :::::::::::::::::::::::::::::::::::::::::::::::::::::
         :: total free energy        -101.718916247997 Eh   ::
         ::.................................................::
         :: total energy             -102.309506528450 Eh   ::
         :: zero point energy           0.654849746653 Eh   ::
         :: G(RRHO) w/o ZPVE           -0.064259466200 Eh   ::
         :: G(RRHO) contrib.            0.590590280453 Eh   ::
         :::::::::::::::::::::::::::::::::::::::::::::::::::::

           -------------------------------------------------
          | TOTAL ENERGY             -102.309506528450 Eh   |
          | TOTAL ENTHALPY           -101.615683724348 Eh   |
          | TOTAL FREE ENERGY        -101.718916247997 Eh   |
          | GRADIENT NORM               0.000086797154 Eh/α |
          | HOMO-LUMO GAP               0.173475660788 eV   |
           -------------------------------------------------

 * finished run on 2025/07/18 at 23:19:30.281
