   * xtb version 6.7.1 (edcfbbe) compiled by 'albert@albert-system' on 2024-07-22

   ID    Z sym.   atoms
    1    6 C      1-12, 14-19, 23-28, 30-41
    2    7 N      13, 29
    3   16 S      20
    4    8 O      21, 22
    5    1 H      42-65

          program call               : xtb data250606/toluene/CzS2/CzS2.xyz --gfn 2 --gbsa toluene --ohess vtight --parallel 14 --molden --ceasefiles --namespace data250606/toluene/CzS2/CzS2_toluene_S0_preOpt
      * Solvation model:               GBSA
        Solvent                        toluene
        Solvent mass                       9.2140E+01 g/mol
          :  Hamiltonian                  GFN2-xTB          :
 * total energy  :  -106.6212539 Eh     change       -0.2374492E-09 Eh
 * total energy  :  -106.6341801 Eh     change       -0.1292621E-01 Eh
 * total energy  :  -106.6367114 Eh     change       -0.2531287E-02 Eh
 * total energy  :  -106.6370490 Eh     change       -0.3375345E-03 Eh
 * total energy  :  -106.6372943 Eh     change       -0.2453019E-03 Eh
 * total energy  :  -106.6373839 Eh     change       -0.8963725E-04 Eh
 * total energy  :  -106.6374656 Eh     change       -0.8169568E-04 Eh
 * total energy  :  -106.6375252 Eh     change       -0.5956513E-04 Eh
 * total energy  :  -106.6375810 Eh     change       -0.5581286E-04 Eh
 * total energy  :  -106.6376296 Eh     change       -0.4865995E-04 Eh
 * total energy  :  -106.6376952 Eh     change       -0.8767621E-06 Eh
 * total energy  :  -106.6376963 Eh     change       -0.1073103E-05 Eh
 * total energy  :  -106.6376977 Eh     change       -0.1399519E-05 Eh
 * total energy  :  -106.6376994 Eh     change       -0.1759108E-05 Eh
 * total energy  :  -106.6377014 Eh     change       -0.2015516E-05 Eh
 * total energy  :  -106.6377035 Eh     change       -0.2067074E-05 Eh
 * total energy  :  -106.6377055 Eh     change       -0.1966215E-05 Eh
 * total energy  :  -106.6377073 Eh     change       -0.1849712E-05 Eh
 * total energy  :  -106.6377073 Eh     change       -0.5293629E-08 Eh
   *** GEOMETRY OPTIMIZATION CONVERGED AFTER 44 ITERATIONS ***

 final structure:
================
65
 xtb: 6.7.1 (edcfbbe)
C           -5.23901791842289        3.79993586503022       -1.71398741462623
C           -3.95522985783455        3.26667636197342       -1.80401927416706
C           -3.66495265181969        1.99877022712736       -1.33490741005340
C           -4.69910808483684        1.26190682798412       -0.77583643552912
C           -5.99734832122454        1.80625857423853       -0.65375699725224
C           -6.26559859886492        3.08242481098040       -1.13209222338042
C           -6.79704477985599        0.81546564040055        0.01364082395523
C           -8.13485704695689        0.76308210338234        0.38358142636239
C           -8.60660142511763       -0.37920118577660        0.99988405376255
C           -7.76626764113949       -1.46588239538949        1.23118038944338
C           -6.43145243757643       -1.43641355070179        0.87151199045243
C           -5.94529065413365       -0.28083315755306        0.27708533295869
N           -4.67723674464016       -0.00050843134276       -0.20587503031480
C           -3.57623204706367       -0.85567222494995       -0.15183208856772
C           -2.81606663546645       -1.09292468322673       -1.29980465658803
C           -1.73283262202486       -1.94850444187852       -1.24706188348245
C           -1.41610122206461       -2.57426505824845       -0.05476509689045
C           -2.15528319154644       -2.34730431160301        1.09105137823993
C           -3.23522198391838       -1.48593597590598        1.04664621803048
S            0.00000806044397       -3.67266469534518        0.00001686964661
O            0.05034355457520       -4.42865441453340       -1.23368462781708
O           -0.05032068091555       -4.42864594108045        1.23372367745163
C            1.41610842333483       -2.57425297823391        0.05479323276707
C            2.15528822184819       -2.34729444710773       -1.09102505887662
C            3.23522368145573       -1.48592213074350       -1.04662494457511
C            3.57623328553671       -0.85565267631786        0.15185026737458
C            2.81606916082540       -1.09290143637317        1.29982437694369
C            1.73283755394039       -1.94848483713204        1.24708656005490
N            4.67723731696985       -0.00048729233530        0.20588600514467
C            4.69910788319250        1.26193350564144        0.77583438546686
C            3.66495461449138        1.99879803962097        1.33490782100519
C            3.95523108970416        3.26670971064694        1.80400532053114
C            5.23901822080637        3.79996996584314        1.71396595262077
C            6.26559974706693        3.08245302650054        1.13207907985523
C            5.99734737858853        1.80628577156773        0.65374752716930
C            6.79703775481791        0.81549785671352       -0.01366502305390
C            8.13484266239632        0.76312406932697       -0.38363317200617
C            8.60658845293771       -0.37916635723043       -0.99992208329301
C            7.76626173047611       -1.46586020458941       -1.23118443290001
C            6.43145089898487       -1.43639649539350       -0.87149915755868
C            5.94528902568637       -0.28081236643286       -0.27707988418423
H           -5.42679031574726        4.79272149269371       -2.09560241143332
H           -3.16731103488508        3.85795495022307       -2.24711925509971
H           -2.66164136352885        1.60543541551673       -1.39315887066528
H           -7.25626366467167        3.50232857471562       -1.04410236996596
H           -8.79019634393120        1.59796900437505        0.18603030677690
H           -9.64290019685044       -0.43994063423568        1.29802084450468
H           -8.16649958872590       -2.35392725997165        1.69816408894926
H           -5.79747005634457       -2.29420500480931        1.03663160980728
H           -3.09473708179974       -0.62321795170295       -2.23030563192058
H           -1.14562064718027       -2.16319738226265       -2.12564527795197
H           -1.87728668962479       -2.85761999953409        1.99987433027100
H           -3.80987522730823       -1.28677997076720        1.93784480904074
H            1.87729595419765       -2.85761797185655       -1.99984474986894
H            3.80987599443949       -1.28676843655356       -1.93782452541428
H            3.09473870564942       -0.62319015329310        2.23032325709549
H            1.14562706576617       -2.16317639276309        2.12567160459580
H            2.66164753864569        1.60545613273428        1.39318129426694
H            3.16731593133480        3.85798645906269        2.24711372047585
H            5.42678786186656        4.79276310048151        2.09556201247784
H            7.25625740842554        3.50236764453255        1.04405940079128
H            8.79018868837922        1.59800108936551       -0.18606292390773
H            9.64288676973602       -0.43990711760046       -1.29805920197944
H            8.16648909543283       -2.35389963108617       -1.69818202745846
H            5.79746702406244       -2.29418662482258       -1.03661982750667

          :  Hamiltonian                  GFN2-xTB          :
         :: gradient norm              0.000055667861 Eh/a0 ::
         :: HOMO-LUMO gap              2.620652642642 eV    ::
         :: SCC energy              -108.503892583989 Eh    ::
         :: -> dispersion             -0.089937143874 Eh    ::
         :: -> Gsolv                  -0.051027710344 Eh    ::
         :: repulsion energy           1.866185249177 Eh    ::

    * Orbital Energies and Occupations

         #    Occupation            Energy/Eh            Energy/eV
      -------------------------------------------------------------
         1        2.0000           -0.7774247             -21.1548
       ...           ...                  ...                  ...
        86        2.0000           -0.4258849             -11.5889
        87        2.0000           -0.4254546             -11.5772
        88        2.0000           -0.4219902             -11.4829
        89        2.0000           -0.4218946             -11.4803
        90        2.0000           -0.4218047             -11.4779
        91        2.0000           -0.4212837             -11.4637
        92        2.0000           -0.4124882             -11.2244
        93        2.0000           -0.4090989             -11.1321
        94        2.0000           -0.4086018             -11.1186
        95        2.0000           -0.3826698             -10.4130
        96        2.0000           -0.3826678             -10.4129
        97        2.0000           -0.3700208             -10.0688
        98        2.0000           -0.3691295             -10.0445 (HOMO)
        99                         -0.2728223              -7.4239 (LUMO)
       100                         -0.2582288              -7.0268
       101                         -0.2522431              -6.8639
       102                         -0.2516197              -6.8469
       103                         -0.2478573              -6.7445
       104                         -0.2466270              -6.7111
       105                         -0.2259004              -6.1471
       106                         -0.2259002              -6.1471
       107                         -0.1993694              -5.4251
       108                         -0.1971830              -5.3656
       109                         -0.1898573              -5.1663
       ...                                ...                  ...
       193                          1.1633107              31.6553
      -------------------------------------------------------------
                  HL-Gap            0.0963072 Eh            2.6207 eV

     #   Z          covCN         q      C6AA      α(0)
     1   6 C        2.920    -0.040    29.002     8.831
     2   6 C        2.924    -0.033    28.829     8.805
     3   6 C        2.910    -0.052    29.283     8.873
     4   6 C        3.069     0.044    26.935     8.510
     5   6 C        3.066    -0.015    28.318     8.726
     6   6 C        2.912    -0.033    28.825     8.804
     7   6 C        3.066    -0.015    28.319     8.726
     8   6 C        2.912    -0.033    28.828     8.804
     9   6 C        2.920    -0.040    29.002     8.831
    10   6 C        2.924    -0.033    28.827     8.805
    11   6 C        2.910    -0.051    29.278     8.873
    12   6 C        3.069     0.045    26.931     8.509
    13   7 N        2.801    -0.035    21.920     6.954
    14   6 C        2.912     0.074    26.355     8.418
    15   6 C        2.924    -0.038    28.937     8.822
    16   6 C        2.958    -0.025    28.629     8.776
    17   6 C        2.970    -0.078    29.942     8.976
    18   6 C        2.953    -0.023    28.586     8.769
    19   6 C        2.923    -0.038    28.945     8.823
    20  16 S        3.817     0.936   108.495    17.531
    21   8 O        0.860    -0.577    25.551     6.777
    22   8 O        0.860    -0.577    25.551     6.777
    23   6 C        2.970    -0.078    29.942     8.976
    24   6 C        2.953    -0.023    28.586     8.769
    25   6 C        2.923    -0.038    28.945     8.823
    26   6 C        2.912     0.074    26.355     8.418
    27   6 C        2.924    -0.038    28.937     8.822
    28   6 C        2.958    -0.025    28.629     8.776
    29   7 N        2.801    -0.035    21.920     6.954
    30   6 C        3.069     0.044    26.935     8.510
    31   6 C        2.910    -0.052    29.283     8.873
    32   6 C        2.924    -0.033    28.829     8.805
    33   6 C        2.920    -0.040    29.002     8.831
    34   6 C        2.912    -0.033    28.825     8.804
    35   6 C        3.066    -0.015    28.318     8.726
    36   6 C        3.066    -0.015    28.319     8.726
    37   6 C        2.912    -0.033    28.828     8.804
    38   6 C        2.920    -0.040    29.002     8.831
    39   6 C        2.924    -0.033    28.827     8.805
    40   6 C        2.910    -0.051    29.278     8.873
    41   6 C        3.069     0.045    26.931     8.509
    42   1 H        0.926     0.032     2.558     2.501
    43   1 H        0.926     0.035     2.522     2.483
    44   1 H        0.926     0.034     2.531     2.488
    45   1 H        0.926     0.035     2.520     2.483
    46   1 H        0.926     0.035     2.515     2.480
    47   1 H        0.926     0.032     2.561     2.502
    48   1 H        0.926     0.033     2.539     2.492
    49   1 H        0.926     0.032     2.556     2.500
    50   1 H        0.926     0.069     2.097     2.265
    51   1 H        0.926     0.061     2.190     2.314
    52   1 H        0.926     0.064     2.154     2.295
    53   1 H        0.926     0.069     2.100     2.266
    54   1 H        0.926     0.064     2.154     2.295
    55   1 H        0.926     0.069     2.100     2.266
    56   1 H        0.926     0.069     2.097     2.265
    57   1 H        0.926     0.061     2.190     2.314
    58   1 H        0.926     0.034     2.531     2.488
    59   1 H        0.926     0.035     2.522     2.483
    60   1 H        0.926     0.032     2.558     2.501
    61   1 H        0.926     0.035     2.520     2.483
    62   1 H        0.926     0.035     2.515     2.480
    63   1 H        0.926     0.032     2.561     2.502
    64   1 H        0.926     0.033     2.539     2.492
    65   1 H        0.926     0.032     2.556     2.500

molecular dipole:
                 x           y           z       tot (Debye)
 q only:       -0.000       2.760      -0.000
   full:       -0.000       2.461      -0.000       6.256

 projected vibrational frequencies (cm⁻¹)
eigval :       -0.00    -0.00     0.00     0.00     0.00     0.00
eigval :        5.60     8.99     9.55    28.83    40.52    45.88
eigval :       46.16    71.82    74.04    99.70   102.25   107.99
eigval :      125.17   127.41   139.47   144.52   148.44   160.37
eigval :      186.07   235.60   238.04   245.43   246.57   272.05
eigval :      272.23   280.08   305.98   352.58   359.15   378.11
eigval :      379.26   387.68   390.89   394.93   395.15   407.14
eigval :      419.68   424.07   424.68   437.71   439.00   473.29
eigval :      488.41   517.28   517.64   522.26   534.22   535.11
eigval :      541.32   541.34   546.87   580.32   580.83   591.89
eigval :      592.04   610.75   611.90   646.56   659.09   673.87
eigval :      673.92   682.75   685.65   708.06   708.25   733.07
eigval :      745.13   757.17   758.81   772.11   772.18   783.20
eigval :      783.27   814.64   819.07   866.73   867.00   874.54
eigval :      874.63   880.88   882.19   897.15   897.19   903.33
eigval :      903.43   906.21   906.27   918.46   918.82   923.87
eigval :      925.30   926.52   928.04   928.30   928.93   932.57
eigval :      933.12  1001.21  1005.06  1011.00  1011.01  1065.09
eigval :     1069.41  1069.43  1072.87  1073.15  1106.17  1111.75
eigval :     1114.48  1118.36  1119.26  1121.42  1151.74  1151.76
eigval :     1166.92  1170.14  1176.53  1176.65  1181.23  1181.26
eigval :     1190.58  1195.02  1195.64  1232.31  1232.47  1241.92
eigval :     1242.02  1243.64  1247.56  1295.19  1295.26  1298.28
eigval :     1298.29  1321.23  1322.02  1354.19  1354.27  1356.82
eigval :     1357.14  1357.36  1357.91  1396.32  1397.73  1419.88
eigval :     1420.95  1425.65  1425.65  1468.57  1470.07  1472.72
eigval :     1472.74  1485.35  1485.38  1569.03  1569.85  1569.91
eigval :     1570.87  1576.14  1576.73  1587.57  1587.64  1597.07
eigval :     1597.08  1610.84  1610.88  3074.86  3074.86  3075.41
eigval :     3075.41  3080.81  3080.83  3081.49  3081.52  3088.40
eigval :     3088.42  3089.60  3089.70  3094.59  3094.59  3096.70
eigval :     3096.75  3097.80  3098.30  3098.44  3099.03  3107.05
eigval :     3107.36  3108.68  3109.10

   temp. (K)  partition function   enthalpy   heat capacity  entropy
                                   cal/mol     cal/K/mol   cal/K/mol   J/K/mol
 298.15  VIB  0.594E+15            18599.889    119.738    115.968
         ROT  0.346E+08              888.752      2.981     37.480
         INT  0.206E+23            19488.641    122.718    153.448
         TR   0.124E+29             1481.254      4.968     44.772
         TOT                       20969.8949   127.6866   198.2197   829.3514

       T/K    H(0)-H(T)+PV         H(T)/Eh          T*S/Eh         G(T)/Eh
   ------------------------------------------------------------------------
    298.15    0.334177E-01    0.521433E+00    0.941806E-01    0.427252E+00
   ------------------------------------------------------------------------

         :::::::::::::::::::::::::::::::::::::::::::::::::::::
         ::                  THERMODYNAMIC                  ::
         :::::::::::::::::::::::::::::::::::::::::::::::::::::
         :: total free energy        -106.210455176758 Eh   ::
         ::.................................................::
         :: total energy             -106.637707332781 Eh   ::
         :: zero point energy           0.488015097826 Eh   ::
         :: G(RRHO) w/o ZPVE           -0.060762941803 Eh   ::
         :: G(RRHO) contrib.            0.427252156023 Eh   ::
         :::::::::::::::::::::::::::::::::::::::::::::::::::::

           -------------------------------------------------
          | TOTAL ENERGY             -106.637707332781 Eh   |
          | TOTAL ENTHALPY           -106.116274580328 Eh   |
          | TOTAL FREE ENERGY        -106.210455176758 Eh   |
          | GRADIENT NORM               0.000055656632 Eh/α |
          | HOMO-LUMO GAP               2.620652951757 eV   |
           -------------------------------------------------

 * finished run on 2025/06/06 at 21:39:51.646
