   * xtb version 6.7.1 (edcfbbe) compiled by 'albert@albert-system' on 2024-07-22

   ID    Z sym.   atoms
    1    6 C      1-12, 14-19, 23-28, 30-41
    2    7 N      13, 29
    3   16 S      20
    4    8 O      21, 22
    5    1 H      42-65

          program call               : xtb data250606/toluene/CzS2/CzS2_toluene_S0_finalOpt.xtbopt.xyz --gfn 2 --uhf 2 --gbsa toluene --ohess vtight --parallel 14 --molden --ceasefiles --namespace data250606/toluene/CzS2/CzS2_toluene_T1_preOpt
      * Solvation model:               GBSA
        Solvent                        toluene
        Solvent mass                       9.2140E+01 g/mol
          :  Hamiltonian                  GFN2-xTB          :
 * total energy  :  -106.5303429 Eh     change        0.5462937E-09 Eh
 * total energy  :  -106.5323088 Eh     change       -0.1965872E-02 Eh
 * total energy  :  -106.5328822 Eh     change       -0.5734513E-03 Eh
 * total energy  :  -106.5329788 Eh     change       -0.9653663E-04 Eh
 * total energy  :  -106.5330386 Eh     change       -0.5985764E-04 Eh
 * total energy  :  -106.5330718 Eh     change       -0.3315125E-04 Eh
 * total energy  :  -106.5331188 Eh     change       -0.4703173E-04 Eh
 * total energy  :  -106.5331641 Eh     change       -0.4531916E-04 Eh
 * total energy  :  -106.5332003 Eh     change       -0.3619765E-04 Eh
 * total energy  :  -106.5332300 Eh     change       -0.2973370E-04 Eh
 * total energy  :  -106.5342520 Eh     change       -0.2186579E-05 Eh
 * total energy  :  -106.5342546 Eh     change       -0.2565381E-05 Eh
 * total energy  :  -106.5342578 Eh     change       -0.3247635E-05 Eh
 * total energy  :  -106.5342619 Eh     change       -0.4095675E-05 Eh
 * total energy  :  -106.5342661 Eh     change       -0.4164724E-05 Eh
 * total energy  :  -106.5342692 Eh     change       -0.3161814E-05 Eh
 * total energy  :  -106.5342712 Eh     change       -0.1950415E-05 Eh
 * total energy  :  -106.5342711 Eh     change        0.4445779E-07 Eh
 * total energy  :  -106.5342712 Eh     change       -0.3216412E-07 Eh
   *** GEOMETRY OPTIMIZATION CONVERGED AFTER 69 ITERATIONS ***

 final structure:
================
65
 xtb: 6.7.1 (edcfbbe)
C           -4.28911725300810        4.06719845233392       -1.98864861319083
C           -3.10926609956744        3.33461166378154       -2.11096561507171
C           -2.99152434192119        2.06637477854613       -1.56743751406561
C           -4.09082537930941        1.54177576793653       -0.89957669238003
C           -5.28439187939986        2.29569622250959       -0.74110111191809
C           -5.38057418334126        3.56141567237273       -1.30025809585989
C           -6.17456176756471        1.48712734414786        0.04496286051216
C           -7.46786025259889        1.66324471480283        0.51413775858364
C           -8.05884947682229        0.63557618252787        1.23231439230271
C           -7.38241971068701       -0.55924057208076        1.47370407628359
C           -6.08862182470300       -0.75614825896799        1.02112839803594
C           -5.48021218094631        0.27950042571452        0.32333799133823
N           -4.22664927521646        0.33078644630076       -0.25191630146377
C           -3.26180006013801       -0.67165107373477       -0.18881956456651
C           -2.60716296726933       -1.10604807811187       -1.36052112589729
C           -1.66947204097637       -2.10277496860915       -1.29600685494282
C           -1.35723909386328       -2.69487525623879       -0.06480449682624
C           -1.98706357327076       -2.25267279831338        1.10638275402182
C           -2.93683228174033       -1.26692587958003        1.04686513919627
S            0.00539088075542       -3.80770394475679        0.04871576781320
O            0.10690447717370       -4.58231566011670       -1.17834790225915
O           -0.09478227752508       -4.55551148252055        1.29244083950791
C            1.36633075593739       -2.69059998284649        0.13834888027023
C            1.67186119830744       -2.06639306211972        1.35528475631085
C            2.60722799976231       -1.06639462489191        1.39821353501217
C            3.26628636793927       -0.66102542403364        0.21866778762750
C            2.94877247494923       -1.28911016768190       -1.00255946189406
C            2.00107807737594       -2.27797867715489       -1.04085833447620
N            4.22702596412143        0.34651042113342        0.26076467338062
C            5.48461207563158        0.28588544639573       -0.30463956327270
C            6.10125763257944       -0.76364059544583       -0.97382506698649
C            7.39698526978349       -0.57234267038927       -1.42326407904662
C            8.06767391976217        0.63025229578052       -1.20575710241269
C            7.46848473555981        1.67220636268964       -0.51556675433473
C            6.17250467916337        1.50269518420492       -0.05144509400319
C            5.27320352226006        2.32780913268136        0.70661003190068
C            5.35976377520524        3.60826531245409        1.23275509019748
C            4.26107023282931        4.12712923774128        1.89957708513020
C            3.08353980849760        3.39271505646996        2.03268550923803
C            2.97514183493532        2.11027842178997        1.52159580761480
C            4.08158945124147        1.57329667447134        0.87576272114147
H           -4.34672085752652        5.05131919239194       -2.42923768972910
H           -2.26953610473165        3.76549674055762       -2.63457505723878
H           -2.07022364743488        1.51059854259815       -1.64807491272670
H           -6.28484798461252        4.14088366656400       -1.19519930610451
H           -8.00405982697258        2.57872328183895        0.31703811809176
H           -9.06570446312215        0.75486501526585        1.60366582927950
H           -7.87770605014387       -1.34874565129531        2.01814431107982
H           -5.57679255217524       -1.69052135299207        1.19211760153615
H           -2.88770940185671       -0.67719771132142       -2.31058890352771
H           -1.17622377361486       -2.47406128937855       -2.18041985018211
H           -1.71337874886899       -2.72201725895145        2.03817974703462
H           -3.41632324996164       -0.91212534232842        1.94657078986704
H            1.17516071792030       -2.41564985843321        2.24669220009430
H            2.88239827533162       -0.61233391228065        2.33809210073153
H            3.43202006322704       -0.95706721051801       -1.90893729666731
H            1.73263404176060       -2.77198095805039       -1.96138760714086
H            5.59408064216486       -1.70383843402653       -1.12567340309720
H            7.89849544693690       -1.37243399690092       -1.94609905374561
H            9.07646728070788        0.74451347155486       -1.57342454399299
H            8.00004392074021        2.59409999735851       -0.33670891709427
H            6.26218310037043        4.18893728614704        1.11886683375959
H            4.31119476914748        5.12281739433447        2.31431140992158
H            2.23809669101781        3.83340545523701        2.53865934588511
H            2.05563978222530        1.55265279006644        1.60975399258114

          :  Hamiltonian                  GFN2-xTB          :
         :: gradient norm              0.000122431364 Eh/a0 ::
         :: HOMO-LUMO gap              0.212839136151 eV    ::
         :: SCC energy              -108.378658193708 Eh    ::
         :: -> dispersion             -0.090400844834 Eh    ::
         :: -> Gsolv                  -0.057892865674 Eh    ::
         :: repulsion energy           1.844387002725 Eh    ::

    * Orbital Energies and Occupations

         #    Occupation            Energy/Eh            Energy/eV
      -------------------------------------------------------------
         1        2.0000           -0.7560450             -20.5730
       ...           ...                  ...                  ...
        87        2.0000           -0.4247671             -11.5585
        88        2.0000           -0.4206518             -11.4465
        89        2.0000           -0.4196354             -11.4189
        90        2.0000           -0.4180635             -11.3761
        91        2.0000           -0.4179385             -11.3727
        92        2.0000           -0.4145436             -11.2803
        93        2.0000           -0.4121752             -11.2159
        94        2.0000           -0.3952844             -10.7562
        95        2.0000           -0.3907577             -10.6331
        96        2.0000           -0.3907335             -10.6324
        97        1.7339           -0.3765035             -10.2452
        98        1.2661           -0.3745757             -10.1927
        99        0.9836           -0.2660144              -7.2386 (HOMO)
       100        0.0156           -0.2581923              -7.0258 (LUMO)
       101        0.0008           -0.2553342              -6.9480
       102                         -0.2432791              -6.6200
       103                         -0.2361215              -6.4252
       104                         -0.2360975              -6.4245
       105                         -0.2349059              -6.3921
       106                         -0.2326564              -6.3309
       107                         -0.2072432              -5.6394
       108                         -0.2037252              -5.5436
       109                         -0.1982945              -5.3959
       110                         -0.1982871              -5.3957
       ...                                ...                  ...
       193                          1.1525580              31.3627
      -------------------------------------------------------------
                  HL-Gap            0.0078221 Eh            0.2128 eV

     #   Z          covCN         q      C6AA      α(0)
     1   6 C        2.919    -0.029    28.722     8.788
     2   6 C        2.921    -0.034    28.843     8.807
     3   6 C        2.908    -0.038    28.945     8.822
     4   6 C        3.071     0.043    26.967     8.515
     5   6 C        3.061    -0.011    28.231     8.713
     6   6 C        2.911    -0.028    28.707     8.786
     7   6 C        3.061    -0.011    28.232     8.713
     8   6 C        2.911    -0.028    28.708     8.786
     9   6 C        2.919    -0.029    28.722     8.788
    10   6 C        2.921    -0.034    28.840     8.807
    11   6 C        2.908    -0.038    28.939     8.821
    12   6 C        3.071     0.043    26.964     8.514
    13   7 N        2.798     0.009    21.098     6.822
    14   6 C        2.912     0.037    27.161     8.546
    15   6 C        2.917    -0.041    29.013     8.833
    16   6 C        2.954    -0.036    28.882     8.815
    17   6 C        2.966    -0.093    30.329     9.033
    18   6 C        2.955    -0.035    28.881     8.815
    19   6 C        2.916    -0.041    29.008     8.832
    20  16 S        3.834     0.874   110.345    17.680
    21   8 O        0.860    -0.591    25.909     6.825
    22   8 O        0.860    -0.592    25.912     6.825
    23   6 C        2.966    -0.093    30.328     9.033
    24   6 C        2.954    -0.036    28.883     8.815
    25   6 C        2.917    -0.041    29.013     8.833
    26   6 C        2.912     0.038    27.160     8.546
    27   6 C        2.916    -0.041    29.007     8.832
    28   6 C        2.955    -0.035    28.880     8.814
    29   7 N        2.798     0.009    21.100     6.822
    30   6 C        3.071     0.043    26.963     8.514
    31   6 C        2.908    -0.038    28.939     8.821
    32   6 C        2.921    -0.034    28.840     8.807
    33   6 C        2.919    -0.029    28.722     8.788
    34   6 C        2.911    -0.028    28.708     8.786
    35   6 C        3.061    -0.011    28.232     8.713
    36   6 C        3.061    -0.011    28.231     8.713
    37   6 C        2.911    -0.028    28.707     8.786
    38   6 C        2.919    -0.029    28.722     8.789
    39   6 C        2.921    -0.034    28.842     8.807
    40   6 C        2.908    -0.038    28.945     8.822
    41   6 C        3.071     0.043    26.966     8.515
    42   1 H        0.926     0.044     2.393     2.419
    43   1 H        0.926     0.043     2.406     2.425
    44   1 H        0.926     0.045     2.387     2.416
    45   1 H        0.926     0.046     2.372     2.408
    46   1 H        0.926     0.046     2.366     2.406
    47   1 H        0.926     0.044     2.397     2.421
    48   1 H        0.926     0.042     2.425     2.435
    49   1 H        0.926     0.043     2.407     2.426
    50   1 H        0.926     0.054     2.266     2.354
    51   1 H        0.926     0.042     2.422     2.434
    52   1 H        0.926     0.043     2.403     2.424
    53   1 H        0.926     0.054     2.269     2.356
    54   1 H        0.926     0.042     2.423     2.434
    55   1 H        0.926     0.054     2.266     2.354
    56   1 H        0.926     0.054     2.269     2.356
    57   1 H        0.926     0.044     2.402     2.424
    58   1 H        0.926     0.043     2.407     2.426
    59   1 H        0.926     0.042     2.424     2.435
    60   1 H        0.926     0.044     2.397     2.421
    61   1 H        0.926     0.046     2.366     2.406
    62   1 H        0.926     0.046     2.372     2.408
    63   1 H        0.926     0.044     2.393     2.419
    64   1 H        0.926     0.043     2.405     2.425
    65   1 H        0.926     0.045     2.387     2.416

molecular dipole:
                 x           y           z       tot (Debye)
 q only:       -0.006       5.620      -0.061
   full:       -0.006       5.223      -0.057      13.277

 projected vibrational frequencies (cm⁻¹)
eigval :       -0.00    -0.00     0.00     0.00     0.00     0.00
eigval :       -3.88     5.32     9.01    26.78    40.35    44.25
eigval :       47.00    74.09    75.21    99.13   102.90   109.13
eigval :      124.70   129.11   137.83   138.94   145.80   155.16
eigval :      175.25   233.51   234.72   239.95   245.85   264.38
eigval :      267.67   272.66   300.37   316.63   361.96   371.83
eigval :      374.21   380.32   381.18   389.95   395.71   397.61
eigval :      413.04   415.11   416.59   426.18   434.52   436.85
eigval :      436.91   507.97   508.21   509.16   509.93   525.00
eigval :      525.72   543.61   544.36   571.29   572.31   583.35
eigval :      583.99   605.12   606.86   634.94   636.47   645.46
eigval :      655.23   667.08   667.61   702.10   702.57   725.13
eigval :      728.78   752.68   753.48   762.70   763.58   768.23
eigval :      768.90   789.07   789.50   835.43   841.78   861.95
eigval :      862.72   864.18   865.34   891.09   892.16   893.49
eigval :      894.55   896.95   897.76   904.93   905.52   906.51
eigval :      907.31   912.37   913.57   914.01   914.04   914.86
eigval :      915.27   975.05   977.51  1004.01  1004.04  1019.60
eigval :     1038.51  1061.56  1061.67  1063.38  1065.18  1083.33
eigval :     1103.16  1105.42  1114.47  1118.69  1121.99  1122.05
eigval :     1145.85  1165.17  1168.30  1169.72  1170.02  1171.13
eigval :     1172.29  1189.96  1195.20  1215.50  1216.54  1216.61
eigval :     1232.94  1233.94  1234.53  1258.88  1259.37  1273.90
eigval :     1286.01  1311.04  1311.28  1325.96  1327.27  1333.40
eigval :     1339.12  1365.73  1369.04  1385.86  1389.79  1392.45
eigval :     1392.83  1401.68  1402.88  1423.01  1424.96  1426.52
eigval :     1431.37  1451.09  1451.16  1470.72  1472.56  1481.42
eigval :     1519.36  1524.09  1533.92  1534.12  1555.90  1556.05
eigval :     1565.39  1565.98  1580.28  3081.80  3081.90  3082.13
eigval :     3082.85  3085.82  3086.21  3087.08  3087.68  3088.69
eigval :     3088.71  3089.44  3089.53  3094.60  3094.61  3095.68
eigval :     3095.71  3099.98  3100.79  3100.87  3101.27  3101.30
eigval :     3102.07  3102.15  3103.76

   temp. (K)  partition function   enthalpy   heat capacity  entropy
                                   cal/mol     cal/K/mol   cal/K/mol   J/K/mol
 298.15  VIB  0.249E+16            18989.056    122.236    119.052
         ROT  0.319E+08              888.752      2.981     37.316
         INT  0.795E+23            19877.808    125.217    156.368
         TR   0.124E+29             1481.254      4.968     44.772
         TOT                       21359.0620   130.1854   201.1403   841.5709

       T/K    H(0)-H(T)+PV         H(T)/Eh          T*S/Eh         G(T)/Eh
   ------------------------------------------------------------------------
    298.15    0.340378E-01    0.515925E+00    0.955682E-01    0.420357E+00
   ------------------------------------------------------------------------

         :::::::::::::::::::::::::::::::::::::::::::::::::::::
         ::                  THERMODYNAMIC                  ::
         :::::::::::::::::::::::::::::::::::::::::::::::::::::
         :: total free energy        -106.113914205346 Eh   ::
         ::.................................................::
         :: total energy             -106.534271186946 Eh   ::
         :: zero point energy           0.481887389165 Eh   ::
         :: G(RRHO) w/o ZPVE           -0.061530407565 Eh   ::
         :: G(RRHO) contrib.            0.420356981601 Eh   ::
         :::::::::::::::::::::::::::::::::::::::::::::::::::::

           -------------------------------------------------
          | TOTAL ENERGY             -106.534271186946 Eh   |
          | TOTAL ENTHALPY           -106.018345965831 Eh   |
          | TOTAL FREE ENERGY        -106.113914205346 Eh   |
          | GRADIENT NORM               0.000123035510 Eh/α |
          | HOMO-LUMO GAP               0.212849919125 eV   |
           -------------------------------------------------

 * finished run on 2025/06/06 at 21:52:46.372
