   * xtb version 6.7.1 (edcfbbe) compiled by 'albert@albert-system' on 2024-07-22

   ID    Z sym.   atoms
    1    6 C      1-12, 14-19, 23-28, 30-41
    2    7 N      13, 29
    3   16 S      20
    4    8 O      21, 22
    5    1 H      42-65

          program call               : xtb data250606/toluene/CzS2/CzS2_toluene_T1_crest.xyz --gfn 2 --uhf 2 --gbsa toluene --ohess vtight --parallel 14 --molden --ceasefiles --namespace data250606/toluene/CzS2/CzS2_toluene_T1_finalOpt
      * Solvation model:               GBSA
        Solvent                        toluene
        Solvent mass                       9.2140E+01 g/mol
          :  Hamiltonian                  GFN2-xTB          :
 * total energy  :  -106.5336266 Eh     change       -0.1304684E-08 Eh
 * total energy  :  -106.5338977 Eh     change       -0.2710730E-03 Eh
 * total energy  :  -106.5340987 Eh     change       -0.2010273E-03 Eh
 * total energy  :  -106.5341298 Eh     change       -0.3103617E-04 Eh
 * total energy  :  -106.5341528 Eh     change       -0.2298768E-04 Eh
 * total energy  :  -106.5341802 Eh     change       -0.2744146E-04 Eh
 * total energy  :  -106.5341891 Eh     change       -0.8878285E-05 Eh
 * total energy  :  -106.5341981 Eh     change       -0.9046187E-05 Eh
 * total energy  :  -106.5342064 Eh     change       -0.8212011E-05 Eh
 * total energy  :  -106.5342129 Eh     change       -0.6593656E-05 Eh
 * total energy  :  -106.5342845 Eh     change       -0.8416570E-06 Eh
 * total energy  :  -106.5342856 Eh     change       -0.1030857E-05 Eh
 * total energy  :  -106.5342868 Eh     change       -0.1250881E-05 Eh
 * total energy  :  -106.5342883 Eh     change       -0.1457187E-05 Eh
 * total energy  :  -106.5342898 Eh     change       -0.1500964E-05 Eh
 * total energy  :  -106.5342912 Eh     change       -0.1419344E-05 Eh
 * total energy  :  -106.5342924 Eh     change       -0.1229436E-05 Eh
 * total energy  :  -106.5342934 Eh     change       -0.1017643E-05 Eh
 * total energy  :  -106.5342934 Eh     change       -0.6930932E-08 Eh
   *** GEOMETRY OPTIMIZATION CONVERGED AFTER 44 ITERATIONS ***

 final structure:
================
65
 xtb: 6.7.1 (edcfbbe)
C           -3.60420591020179       -0.02499963597165       -1.83712845631651
C           -2.33742918138307        0.54187388106236       -1.94923169454906
C           -1.20055073583050       -0.16477206555002       -1.59620308429693
C           -1.36071026275147       -1.46670241043118       -1.13821143065310
C           -2.65004663129691       -2.03779931812500       -0.98931674901905
C           -3.77358511080519       -1.31123003890899       -1.34935772846757
C           -2.45203316304408       -3.34168967591580       -0.41660144663253
C           -3.31153032367285       -4.36531513056667       -0.04889067445603
C           -2.77085452099742       -5.53019980380121        0.47060872456234
C           -1.39229004502693       -5.68650962130224        0.60778673247344
C           -0.51479209101633       -4.67868800940307        0.24945835335044
C           -1.05192862702177       -3.49614392484721       -0.24466833722971
N           -0.40903839909542       -2.35899826322638       -0.68843447456429
C            0.95425139087060       -2.08803107553177       -0.61774551290605
C            1.66679214305477       -2.30390395104358        0.58017137589261
C            2.95733434939214       -1.86504008957146        0.69881584472557
C            3.59622546031671       -1.22640697022803       -0.38176921982259
C            2.91737036907223       -1.10388522268433       -1.60998841264067
C            1.62091575327805       -1.52257962427128       -1.72549293817940
S            4.82229359691088       -0.01254234451481       -0.00361267325395
O            5.58304856830807        0.35616657292542       -1.18402130611287
O            5.58226516714028       -0.38539038846121        1.17599556280912
C            3.60319799565180        1.20789175735943        0.37601988383209
C            2.96588053921081        1.84950791957407       -0.70374718366019
C            1.67778348207180        2.29498495239233       -0.58318980384881
C            0.96604834834825        2.08314929585088        0.61591596775241
C            1.63155144016147        1.51457736970842        1.72277503793856
C            2.92565108832117        1.08919660288040        1.60533435979492
N           -0.39567202150080        2.36131421282831        0.68872696039006
C           -1.35133850322069        1.47417482740471        1.14021750960573
C           -1.19732758852930        0.17159825325348        1.59848189186132
C           -2.33738972762218       -0.52898068246991        1.95333192362179
C           -3.60135696215814        0.04442036569537        1.84269889359741
C           -3.76470981311683        1.33134010515432        1.35469313541157
C           -2.63788948677785        2.05193653453496        0.99290445824563
C           -2.43387940481560        3.35455084383630        0.41939222376879
C           -3.28853228629137        4.38248130108000        0.05239722004229
C           -2.74250548528537        5.54427675108324       -0.46842544066034
C           -1.36334129933658        5.69335483675566       -0.60757690450543
C           -0.49061921909512        4.68114567277469       -0.24994197816403
C           -1.03324015322965        3.50163304791794        0.24542567090593
H           -4.46763867724906        0.55524260990955       -2.12492110102397
H           -2.24015718987507        1.55401021875437       -2.31138006540739
H           -0.22145147264048        0.28406392997874       -1.66160805317873
H           -4.75946747880128       -1.73687013263428       -1.24523714717184
H           -4.37825637541007       -4.25697976419894       -0.17017332571449
H           -3.42426131140495       -6.33812812385148        0.76401761477695
H           -1.00081233944046       -6.61445795838048        0.99641183900774
H            0.55200823111855       -4.81356444980509        0.33802857976036
H            1.16510786062182       -2.75788798442751        1.42138962707081
H            3.50707996217742       -1.96883518413043        1.62114295888823
H            3.44638605430739       -0.66146440092469       -2.43951143332985
H            1.09965557090446       -1.44540134288843       -2.66795259375820
H            3.51463004818661        1.95027413376097       -1.62699998668709
H            1.17708545072742        2.75123305579166       -1.42377575537688
H            1.11139714377376        1.44036214520022        2.66608353262216
H            3.45369476903611        0.64422415626687        2.43411354313158
H           -0.22049773623206       -0.28232873175323        1.66271162713210
H           -2.24487884433017       -1.54145413670761        2.31578472467838
H           -4.46741489559675       -0.53125998036851        2.13176553286359
H           -4.74850670228171        1.76204841234561        1.25170640400370
H           -4.35564415817732        4.27976491429945        0.17516139942862
H           -3.39213018921668        6.35541305849194       -0.76135980102097
H           -0.96757550055369        6.61910233921224       -0.99712145160609
H            0.57675267848854        4.81043302531992       -0.33996884093092

          :  Hamiltonian                  GFN2-xTB          :
         :: gradient norm              0.000073712413 Eh/a0 ::
         :: HOMO-LUMO gap              0.364975947748 eV    ::
         :: SCC energy              -108.379137847764 Eh    ::
         :: -> dispersion             -0.109818823255 Eh    ::
         :: -> Gsolv                  -0.051345370472 Eh    ::
         :: repulsion energy           1.844844398705 Eh    ::

    * Orbital Energies and Occupations

         #    Occupation            Energy/Eh            Energy/eV
      -------------------------------------------------------------
         1        2.0000           -0.7579126             -20.6239
       ...           ...                  ...                  ...
        87        2.0000           -0.4279265             -11.6445
        88        2.0000           -0.4234383             -11.5223
        89        2.0000           -0.4223548             -11.4929
        90        2.0000           -0.4161692             -11.3245
        91        2.0000           -0.4151955             -11.2980
        92        2.0000           -0.4137991             -11.2600
        93        2.0000           -0.4051193             -11.0239
        94        2.0000           -0.3954476             -10.7607
        95        2.0000           -0.3950657             -10.7503
        96        2.0000           -0.3894652             -10.5979
        97        1.9678           -0.3785343             -10.3004
        98        1.0322           -0.3720679             -10.1245
        99        0.9991           -0.2730992              -7.4314 (HOMO)
       100        0.0008           -0.2596864              -7.0664 (LUMO)
       101        0.0000           -0.2568262              -6.9886
       102                         -0.2419823              -6.5847
       103                         -0.2398953              -6.5279
       104                         -0.2390408              -6.5046
       105                         -0.2351222              -6.3980
       106                         -0.2261238              -6.1531
       107                         -0.2069263              -5.6308
       108                         -0.2051508              -5.5824
       109                         -0.2020618              -5.4984
       110                         -0.1972030              -5.3662
       ...                                ...                  ...
       193                          1.1728679              31.9154
      -------------------------------------------------------------
                  HL-Gap            0.0134128 Eh            0.3650 eV

     #   Z          covCN         q      C6AA      α(0)
     1   6 C        2.920    -0.029    28.722     8.789
     2   6 C        2.922    -0.031    28.780     8.797
     3   6 C        2.909    -0.038    28.934     8.820
     4   6 C        3.076     0.043    26.967     8.514
     5   6 C        3.062    -0.010    28.213     8.710
     6   6 C        2.911    -0.027    28.668     8.780
     7   6 C        3.063    -0.009    28.187     8.706
     8   6 C        2.911    -0.028    28.692     8.783
     9   6 C        2.919    -0.030    28.752     8.793
    10   6 C        2.922    -0.032    28.794     8.800
    11   6 C        2.909    -0.039    28.958     8.824
    12   6 C        3.072     0.043    26.959     8.513
    13   7 N        2.799     0.008    21.122     6.826
    14   6 C        2.912     0.036    27.197     8.552
    15   6 C        2.915    -0.041    29.023     8.834
    16   6 C        2.963    -0.039    28.965     8.828
    17   6 C        2.964    -0.103    30.592     9.072
    18   6 C        2.963    -0.039    28.960     8.827
    19   6 C        2.916    -0.041    29.015     8.833
    20  16 S        3.870     0.894   109.738    17.631
    21   8 O        0.860    -0.585    25.759     6.805
    22   8 O        0.860    -0.585    25.759     6.805
    23   6 C        2.964    -0.103    30.592     9.072
    24   6 C        2.963    -0.039    28.965     8.828
    25   6 C        2.915    -0.041    29.023     8.834
    26   6 C        2.912     0.036    27.197     8.552
    27   6 C        2.916    -0.041    29.015     8.833
    28   6 C        2.963    -0.039    28.960     8.827
    29   7 N        2.799     0.008    21.122     6.826
    30   6 C        3.076     0.043    26.967     8.514
    31   6 C        2.909    -0.038    28.934     8.820
    32   6 C        2.922    -0.031    28.780     8.797
    33   6 C        2.920    -0.029    28.722     8.789
    34   6 C        2.911    -0.027    28.668     8.780
    35   6 C        3.062    -0.010    28.213     8.710
    36   6 C        3.063    -0.009    28.187     8.706
    37   6 C        2.911    -0.028    28.692     8.783
    38   6 C        2.919    -0.030    28.752     8.793
    39   6 C        2.922    -0.032    28.794     8.800
    40   6 C        2.909    -0.039    28.958     8.824
    41   6 C        3.072     0.043    26.959     8.513
    42   1 H        0.926     0.048     2.349     2.397
    43   1 H        0.926     0.042     2.428     2.437
    44   1 H        0.926     0.041     2.438     2.442
    45   1 H        0.926     0.050     2.316     2.380
    46   1 H        0.926     0.048     2.348     2.396
    47   1 H        0.926     0.044     2.395     2.420
    48   1 H        0.926     0.042     2.416     2.431
    49   1 H        0.926     0.044     2.400     2.422
    50   1 H        0.926     0.053     2.279     2.361
    51   1 H        0.926     0.040     2.448     2.447
    52   1 H        0.926     0.040     2.454     2.450
    53   1 H        0.926     0.053     2.287     2.365
    54   1 H        0.926     0.040     2.448     2.447
    55   1 H        0.926     0.053     2.279     2.361
    56   1 H        0.926     0.053     2.287     2.365
    57   1 H        0.926     0.040     2.454     2.450
    58   1 H        0.926     0.041     2.438     2.442
    59   1 H        0.926     0.042     2.428     2.437
    60   1 H        0.926     0.048     2.349     2.397
    61   1 H        0.926     0.050     2.316     2.380
    62   1 H        0.926     0.048     2.348     2.396
    63   1 H        0.926     0.044     2.395     2.420
    64   1 H        0.926     0.042     2.416     2.431
    65   1 H        0.926     0.044     2.400     2.422

molecular dipole:
                 x           y           z       tot (Debye)
 q only:       -6.948       0.018       0.005
   full:       -6.453       0.017       0.004      16.402

 projected vibrational frequencies (cm⁻¹)
eigval :       -0.00    -0.00     0.00     0.00     0.00     0.00
eigval :       -2.29    23.90    33.22    38.56    48.92    52.61
eigval :       70.79    83.03    92.42   100.60   102.62   110.71
eigval :      128.39   134.87   144.01   152.04   163.44   169.67
eigval :      181.02   235.60   236.47   238.29   253.84   269.79
eigval :      270.40   274.04   296.27   314.38   364.31   370.27
eigval :      373.99   383.18   383.28   390.19   395.25   401.65
eigval :      412.23   416.11   417.05   426.16   434.42   436.89
eigval :      437.55   511.01   511.71   519.10   520.02   528.86
eigval :      529.50   545.28   546.51   570.44   574.62   583.74
eigval :      585.10   603.50   605.90   626.58   630.30   654.47
eigval :      663.65   668.07   668.84   702.98   703.34   724.39
eigval :      725.66   753.77   754.26   764.29   767.97   772.95
eigval :      774.40   780.03   792.90   834.61   837.91   866.25
eigval :      867.81   868.90   869.64   890.96   892.77   894.22
eigval :      896.49   899.37   899.96   908.67   909.23   911.01
eigval :      911.52   912.15   913.49   916.09   916.61   920.74
eigval :      920.84   975.49   977.07  1006.55  1006.92  1023.49
eigval :     1031.72  1062.29  1062.87  1067.99  1069.30  1088.93
eigval :     1104.38  1107.96  1112.15  1116.35  1130.59  1133.97
eigval :     1155.16  1167.57  1170.66  1172.12  1174.07  1174.11
eigval :     1174.52  1193.10  1194.23  1222.56  1222.98  1224.55
eigval :     1230.69  1235.57  1236.62  1266.57  1269.72  1282.29
eigval :     1286.95  1317.62  1325.05  1325.45  1332.59  1337.76
eigval :     1341.44  1366.44  1368.63  1370.65  1397.97  1398.25
eigval :     1400.52  1401.79  1404.39  1429.20  1433.01  1436.62
eigval :     1440.56  1454.91  1455.43  1474.91  1475.31  1490.88
eigval :     1544.49  1545.64  1551.12  1554.66  1561.75  1563.22
eigval :     1570.32  1578.22  1582.34  3082.05  3082.42  3082.47
eigval :     3082.48  3084.24  3084.89  3085.25  3085.40  3088.74
eigval :     3088.87  3090.43  3090.71  3095.59  3096.01  3096.46
eigval :     3096.99  3097.24  3097.86  3099.69  3100.17  3101.07
eigval :     3101.53  3102.17  3103.54

   temp. (K)  partition function   enthalpy   heat capacity  entropy
                                   cal/mol     cal/K/mol   cal/K/mol   J/K/mol
 298.15  VIB  0.532E+14            18700.087    123.019    115.099
         ROT  0.178E+08              888.752      2.981     36.153
         INT  0.945E+21            19588.839    126.000    151.252
         TR   0.124E+29             1481.254      4.968     44.772
         TOT                       21070.0928   130.9681   196.0234   820.1618

       T/K    H(0)-H(T)+PV         H(T)/Eh          T*S/Eh         G(T)/Eh
   ------------------------------------------------------------------------
    298.15    0.335773E-01    0.516931E+00    0.931370E-01    0.423794E+00
   ------------------------------------------------------------------------

         :::::::::::::::::::::::::::::::::::::::::::::::::::::
         ::                  THERMODYNAMIC                  ::
         :::::::::::::::::::::::::::::::::::::::::::::::::::::
         :: total free energy        -106.110499911381 Eh   ::
         ::.................................................::
         :: total energy             -106.534293449296 Eh   ::
         :: zero point energy           0.483353242008 Eh   ::
         :: G(RRHO) w/o ZPVE           -0.059559704092 Eh   ::
         :: G(RRHO) contrib.            0.423793537915 Eh   ::
         :::::::::::::::::::::::::::::::::::::::::::::::::::::

           -------------------------------------------------
          | TOTAL ENERGY             -106.534293449296 Eh   |
          | TOTAL ENTHALPY           -106.017362877077 Eh   |
          | TOTAL FREE ENERGY        -106.110499911381 Eh   |
          | GRADIENT NORM               0.000073598809 Eh/α |
          | HOMO-LUMO GAP               0.364981504687 eV   |
           -------------------------------------------------

 * finished run on 2025/06/06 at 21:56:55.838
