   * xtb version 6.7.1 (edcfbbe) compiled by 'albert@albert-system' on 2024-07-22

   ID    Z sym.   atoms
    1    6 C      1-12, 14-19, 23-28, 30-41
    2    7 N      13, 29
    3   16 S      20
    4    8 O      21, 22
    5    1 H      42-65

          program call               : xtb data250606/toluene/CzS2/CzS2_toluene_S0_crest.xyz --gfn 2 --gbsa toluene --ohess vtight --parallel 14 --molden --ceasefiles --namespace data250606/toluene/CzS2/CzS2_toluene_S0_finalOpt
      * Solvation model:               GBSA
        Solvent                        toluene
        Solvent mass                       9.2140E+01 g/mol
          :  Hamiltonian                  GFN2-xTB          :
 * total energy  :  -106.6374749 Eh     change       -0.1454339E-09 Eh
 * total energy  :  -106.6375843 Eh     change       -0.1093715E-03 Eh
 * total energy  :  -106.6376458 Eh     change       -0.6152199E-04 Eh
 * total energy  :  -106.6376547 Eh     change       -0.8854526E-05 Eh
 * total energy  :  -106.6376641 Eh     change       -0.9393628E-05 Eh
 * total energy  :  -106.6376670 Eh     change       -0.2889209E-05 Eh
 * total energy  :  -106.6376721 Eh     change       -0.5142034E-05 Eh
 * total energy  :  -106.6376749 Eh     change       -0.2738312E-05 Eh
 * total energy  :  -106.6376817 Eh     change       -0.6806035E-05 Eh
 * total energy  :  -106.6376846 Eh     change       -0.2902464E-05 Eh
 * total energy  :  -106.6377239 Eh     change       -0.2445200E-05 Eh
 * total energy  :  -106.6377267 Eh     change       -0.2854410E-05 Eh
 * total energy  :  -106.6377294 Eh     change       -0.2656132E-05 Eh
 * total energy  :  -106.6377316 Eh     change       -0.2162245E-05 Eh
 * total energy  :  -106.6377334 Eh     change       -0.1856061E-05 Eh
 * total energy  :  -106.6377354 Eh     change       -0.1973597E-05 Eh
 * total energy  :  -106.6377379 Eh     change       -0.2496897E-05 Eh
 * total energy  :  -106.6377413 Eh     change       -0.3381640E-05 Eh
 * total energy  :  -106.6377413 Eh     change       -0.9602545E-08 Eh
   *** GEOMETRY OPTIMIZATION CONVERGED AFTER 44 ITERATIONS ***

 final structure:
================
65
 xtb: 6.7.1 (edcfbbe)
C           -4.77993330734552        4.27487479550250       -1.31248601596373
C           -3.52765028967185        3.66909922263185       -1.38548533936527
C           -3.34176169977161        2.34850335229055       -1.02035514513747
C           -4.44878570520042        1.63443230276089       -0.58472941228858
C           -5.71639432383296        2.24956489738813       -0.47826571143135
C           -5.87941475401437        3.57746382192320       -0.85186957171477
C           -6.61025734951352        1.25852804496363        0.05625328154820
C           -7.96626868343940        1.26191543875408        0.35699847185869
C           -8.53860366619933        0.10365577803662        0.84501501277529
C           -7.77968428160781       -1.05181936874049        1.01699473612379
C           -6.42856784601791       -1.07886637923458        0.72445673572590
C           -5.84237809370789        0.08989412200107        0.26045957930881
N           -4.53580231434072        0.32738432584237       -0.13372201291972
C           -3.48747648025337       -0.59209604309516       -0.09263485756213
C           -2.67196625292612       -0.77358160881026       -1.21261657038653
C           -1.62532726171936       -1.67360758038558       -1.16669658633846
C           -1.40172376376671       -2.39962670496028       -0.01056279439528
C           -2.20272276336126       -2.23698005066853        1.10386229494913
C           -3.24749383286254       -1.33274509755872        1.06638058632221
S            0.00436882320181       -3.51004768799707        0.04549025143009
O            0.05187956609508       -4.28079410160225       -1.17891138057912
O           -0.03760294458549       -4.25284674211474        1.28730797090956
C            1.40348174398630       -2.38958681452160        0.07640125244086
C            1.61067246928923       -1.62138779457690        1.20811351515679
C            2.65431255497022       -0.71710097381286        1.23461243993870
C            3.48396736173831       -0.57430945572266        0.11944586489858
C            3.25935006571804       -1.35592683004011       -1.01549438301322
C            2.21730029379153       -2.26393872811822       -1.03346311166423
N            4.53202258540378        0.34612236011057        0.14156019684595
C            5.84325117763101        0.09366756551106       -0.22719560572237
C            6.43334701767100       -1.09093195644679       -0.64364076274740
C            7.78816155069755       -1.07567212438712       -0.91937624730137
C            8.54684125588457        0.08400066097608       -0.77706490021646
C            7.97035296936572        1.25882210249182       -0.33575610277102
C            6.61064462433175        1.26736227888081       -0.05228631781497
C            5.71188536520209        2.27691901710811        0.43752084826874
C            5.87274522173061        3.61621573146420        0.76905676746316
C            4.76858706033300        4.33046430399552        1.19102596207562
C            3.51416989101061        3.72953146889260        1.26715725092292
C            3.33054534747803        2.39762581702269        0.94440935138058
C            4.44174645400375        1.66760946950020        0.54763732144520
H           -4.88580893761814        5.30740374644864       -1.61106977662136
H           -2.68164011453793        4.24479047759504       -1.73141249218670
H           -2.36250359397546        1.89685865203192       -1.06336887808331
H           -6.84598791635446        4.05236066159361       -0.77661210814730
H           -8.55822403847208        2.15185478714338        0.20531193285776
H           -9.59094659001404        0.08556982103597        1.08745869659160
H           -8.25746953540287       -1.94875137514278        1.38315673774706
H           -5.85705293631574       -1.98686237335649        0.84240611096494
H           -2.87591077009692       -0.21981428448686       -2.11583578854459
H           -0.99102663282260       -1.83884798571666       -2.02309455841178
H           -1.99315353039111       -2.82347423522178        1.98486946931842
H           -3.86769857918889       -1.18115978417870        1.93610290397165
H            0.96641965663640       -1.75720153847223        2.06222856943135
H            2.84522054703399       -0.13041890111726        2.11972503114978
H            3.88956319836155       -1.23338571489158       -1.88261308454221
H            2.01948874272252       -2.88150762550166       -1.89574016898795
H            5.86189732905418       -2.00170243021906       -0.73807290501572
H            8.26910612762463       -1.98527853484405       -1.24827425616157
H            9.60212395499451        0.05640258803296       -1.00540248218718
H            8.56189827371688        2.15257379396338       -0.20657987148330
H            6.84133550766683        4.08661842290488        0.69139753230197
H            4.87250418677884        5.37225824231713        1.45622111777061
H            2.66469867539304        4.31799098020211        1.58169733536125
H            2.34989351329329        1.94926890341708        0.98969679453687

          :  Hamiltonian                  GFN2-xTB          :
         :: gradient norm              0.000073618042 Eh/a0 ::
         :: HOMO-LUMO gap              2.634870850531 eV    ::
         :: SCC energy              -108.504107467820 Eh    ::
         :: -> dispersion             -0.090235028810 Eh    ::
         :: -> Gsolv                  -0.051000472946 Eh    ::
         :: repulsion energy           1.866366196030 Eh    ::

    * Orbital Energies and Occupations

         #    Occupation            Energy/Eh            Energy/eV
      -------------------------------------------------------------
         1        2.0000           -0.7777541             -21.1638
       ...           ...                  ...                  ...
        86        2.0000           -0.4259652             -11.5911
        87        2.0000           -0.4255003             -11.5785
        88        2.0000           -0.4220662             -11.4850
        89        2.0000           -0.4219938             -11.4830
        90        2.0000           -0.4218412             -11.4789
        91        2.0000           -0.4213512             -11.4655
        92        2.0000           -0.4127265             -11.2309
        93        2.0000           -0.4091410             -11.1333
        94        2.0000           -0.4086771             -11.1207
        95        2.0000           -0.3827326             -10.4147
        96        2.0000           -0.3827219             -10.4144
        97        2.0000           -0.3700873             -10.0706
        98        2.0000           -0.3691675             -10.0456 (HOMO)
        99                         -0.2723377              -7.4107 (LUMO)
       100                         -0.2589628              -7.0467
       101                         -0.2522621              -6.8644
       102                         -0.2519823              -6.8568
       103                         -0.2478862              -6.7453
       104                         -0.2467284              -6.7138
       105                         -0.2259588              -6.1487
       106                         -0.2259525              -6.1485
       107                         -0.1993043              -5.4233
       108                         -0.1973224              -5.3694
       109                         -0.1899109              -5.1677
       ...                                ...                  ...
       193                          1.1670446              31.7569
      -------------------------------------------------------------
                  HL-Gap            0.0968297 Eh            2.6349 eV

     #   Z          covCN         q      C6AA      α(0)
     1   6 C        2.920    -0.040    29.002     8.831
     2   6 C        2.924    -0.033    28.828     8.805
     3   6 C        2.910    -0.052    29.284     8.873
     4   6 C        3.069     0.044    26.937     8.510
     5   6 C        3.066    -0.015    28.316     8.726
     6   6 C        2.912    -0.033    28.825     8.804
     7   6 C        3.066    -0.015    28.320     8.726
     8   6 C        2.912    -0.033    28.828     8.804
     9   6 C        2.920    -0.040    29.002     8.831
    10   6 C        2.924    -0.033    28.827     8.805
    11   6 C        2.910    -0.051    29.278     8.872
    12   6 C        3.069     0.045    26.932     8.509
    13   7 N        2.801    -0.035    21.918     6.953
    14   6 C        2.912     0.074    26.354     8.418
    15   6 C        2.924    -0.038    28.934     8.821
    16   6 C        2.960    -0.026    28.647     8.779
    17   6 C        2.971    -0.078    29.946     8.976
    18   6 C        2.952    -0.023    28.576     8.768
    19   6 C        2.924    -0.038    28.942     8.822
    20  16 S        3.820     0.938   108.445    17.527
    21   8 O        0.860    -0.576    25.537     6.775
    22   8 O        0.860    -0.576    25.541     6.776
    23   6 C        2.971    -0.078    29.947     8.976
    24   6 C        2.960    -0.026    28.649     8.779
    25   6 C        2.924    -0.038    28.934     8.821
    26   6 C        2.912     0.074    26.355     8.418
    27   6 C        2.924    -0.038    28.942     8.822
    28   6 C        2.952    -0.023    28.575     8.768
    29   7 N        2.801    -0.035    21.918     6.953
    30   6 C        3.069     0.045    26.932     8.509
    31   6 C        2.910    -0.051    29.278     8.873
    32   6 C        2.924    -0.033    28.827     8.805
    33   6 C        2.920    -0.040    29.002     8.831
    34   6 C        2.912    -0.033    28.828     8.804
    35   6 C        3.066    -0.015    28.320     8.726
    36   6 C        3.066    -0.015    28.316     8.726
    37   6 C        2.912    -0.033    28.825     8.804
    38   6 C        2.920    -0.040    29.002     8.831
    39   6 C        2.924    -0.033    28.828     8.805
    40   6 C        2.910    -0.052    29.283     8.873
    41   6 C        3.069     0.044    26.937     8.510
    42   1 H        0.926     0.032     2.558     2.501
    43   1 H        0.926     0.035     2.520     2.483
    44   1 H        0.926     0.034     2.533     2.489
    45   1 H        0.926     0.035     2.520     2.483
    46   1 H        0.926     0.035     2.516     2.480
    47   1 H        0.926     0.032     2.562     2.503
    48   1 H        0.926     0.033     2.540     2.492
    49   1 H        0.926     0.032     2.555     2.500
    50   1 H        0.926     0.069     2.094     2.263
    51   1 H        0.926     0.059     2.208     2.324
    52   1 H        0.926     0.064     2.153     2.294
    53   1 H        0.926     0.069     2.100     2.266
    54   1 H        0.926     0.059     2.210     2.325
    55   1 H        0.926     0.069     2.094     2.263
    56   1 H        0.926     0.069     2.100     2.266
    57   1 H        0.926     0.064     2.153     2.294
    58   1 H        0.926     0.032     2.555     2.500
    59   1 H        0.926     0.033     2.540     2.492
    60   1 H        0.926     0.032     2.561     2.503
    61   1 H        0.926     0.035     2.515     2.480
    62   1 H        0.926     0.035     2.521     2.483
    63   1 H        0.926     0.032     2.558     2.501
    64   1 H        0.926     0.035     2.520     2.482
    65   1 H        0.926     0.034     2.533     2.489

molecular dipole:
                 x           y           z       tot (Debye)
 q only:       -0.009       2.793      -0.033
   full:       -0.009       2.481      -0.029       6.307

 projected vibrational frequencies (cm⁻¹)
eigval :       -0.00    -0.00    -0.00    -0.00     0.00     0.00
eigval :       -2.50     6.19     8.50    28.60    38.87    44.82
eigval :       46.60    71.66    72.86    97.15   100.56   105.30
eigval :      122.10   129.84   140.56   143.44   149.39   159.33
eigval :      187.55   233.48   236.45   244.42   247.17   270.66
eigval :      271.33   278.46   305.11   353.08   357.15   375.48
eigval :      375.82   385.79   390.27   394.82   395.14   406.52
eigval :      420.92   423.28   424.99   437.48   438.93   474.65
eigval :      489.36   517.11   517.42   521.57   533.34   534.32
eigval :      540.29   540.68   546.57   580.50   580.77   591.71
eigval :      592.03   610.42   611.69   646.80   658.18   673.48
eigval :      673.72   682.31   684.58   707.68   708.43   733.04
eigval :      745.02   756.91   758.55   767.80   769.35   779.37
eigval :      780.91   815.37   818.60   866.18   866.64   873.60
eigval :      874.23   880.93   881.53   896.92   897.04   901.95
eigval :      902.41   902.49   903.53   916.57   919.20   919.43
eigval :      920.76   924.23   926.70   927.50   928.81   932.91
eigval :      933.05  1000.99  1004.74  1011.06  1011.11  1065.43
eigval :     1069.64  1069.85  1072.74  1074.59  1105.91  1111.04
eigval :     1114.23  1117.36  1118.77  1121.46  1150.72  1150.93
eigval :     1166.61  1169.64  1173.89  1174.85  1178.83  1179.77
eigval :     1190.99  1194.69  1195.97  1232.32  1232.81  1241.69
eigval :     1242.53  1243.31  1246.42  1295.04  1295.05  1297.12
eigval :     1298.03  1321.37  1321.72  1353.93  1353.97  1356.93
eigval :     1357.00  1357.13  1357.95  1396.47  1397.37  1419.91
eigval :     1420.99  1425.61  1425.78  1468.78  1470.11  1472.37
eigval :     1472.49  1484.96  1485.06  1569.16  1569.81  1570.10
eigval :     1570.57  1576.11  1576.45  1587.29  1587.41  1596.97
eigval :     1597.03  1610.72  1610.81  3074.16  3074.48  3074.48
eigval :     3074.69  3080.12  3080.96  3081.20  3081.35  3087.94
eigval :     3088.73  3089.51  3089.64  3094.21  3094.56  3096.45
eigval :     3096.56  3097.31  3097.46  3098.72  3099.16  3106.32
eigval :     3106.36  3108.18  3108.44

   temp. (K)  partition function   enthalpy   heat capacity  entropy
                                   cal/mol     cal/K/mol   cal/K/mol   J/K/mol
 298.15  VIB  0.250E+16            18645.311    119.786    117.537
         ROT  0.669E+08              888.752      2.981     38.788
         INT  0.167E+24            19534.064    122.767    156.325
         TR   0.124E+29             1481.254      4.968     44.772
         TOT                       21015.3177   127.7353   201.0971   841.3901

       T/K    H(0)-H(T)+PV         H(T)/Eh          T*S/Eh         G(T)/Eh
   ------------------------------------------------------------------------
    298.15    0.334900E-01    0.521257E+00    0.955477E-01    0.425710E+00
   ------------------------------------------------------------------------

         :::::::::::::::::::::::::::::::::::::::::::::::::::::
         ::                  THERMODYNAMIC                  ::
         :::::::::::::::::::::::::::::::::::::::::::::::::::::
         :: total free energy        -106.212031540017 Eh   ::
         ::.................................................::
         :: total energy             -106.637741272949 Eh   ::
         :: zero point energy           0.487767392020 Eh   ::
         :: G(RRHO) w/o ZPVE           -0.062057659088 Eh   ::
         :: G(RRHO) contrib.            0.425709732932 Eh   ::
         :::::::::::::::::::::::::::::::::::::::::::::::::::::

           -------------------------------------------------
          | TOTAL ENERGY             -106.637741272949 Eh   |
          | TOTAL ENTHALPY           -106.116483840456 Eh   |
          | TOTAL FREE ENERGY        -106.212031540017 Eh   |
          | GRADIENT NORM               0.000073617659 Eh/α |
          | HOMO-LUMO GAP               2.634871401418 eV   |
           -------------------------------------------------

 * finished run on 2025/06/06 at 21:52:37.835
