   * xtb version 6.7.1 (edcfbbe) compiled by 'albert@albert-system' on 2024-07-22

   ID    Z sym.   atoms
    1    6 C      1-9, 11-20, 22-46
    2    7 N      10, 21
    3    1 H      47-82

          program call               : xtb data2507/toluene/DPE-DDMAc/DPE-DDMAc.xyz --gfn 2 --gbsa toluene --ohess vtight --parallel 40 --molden --ceasefiles --namespace data2507/toluene/DPE-DDMAc/DPE-DDMAc_toluene_S0_preOpt
      * Solvation model:               GBSA
        Solvent                        toluene
        Solvent mass                       9.2140E+01 g/mol
          :  Hamiltonian                  GFN2-xTB          :
 * total energy  :  -118.4519158 Eh     change       -0.5313751E-08 Eh
 * total energy  :  -118.4689927 Eh     change       -0.1707691E-01 Eh
 * total energy  :  -118.4743318 Eh     change       -0.5339056E-02 Eh
 * total energy  :  -118.4751375 Eh     change       -0.8057067E-03 Eh
 * total energy  :  -118.4756933 Eh     change       -0.5557974E-03 Eh
 * total energy  :  -118.4759772 Eh     change       -0.2839756E-03 Eh
 * total energy  :  -118.4761510 Eh     change       -0.1737177E-03 Eh
 * total energy  :  -118.4762686 Eh     change       -0.1176097E-03 Eh
 * total energy  :  -118.4763768 Eh     change       -0.1082144E-03 Eh
 * total energy  :  -118.4764269 Eh     change       -0.5017039E-04 Eh
 * total energy  :  -118.4764760 Eh     change       -0.3784116E-05 Eh
 * total energy  :  -118.4764781 Eh     change       -0.2116271E-05 Eh
 * total energy  :  -118.4764792 Eh     change       -0.1049035E-05 Eh
 * total energy  :  -118.4764796 Eh     change       -0.4597298E-06 Eh
 * total energy  :  -118.4764794 Eh     change        0.1826789E-06 Eh
 * total energy  :  -118.4764798 Eh     change       -0.3397362E-06 Eh
 * total energy  :  -118.4764799 Eh     change       -0.1251052E-06 Eh
 * total energy  :  -118.4764801 Eh     change       -0.1733760E-06 Eh
 * total energy  :  -118.4764801 Eh     change       -0.3943498E-08 Eh
   *** GEOMETRY OPTIMIZATION CONVERGED AFTER 22 ITERATIONS ***

 final structure:
================
82
 xtb: 6.7.1 (edcfbbe)
C          -10.02297803188807        0.87823994319389       -0.90921250136280
C           -9.14170728900094        0.00060843679476       -0.00029825256093
C          -10.02417233573622       -0.87624695594162        0.90820458172542
C           -8.29158759932454       -0.90409914646628       -0.87353212667809
C           -8.90875450006604       -1.79799757287376       -1.73786393673840
C           -8.18695612003909       -2.64607477364324       -2.55830516676920
C           -6.80458297044611       -2.60783593677158       -2.52109886793622
C           -6.16506728005459       -1.72969007859058       -1.67130903785837
C           -6.89288560219276       -0.87119864214463       -0.84137767883491
N           -6.22063373323023       -0.00051814081832        0.00021147090097
C           -4.79627322560055       -0.00073432778095        0.00012470367150
C           -4.10060020720372        0.83816654745747       -0.86395198208139
C           -2.71988512892791        0.83968017958982       -0.86577468472611
C           -2.01770364617111       -0.00085346231391        0.00011729883139
C           -0.60387706395391       -0.00068825194098        0.00025315278221
C            0.60387384157065       -0.00046176601495        0.00034019592250
C            2.01769845690348       -0.00013686204307        0.00031044956349
C            2.72013307347917       -0.84132777543354       -0.86473048289255
C            4.10085075327373       -0.83948675838952       -0.86281254345672
C            4.79627166618805        0.00039999447734        0.00051250225982
N            6.22063220796231        0.00057351995559        0.00058558981336
C            6.89273451180810       -0.87008881296682        0.84231760208845
C            6.16477746317779       -1.72752673146146        1.67321609057217
C            6.80414471002614       -2.60565008564047        2.52314147303520
C            8.18651020267472       -2.64492326232978        2.55951968757243
C            8.90844844752469       -1.79781604087673        1.73820098476445
C            8.29143111240918       -0.90394283684725        0.87373493015982
C            9.14170697049889       -0.00033751533610       -0.00048745237878
C           10.02282015165464       -0.87834925911746       -0.90918872229817
C           10.02432841237234        0.87698103081490        0.90741736196407
C            8.29135027189504        0.90393245629561       -0.87394411579799
C            8.90828981261647        1.79749749505418       -1.73878259955316
C            8.18627601835076        2.64518115081613       -2.55944038520846
C            6.80391281904774        2.60685347091255       -2.52195973998289
C            6.16461919301398        1.72900896726078       -1.67169055696830
C            6.89265521056643        0.87094436856113       -0.84150804885512
C            4.10041605960375        0.84002389350398        0.86373533534577
C            2.71969740038909        0.84131064818682        0.86546846372381
C           -2.71994972939635       -0.84136166666867        0.86597750503354
C           -4.10066968917301       -0.83974780073300        0.86414686644859
C           -6.89250538716510        0.87064523001590        0.84161017106123
C           -6.16432787099434        1.72853488219800        1.67184967368375
C           -6.80347043934983        2.60711917424580        2.52146888162082
C           -8.18582602827505        2.64642393993745        2.55818261751095
C           -8.90798208228222        1.79892749318069        1.73745710070875
C           -8.29119464319928        0.90459177535295        0.87330510774447
H          -10.66009532492695        0.26501543334478       -1.54056913046304
H           -9.39595653558757        1.49550967757229       -1.55070340985053
H          -10.65798539650515        1.53280737666853       -0.31854167528958
H          -10.65951193304986       -1.53022674011173        0.31724068161291
H          -10.66102072864595       -0.26246349741229        1.53928770732022
H           -9.39799385110009       -1.49409706279151        1.54996034676027
H           -9.98694424807790       -1.83895245228113       -1.77738854237411
H           -8.70055554198290       -3.32876527353908       -3.21879127755315
H           -6.22040530201824       -3.26105439695645       -3.15298839182566
H           -5.08626552523847       -1.70508856512379       -1.64703168698984
H           -4.65070829187432        1.48594507010406       -1.53090466815357
H           -2.17516374965830        1.48924291249190       -1.53501166037813
H            2.17561420447503       -1.49163756174729       -1.53340917877758
H            4.65116459788452       -1.48772877737653       -1.52914829257577
H            5.08598054099440       -1.70211707271698        1.64960403226962
H            6.21985919338764       -3.25804596487085        3.15578048382993
H            8.69999354856457       -3.32763891476353        3.22006954434446
H            9.98663083425704       -1.83955448405147        1.77710668409279
H           10.65976548228889       -0.26538520448288       -1.54097192057826
H            9.39569448181750       -1.49595641103016       -1.55025400968587
H           10.65799428987971       -1.53260315980248       -0.31834952712575
H            9.39826337431070        1.49509338771221        1.54903381164963
H           10.66135366384498        0.26351988809102        1.53863456302163
H           10.65949882803405        1.53072219870801        0.31601017193595
H            9.98646909591729        1.83849107023823       -1.77855006402172
H            8.69970119995003        3.32763010817464       -3.22031142316334
H            6.21957203473718        3.25976753957243       -3.15401318346848
H            5.08582324253109        1.70431823831867       -1.64722498572517
H            4.65036941803588        1.48850312388744        1.53013252252418
H            2.17482495193936        1.49135395265080        1.53411612751891
H           -2.17527979071847       -1.49091011131712        1.53527179956042
H           -4.65082585582123       -1.48744904286881        1.53113604118789
H           -5.08553694176130        1.70312235091598        1.64795480353777
H           -6.21901731707019        3.25986796925847        3.15358916262238
H           -8.69913473324721        3.32949287542167        3.21850320404661
H           -9.98615407890072        1.84072038545177        1.77659242460170

          :  Hamiltonian                  GFN2-xTB          :
         :: gradient norm              0.000033169432 Eh/a0 ::
         :: HOMO-LUMO gap              2.464494331134 eV    ::
         :: SCC energy              -120.712189808078 Eh    ::
         :: -> dispersion             -0.109579168904 Eh    ::
         :: -> Gsolv                  -0.047816571508 Eh    ::
         :: repulsion energy           2.235709721567 Eh    ::

    * Orbital Energies and Occupations

         #    Occupation            Energy/Eh            Energy/eV
      -------------------------------------------------------------
         1        2.0000           -0.6675750             -18.1656
       ...           ...                  ...                  ...
        99        2.0000           -0.4087920             -11.1238
       100        2.0000           -0.4052135             -11.0264
       101        2.0000           -0.4050613             -11.0223
       102        2.0000           -0.4012858             -10.9195
       103        2.0000           -0.4012857             -10.9195
       104        2.0000           -0.3960537             -10.7772
       105        2.0000           -0.3960537             -10.7772
       106        2.0000           -0.3917060             -10.6589
       107        2.0000           -0.3911188             -10.6429
       108        2.0000           -0.3907528             -10.6329
       109        2.0000           -0.3907443             -10.6327
       110        2.0000           -0.3440299              -9.3615
       111        2.0000           -0.3440291              -9.3615 (HOMO)
       112                         -0.2534606              -6.8970 (LUMO)
       113                         -0.2522427              -6.8639
       114                         -0.2354153              -6.4060
       115                         -0.2354148              -6.4060
       116                         -0.2222310              -6.0472
       117                         -0.2222310              -6.0472
       118                         -0.2172837              -5.9126
       119                         -0.2172835              -5.9126
       120                         -0.2162123              -5.8834
       121                         -0.2162123              -5.8834
       122                         -0.1877956              -5.1102
       ...                                ...                  ...
       220                          1.4211636              38.6718
      -------------------------------------------------------------
                  HL-Gap            0.0905685 Eh            2.4645 eV

     #   Z          covCN         q      C6AA      α(0)
     1   6 C        3.761    -0.103    22.505     6.763
     2   6 C        3.908     0.021    20.166     6.383
     3   6 C        3.761    -0.103    22.505     6.763
     4   6 C        2.979    -0.015    28.388     8.740
     5   6 C        2.928    -0.038    28.948     8.824
     6   6 C        2.917    -0.047    29.178     8.858
     7   6 C        2.919    -0.035    28.882     8.813
     8   6 C        2.924    -0.060    29.503     8.907
     9   6 C        2.928     0.059    26.671     8.469
    10   7 N        2.754    -0.077    22.739     7.082
    11   6 C        2.927     0.069    26.453     8.435
    12   6 C        2.920    -0.037    28.913     8.818
    13   6 C        2.927    -0.028    28.707     8.787
    14   6 C        2.972     0.039    27.123     8.543
    15   6 C        1.982    -0.038    32.061     9.144
    16   6 C        1.982    -0.038    32.061     9.144
    17   6 C        2.972     0.039    27.123     8.543
    18   6 C        2.927    -0.028    28.707     8.787
    19   6 C        2.920    -0.037    28.913     8.818
    20   6 C        2.927     0.069    26.453     8.435
    21   7 N        2.754    -0.077    22.739     7.082
    22   6 C        2.928     0.059    26.671     8.469
    23   6 C        2.924    -0.060    29.503     8.907
    24   6 C        2.919    -0.035    28.882     8.813
    25   6 C        2.917    -0.047    29.178     8.858
    26   6 C        2.928    -0.038    28.948     8.824
    27   6 C        2.979    -0.015    28.388     8.740
    28   6 C        3.908     0.021    20.166     6.383
    29   6 C        3.761    -0.103    22.505     6.763
    30   6 C        3.761    -0.103    22.505     6.763
    31   6 C        2.979    -0.015    28.388     8.740
    32   6 C        2.928    -0.038    28.948     8.824
    33   6 C        2.917    -0.047    29.178     8.858
    34   6 C        2.919    -0.035    28.882     8.813
    35   6 C        2.924    -0.060    29.503     8.907
    36   6 C        2.928     0.059    26.671     8.469
    37   6 C        2.920    -0.037    28.913     8.818
    38   6 C        2.927    -0.028    28.707     8.787
    39   6 C        2.927    -0.028    28.707     8.787
    40   6 C        2.920    -0.037    28.913     8.818
    41   6 C        2.928     0.059    26.671     8.469
    42   6 C        2.924    -0.060    29.503     8.907
    43   6 C        2.919    -0.035    28.882     8.813
    44   6 C        2.917    -0.047    29.178     8.858
    45   6 C        2.928    -0.038    28.948     8.824
    46   6 C        2.979    -0.015    28.388     8.740
    47   1 H        0.925     0.040     2.443     2.444
    48   1 H        0.925     0.029     2.600     2.521
    49   1 H        0.925     0.040     2.443     2.444
    50   1 H        0.925     0.040     2.443     2.444
    51   1 H        0.925     0.040     2.443     2.444
    52   1 H        0.925     0.029     2.600     2.521
    53   1 H        0.926     0.030     2.584     2.514
    54   1 H        0.926     0.024     2.678     2.559
    55   1 H        0.926     0.025     2.657     2.549
    56   1 H        0.926     0.023     2.681     2.561
    57   1 H        0.926     0.042     2.427     2.436
    58   1 H        0.926     0.044     2.397     2.421
    59   1 H        0.926     0.044     2.397     2.421
    60   1 H        0.926     0.042     2.427     2.436
    61   1 H        0.926     0.023     2.681     2.561
    62   1 H        0.926     0.025     2.657     2.549
    63   1 H        0.926     0.024     2.678     2.559
    64   1 H        0.926     0.030     2.584     2.514
    65   1 H        0.925     0.040     2.443     2.444
    66   1 H        0.925     0.029     2.600     2.521
    67   1 H        0.925     0.040     2.443     2.444
    68   1 H        0.925     0.029     2.600     2.521
    69   1 H        0.925     0.040     2.443     2.444
    70   1 H        0.925     0.040     2.443     2.444
    71   1 H        0.926     0.030     2.584     2.514
    72   1 H        0.926     0.024     2.678     2.559
    73   1 H        0.926     0.025     2.657     2.549
    74   1 H        0.926     0.023     2.681     2.561
    75   1 H        0.926     0.042     2.427     2.436
    76   1 H        0.926     0.044     2.397     2.421
    77   1 H        0.926     0.044     2.397     2.421
    78   1 H        0.926     0.042     2.427     2.436
    79   1 H        0.926     0.023     2.681     2.561
    80   1 H        0.926     0.025     2.657     2.549
    81   1 H        0.926     0.024     2.678     2.559
    82   1 H        0.926     0.030     2.584     2.514

molecular dipole:
                 x           y           z       tot (Debye)
 q only:        0.000      -0.000      -0.000
   full:        0.000      -0.000      -0.000       0.001

 projected vibrational frequencies (cm⁻¹)
eigval :       -0.00     0.00     0.00     0.00     0.00     0.00
eigval :        6.52     9.43    11.98    19.22    22.19    22.98
eigval :       24.23    40.87    42.41    60.49    63.02    86.59
eigval :       94.65    94.69   103.20   103.54   118.69   120.59
eigval :      123.67   123.79   185.82   185.86   192.49   199.17
eigval :      199.68   220.82   221.08   231.01   239.96   240.60
eigval :      242.68   299.97   304.23   304.28   330.68   330.82
eigval :      344.83   344.88   360.28   369.35   369.81   377.99
eigval :      378.95   379.23   381.65   402.15   402.65   422.79
eigval :      423.36   428.99   452.13   452.27   460.03   460.50
eigval :      490.64   490.76   513.08   513.39   515.78   515.79
eigval :      529.27   547.68   547.69   556.27   579.90   579.95
eigval :      587.95   592.75   592.81   614.07   614.16   644.83
eigval :      659.98   683.30   683.31   691.35   693.85   693.94
eigval :      693.95   695.61   726.09   755.47   775.49   775.50
eigval :      776.81   777.23   809.54   809.65   825.56   825.58
eigval :      851.03   862.72   862.73   862.94   862.99   867.50
eigval :      867.55   910.99   911.04   912.06   912.07   912.84
eigval :      912.86   918.24   918.75   918.78   921.38   921.39
eigval :      921.40   921.41   925.13   925.53   933.52   938.25
eigval :      939.52   956.25   956.25  1011.56  1011.79  1011.81
eigval :     1021.59  1075.76  1075.77  1085.15  1085.17  1110.78
eigval :     1110.78  1117.67  1117.67  1123.60  1123.67  1138.86
eigval :     1138.86  1157.94  1157.94  1159.17  1169.37  1171.03
eigval :     1178.90  1181.92  1185.44  1185.55  1185.73  1185.73
eigval :     1202.60  1209.92  1242.31  1244.36  1247.08  1247.08
eigval :     1258.00  1258.20  1265.33  1265.42  1293.11  1293.11
eigval :     1298.84  1298.93  1299.46  1318.06  1324.51  1324.51
eigval :     1333.49  1334.15  1339.56  1339.56  1352.98  1396.24
eigval :     1396.36  1399.80  1399.80  1418.53  1418.56  1436.16
eigval :     1436.22  1440.99  1440.99  1469.44  1477.21  1477.21
eigval :     1486.81  1486.82  1487.51  1487.52  1491.24  1496.19
eigval :     1496.84  1496.85  1499.81  1502.46  1502.47  1549.73
eigval :     1550.43  1573.28  1573.28  1585.56  1587.90  1589.68
eigval :     1590.41  1590.42  1591.77  1600.89  1600.95  2322.26
eigval :     3019.09  3019.10  3021.68  3021.70  3037.06  3037.06
eigval :     3038.81  3038.82  3045.71  3045.71  3049.88  3049.88
eigval :     3070.41  3070.42  3070.49  3070.50  3077.26  3077.26
eigval :     3077.33  3077.33  3079.49  3079.49  3080.95  3081.08
eigval :     3087.96  3087.96  3088.24  3088.30  3090.65  3090.66
eigval :     3092.75  3093.52  3095.17  3095.18  3096.40  3096.42

   temp. (K)  partition function   enthalpy   heat capacity  entropy
                                   cal/mol     cal/K/mol   cal/K/mol   J/K/mol
 298.15  VIB  0.177E+20            23438.038    145.364    146.901
         ROT  0.288E+08              888.752      2.981     37.111
         INT  0.508E+27            24326.790    148.345    184.012
         TR   0.140E+29             1481.254      4.968     45.002
         TOT                       25808.0439   153.3133   229.0144   958.1964

       T/K    H(0)-H(T)+PV         H(T)/Eh          T*S/Eh         G(T)/Eh
   ------------------------------------------------------------------------
    298.15    0.411277E-01    0.694953E+00    0.108812E+00    0.586141E+00
   ------------------------------------------------------------------------

         :::::::::::::::::::::::::::::::::::::::::::::::::::::
         ::                  THERMODYNAMIC                  ::
         :::::::::::::::::::::::::::::::::::::::::::::::::::::
         :: total free energy        -117.890339551135 Eh   ::
         ::.................................................::
         :: total energy             -118.476480086577 Eh   ::
         :: zero point energy           0.653824948777 Eh   ::
         :: G(RRHO) w/o ZPVE           -0.067684413335 Eh   ::
         :: G(RRHO) contrib.            0.586140535442 Eh   ::
         :::::::::::::::::::::::::::::::::::::::::::::::::::::

           -------------------------------------------------
          | TOTAL ENERGY             -118.476480086577 Eh   |
          | TOTAL ENTHALPY           -117.781527401919 Eh   |
          | TOTAL FREE ENERGY        -117.890339551135 Eh   |
          | GRADIENT NORM               0.000033218614 Eh/α |
          | HOMO-LUMO GAP               2.464494308053 eV   |
           -------------------------------------------------

 * finished run on 2025/09/09 at 22:47:06.761
