   * xtb version 6.7.1 (edcfbbe) compiled by 'albert@albert-system' on 2024-07-22

   ID    Z sym.   atoms
    1    6 C      1-9, 11-20, 22-46
    2    7 N      10, 21
    3    1 H      47-82

          program call               : xtb data2507/toluene/DPE-DDMAc/DPE-DDMAc_toluene_S0_crest.xyz --gfn 2 --gbsa toluene --ohess vtight --parallel 40 --molden --ceasefiles --namespace data2507/toluene/DPE-DDMAc/DPE-DDMAc_toluene_S0_finalOpt
      * Solvation model:               GBSA
        Solvent                        toluene
        Solvent mass                       9.2140E+01 g/mol
          :  Hamiltonian                  GFN2-xTB          :
 * total energy  :  -118.4771833 Eh     change       -0.1568154E-08 Eh
 * total energy  :  -118.4772093 Eh     change       -0.2592161E-04 Eh
 * total energy  :  -118.4772223 Eh     change       -0.1305977E-04 Eh
 * total energy  :  -118.4772311 Eh     change       -0.8759425E-05 Eh
 * total energy  :  -118.4772423 Eh     change       -0.1121558E-04 Eh
 * total energy  :  -118.4772476 Eh     change       -0.5328649E-05 Eh
 * total energy  :  -118.4772524 Eh     change       -0.4827700E-05 Eh
 * total energy  :  -118.4772612 Eh     change       -0.8780277E-05 Eh
 * total energy  :  -118.4772749 Eh     change       -0.1366371E-04 Eh
 * total energy  :  -118.4772866 Eh     change       -0.1169388E-04 Eh
 * total energy  :  -118.4773128 Eh     change       -0.4292643E-06 Eh
 * total energy  :  -118.4773133 Eh     change       -0.4586759E-06 Eh
 * total energy  :  -118.4773138 Eh     change       -0.4901763E-06 Eh
 * total energy  :  -118.4773143 Eh     change       -0.5630193E-06 Eh
 * total energy  :  -118.4773149 Eh     change       -0.5232181E-06 Eh
 * total energy  :  -118.4773151 Eh     change       -0.2576380E-06 Eh
 * total energy  :  -118.4773152 Eh     change       -0.1073708E-06 Eh
 * total energy  :  -118.4773153 Eh     change       -0.1017032E-06 Eh
 * total energy  :  -118.4773154 Eh     change       -0.8361502E-07 Eh
   *** GEOMETRY OPTIMIZATION CONVERGED AFTER 40 ITERATIONS ***

 final structure:
================
82
 xtb: 6.7.1 (edcfbbe)
C          -10.02033777950323       -0.33996615296373        1.23326836680592
C           -9.14212399930768       -0.00844094012614        0.01184890732221
C          -10.02673769673775        0.32028546640001       -1.20570378350912
C           -8.29301735812505        1.20740855051864        0.33386032767985
C           -8.91258467042137        2.40821108462316        0.65233572797569
C           -8.19352019185600        3.55574001706748        0.93353557420668
C           -6.81159409915861        3.51503308070861        0.88612102207221
C           -6.16999782805412        2.33465447031459        0.57431471571231
C           -6.89438011339615        1.16846717602972        0.30783889477124
N           -6.21981557206208       -0.00437968758925        0.00714222060414
C           -4.79688118598536       -0.00287282481937        0.00693298322405
C           -4.09986506693208       -0.08252564297939        1.20859585131312
C           -2.71984069876176       -0.07883187396595        1.21123930119388
C           -2.01527273625614        0.00013749970451        0.00694529364693
C           -0.60417569771950        0.00171070430736        0.00719691540326
C            0.60403057255538        0.00311439720552        0.00796001675220
C            2.01513344292414        0.00413013731602        0.00890297004486
C            2.72068413920532       -0.07685503235798       -1.19467157240803
C            4.10072907197826       -0.07900381104303       -1.19095698752476
C            4.79665323129698        0.00416406498546        0.01106920479155
N            6.21969570474290        0.00355950866011        0.01237410270792
C            6.89212051957508       -1.17189698839858        0.30729049516033
C            6.16551534755145       -2.33779103165363        0.56891098979229
C            6.80496965602207       -3.52098907398536        0.87435676789547
C            8.18686127804112       -3.56476286115248        0.92018223710516
C            8.90805916201509       -2.41718478311336        0.64464284611056
C            8.29068246249259       -1.21350962949788        0.33287710306323
C            9.14190239057429        0.00277095556209        0.01803190442676
C           10.02701826733099       -0.32074935123921       -1.20054419239309
C           10.01976951742086        0.32638952487622        1.24183493157028
C            8.29255635594950        1.21911586002773       -0.30157365430824
C            8.91179054455707        2.42219420431723       -0.61194445763388
C            8.19229383498627        3.56992193051746       -0.89129047549117
C            6.81021722152675        3.52695346711585       -0.85077180804123
C            6.16893827566077        2.34442600936063       -0.54654015407237
C            6.89387791311094        1.17836188037090       -0.28112172635982
C            4.09886678751503        0.08773673156163        1.21197313865354
C            2.71881660631154        0.08557137711966        1.21353939051511
C           -2.71998032360776        0.07741858897678       -1.19736116893217
C           -4.10002557597377        0.07813529046477       -1.19472916595285
C           -6.89206409412044       -1.17884766630814       -0.29245684921152
C           -6.16534562683450       -2.34276516341725       -0.56246500286259
C           -6.80468880192149       -3.52466141061566       -0.87314273611625
C           -8.18665426075629       -3.56929142430589       -0.91554611908459
C           -8.90795313631693       -2.42399861662259       -0.63097955430744
C           -8.29067034076517       -1.22165589780621       -0.31387379649392
H           -9.39096025748550       -0.58177351508281        2.08830248578841
H          -10.66244117038415       -1.19232649198208        1.02906758586688
H          -10.65010477728542        0.50462699028200        1.49897640150890
H          -10.66986766740427        1.17128261496115       -0.99910545522824
H          -10.65582724262335       -0.52588549119650       -1.46795307621852
H           -9.40187524427504        0.56294130234742       -2.06381402907161
H           -9.99072673620776        2.45683079805105        0.68227118825741
H           -8.70859437947788        4.47239181978913        1.17953582384954
H           -6.22901588653476        4.40167429684719        1.09019662245761
H           -5.09176493128960        2.31358001198553        0.53195283005429
H           -4.64992089154691       -0.14377100231051        2.13637120512936
H           -2.17623666156195       -0.14016302301487        2.14245505651303
H            2.17785405326562       -0.14105698351363       -2.12614536154560
H            4.65161451044614       -0.14204148568688       -2.11811782730794
H            5.08727828596394       -2.31405776644139        0.52793150638323
H            6.22078625935985       -4.40742944896847        1.07468997731141
H            8.70024824512010       -4.48373265503695        1.16101956475344
H            9.98611936727688       -2.46806583140584        0.67378994899391
H           10.65563407464573        0.52680030059411       -1.45944450724134
H            9.40259512272915       -0.56060446632180       -2.05975744629523
H           10.67065731804454       -1.17208658840380       -0.99694989522208
H            9.39023354644830        0.56757744140378        2.09692002972764
H           10.64588957758598       -0.52161030141615        1.50531795842519
H           10.66541120625100        1.17699811160528        1.04151050472866
H            9.98998254960995        2.47253385485942       -0.63672662878293
H            8.70713106680096        4.48837327418944       -1.13099705088529
H            6.22728965293149        4.41350926914787       -1.05421866124323
H            5.09054242857185        2.32138187382653       -0.50953945402515
H            4.64829918639571        0.15081325064501        2.13999482804004
H            2.17456282161010        0.14986071002518        2.14417577551625
H           -2.17652877480480        0.13969798623258       -2.12860134081533
H           -4.65021447154852        0.13815175866198       -2.12250670226377
H           -5.08703978918545       -2.31873595190430       -0.52385387798125
H           -6.22031595106757       -4.40944542761861       -1.08012788643606
H           -8.69998319238006       -4.48721826114341       -1.16044828334615
H           -9.98605120667204       -2.47566195116219       -0.65700498003125

          :  Hamiltonian                  GFN2-xTB          :
         :: gradient norm              0.000037769282 Eh/a0 ::
         :: HOMO-LUMO gap              2.012159163858 eV    ::
         :: SCC energy              -120.712877453697 Eh    ::
         :: -> dispersion             -0.109662346315 Eh    ::
         :: -> Gsolv                  -0.047675693204 Eh    ::
         :: repulsion energy           2.235562046917 Eh    ::

    * Orbital Energies and Occupations

         #    Occupation            Energy/Eh            Energy/eV
      -------------------------------------------------------------
         1        2.0000           -0.6675131             -18.1640
       ...           ...                  ...                  ...
        99        2.0000           -0.4084991             -11.1158
       100        2.0000           -0.4064703             -11.0606
       101        2.0000           -0.4052868             -11.0284
       102        2.0000           -0.4051384             -11.0244
       103        2.0000           -0.4015023             -10.9254
       104        2.0000           -0.4014860             -10.9250
       105        2.0000           -0.3961826             -10.7807
       106        2.0000           -0.3961751             -10.7805
       107        2.0000           -0.3909342             -10.6379
       108        2.0000           -0.3908841             -10.6365
       109        2.0000           -0.3823382             -10.4040
       110        2.0000           -0.3444234              -9.3722
       111        2.0000           -0.3441522              -9.3649 (HOMO)
       112                         -0.2702067              -7.3527 (LUMO)
       113                         -0.2348570              -6.3908
       114                         -0.2348335              -6.3901
       115                         -0.2246867              -6.1140
       116                         -0.2224919              -6.0543
       117                         -0.2224701              -6.0537
       118                         -0.2174752              -5.9178
       119                         -0.2173726              -5.9150
       120                         -0.2163764              -5.8879
       121                         -0.2163627              -5.8875
       122                         -0.1882301              -5.1220
       ...                                ...                  ...
       220                          1.4245835              38.7649
      -------------------------------------------------------------
                  HL-Gap            0.0739455 Eh            2.0122 eV

     #   Z          covCN         q      C6AA      α(0)
     1   6 C        3.761    -0.103    22.506     6.763
     2   6 C        3.908     0.021    20.166     6.383
     3   6 C        3.761    -0.103    22.507     6.763
     4   6 C        2.979    -0.015    28.382     8.739
     5   6 C        2.928    -0.038    28.948     8.823
     6   6 C        2.917    -0.047    29.172     8.857
     7   6 C        2.919    -0.035    28.881     8.813
     8   6 C        2.924    -0.060    29.499     8.907
     9   6 C        2.927     0.059    26.673     8.470
    10   7 N        2.754    -0.076    22.722     7.080
    11   6 C        2.926     0.069    26.452     8.435
    12   6 C        2.919    -0.037    28.922     8.819
    13   6 C        2.926    -0.028    28.706     8.786
    14   6 C        2.971     0.038    27.143     8.546
    15   6 C        1.982    -0.040    32.114     9.152
    16   6 C        1.982    -0.040    32.115     9.152
    17   6 C        2.971     0.038    27.142     8.546
    18   6 C        2.926    -0.028    28.706     8.786
    19   6 C        2.919    -0.037    28.922     8.819
    20   6 C        2.926     0.069    26.452     8.434
    21   7 N        2.754    -0.076    22.724     7.080
    22   6 C        2.927     0.059    26.673     8.470
    23   6 C        2.924    -0.060    29.499     8.907
    24   6 C        2.919    -0.035    28.881     8.813
    25   6 C        2.917    -0.047    29.172     8.857
    26   6 C        2.928    -0.038    28.948     8.823
    27   6 C        2.979    -0.015    28.383     8.739
    28   6 C        3.908     0.021    20.166     6.383
    29   6 C        3.761    -0.103    22.507     6.763
    30   6 C        3.761    -0.103    22.506     6.763
    31   6 C        2.979    -0.015    28.383     8.739
    32   6 C        2.928    -0.038    28.948     8.823
    33   6 C        2.917    -0.047    29.172     8.857
    34   6 C        2.919    -0.035    28.881     8.813
    35   6 C        2.924    -0.060    29.500     8.907
    36   6 C        2.927     0.059    26.673     8.470
    37   6 C        2.919    -0.037    28.922     8.819
    38   6 C        2.926    -0.028    28.706     8.786
    39   6 C        2.926    -0.028    28.706     8.786
    40   6 C        2.919    -0.037    28.922     8.819
    41   6 C        2.927     0.059    26.674     8.470
    42   6 C        2.924    -0.060    29.499     8.907
    43   6 C        2.919    -0.035    28.881     8.813
    44   6 C        2.917    -0.047    29.172     8.857
    45   6 C        2.928    -0.038    28.948     8.823
    46   6 C        2.979    -0.015    28.382     8.739
    47   1 H        0.925     0.029     2.598     2.521
    48   1 H        0.925     0.041     2.442     2.444
    49   1 H        0.925     0.041     2.441     2.443
    50   1 H        0.925     0.041     2.442     2.444
    51   1 H        0.925     0.041     2.441     2.443
    52   1 H        0.925     0.029     2.598     2.521
    53   1 H        0.926     0.030     2.580     2.512
    54   1 H        0.926     0.024     2.675     2.558
    55   1 H        0.926     0.025     2.654     2.547
    56   1 H        0.926     0.024     2.674     2.557
    57   1 H        0.926     0.041     2.432     2.439
    58   1 H        0.926     0.044     2.402     2.424
    59   1 H        0.926     0.044     2.401     2.423
    60   1 H        0.926     0.041     2.432     2.439
    61   1 H        0.926     0.024     2.674     2.557
    62   1 H        0.926     0.025     2.654     2.548
    63   1 H        0.926     0.024     2.675     2.558
    64   1 H        0.926     0.030     2.580     2.512
    65   1 H        0.925     0.041     2.442     2.443
    66   1 H        0.925     0.029     2.599     2.521
    67   1 H        0.925     0.041     2.442     2.443
    68   1 H        0.925     0.029     2.599     2.521
    69   1 H        0.925     0.041     2.442     2.444
    70   1 H        0.925     0.041     2.442     2.444
    71   1 H        0.926     0.030     2.580     2.512
    72   1 H        0.926     0.024     2.675     2.558
    73   1 H        0.926     0.025     2.654     2.548
    74   1 H        0.926     0.024     2.674     2.557
    75   1 H        0.926     0.041     2.432     2.439
    76   1 H        0.926     0.044     2.401     2.423
    77   1 H        0.926     0.044     2.402     2.423
    78   1 H        0.926     0.041     2.432     2.439
    79   1 H        0.926     0.024     2.673     2.557
    80   1 H        0.926     0.025     2.654     2.547
    81   1 H        0.926     0.024     2.675     2.558
    82   1 H        0.926     0.030     2.580     2.512

molecular dipole:
                 x           y           z       tot (Debye)
 q only:       -0.004       0.000       0.001
   full:       -0.004       0.000       0.001       0.011

 projected vibrational frequencies (cm⁻¹)
eigval :       -0.00    -0.00    -0.00     0.00     0.00     0.00
eigval :        9.14    14.37    15.50    24.04    25.06    32.06
eigval :       34.31    36.39    52.08    65.47    67.41    86.97
eigval :       98.76    99.87   100.09   106.13   117.58   121.21
eigval :      151.52   158.86   193.85   202.42   206.16   208.10
eigval :      210.94   214.99   222.70   223.00   232.42   240.05
eigval :      271.34   300.70   304.91   307.34   331.40   331.64
eigval :      344.86   345.23   360.40   369.34   369.64   377.42
eigval :      378.22   380.80   381.92   398.25   405.85   419.83
eigval :      427.54   429.67   453.18   453.23   453.89   465.40
eigval :      490.63   492.04   506.81   515.01   515.17   516.81
eigval :      529.88   547.81   547.86   556.04   579.63   581.00
eigval :      588.82   591.95   592.88   613.67   616.26   644.87
eigval :      660.04   682.84   683.02   689.77   691.83   693.48
eigval :      693.74   695.56   726.70   756.14   778.41   778.92
eigval :      779.74   780.22   807.19   811.60   825.51   826.09
eigval :      852.38   864.89   865.25   865.85   866.39   866.76
eigval :      867.23   910.35   910.74   912.94   913.07   913.69
eigval :      913.81   918.74   918.80   918.90   922.26   922.44
eigval :      922.70   922.80   924.50   924.96   933.32   939.02
eigval :      940.13   956.14   956.33  1012.86  1013.45  1013.62
eigval :     1023.07  1076.22  1076.24  1085.18  1085.28  1112.35
eigval :     1112.62  1118.74  1118.95  1127.10  1129.53  1139.10
eigval :     1139.29  1158.00  1158.19  1158.28  1170.28  1171.52
eigval :     1182.10  1184.81  1186.03  1186.36  1186.55  1186.84
eigval :     1203.27  1210.56  1242.99  1245.03  1249.26  1249.72
eigval :     1260.24  1263.01  1267.08  1267.53  1293.70  1293.90
eigval :     1300.00  1300.44  1302.94  1317.17  1324.55  1324.57
eigval :     1333.38  1334.02  1338.16  1338.19  1356.98  1396.39
eigval :     1399.81  1399.96  1400.41  1418.19  1418.30  1435.85
eigval :     1435.91  1440.54  1440.64  1468.66  1477.39  1477.71
eigval :     1487.71  1487.76  1489.80  1490.68  1492.58  1496.12
eigval :     1497.69  1497.85  1501.38  1504.52  1505.17  1546.71
eigval :     1550.07  1573.29  1573.31  1581.43  1587.90  1589.14
eigval :     1590.66  1590.70  1592.53  1601.04  1601.09  2318.94
eigval :     3020.28  3020.44  3022.99  3023.18  3037.33  3037.35
eigval :     3039.48  3039.50  3046.10  3046.17  3050.26  3050.31
eigval :     3070.42  3070.42  3070.51  3070.51  3077.59  3077.59
eigval :     3077.66  3077.71  3080.25  3080.31  3081.71  3081.91
eigval :     3088.23  3088.27  3088.64  3088.71  3091.33  3091.36
eigval :     3093.42  3094.32  3096.47  3096.59  3097.57  3097.68

   temp. (K)  partition function   enthalpy   heat capacity  entropy
                                   cal/mol     cal/K/mol   cal/K/mol   J/K/mol
 298.15  VIB  0.114E+19            23209.680    145.654    143.547
         ROT  0.288E+08              888.752      2.981     37.111
         INT  0.328E+26            24098.432    148.635    180.658
         TR   0.140E+29             1481.254      4.968     45.002
         TOT                       25579.6858   153.6032   225.6605   944.1635

       T/K    H(0)-H(T)+PV         H(T)/Eh          T*S/Eh         G(T)/Eh
   ------------------------------------------------------------------------
    298.15    0.407638E-01    0.695317E+00    0.107219E+00    0.588098E+00
   ------------------------------------------------------------------------

         :::::::::::::::::::::::::::::::::::::::::::::::::::::
         ::                  THERMODYNAMIC                  ::
         :::::::::::::::::::::::::::::::::::::::::::::::::::::
         :: total free energy        -117.889217442677 Eh   ::
         ::.................................................::
         :: total energy             -118.477315407087 Eh   ::
         :: zero point energy           0.654552716984 Eh   ::
         :: G(RRHO) w/o ZPVE           -0.066454752574 Eh   ::
         :: G(RRHO) contrib.            0.588097964410 Eh   ::
         :::::::::::::::::::::::::::::::::::::::::::::::::::::

           -------------------------------------------------
          | TOTAL ENERGY             -118.477315407087 Eh   |
          | TOTAL ENTHALPY           -117.781998866057 Eh   |
          | TOTAL FREE ENERGY        -117.889217442677 Eh   |
          | GRADIENT NORM               0.000037790018 Eh/α |
          | HOMO-LUMO GAP               2.012159796772 eV   |
           -------------------------------------------------

 * finished run on 2025/09/09 at 22:53:08.916
