   * xtb version 6.7.1 (edcfbbe) compiled by 'albert@albert-system' on 2024-07-22

   ID    Z sym.   atoms
    1    6 C      1-9, 11-20, 22-46
    2    7 N      10, 21
    3    1 H      47-82

          program call               : xtb data2507/toluene/DPE-DDMAc/DPE-DDMAc_toluene_T1_crest.xyz --gfn 2 --uhf 2 --gbsa toluene --ohess vtight --parallel 40 --molden --ceasefiles --namespace data2507/toluene/DPE-DDMAc/DPE-DDMAc_toluene_T1_finalOpt
      * Solvation model:               GBSA
        Solvent                        toluene
        Solvent mass                       9.2140E+01 g/mol
          :  Hamiltonian                  GFN2-xTB          :
 * total energy  :  -118.3916966 Eh     change       -0.1084700E-08 Eh
 * total energy  :  -118.3917349 Eh     change       -0.3830569E-04 Eh
 * total energy  :  -118.3917509 Eh     change       -0.1600689E-04 Eh
 * total energy  :  -118.3917583 Eh     change       -0.7396919E-05 Eh
 * total energy  :  -118.3917636 Eh     change       -0.5332483E-05 Eh
 * total energy  :  -118.3917648 Eh     change       -0.1204897E-05 Eh
 * total energy  :  -118.3917657 Eh     change       -0.9480467E-06 Eh
 * total energy  :  -118.3917672 Eh     change       -0.1403938E-05 Eh
 * total energy  :  -118.3917693 Eh     change       -0.2137382E-05 Eh
 * total energy  :  -118.3917718 Eh     change       -0.2486796E-05 Eh
 * total energy  :  -118.3917802 Eh     change       -0.2669383E-05 Eh
 * total energy  :  -118.3917834 Eh     change       -0.3165540E-05 Eh
 * total energy  :  -118.3917860 Eh     change       -0.2582210E-05 Eh
 * total energy  :  -118.3917874 Eh     change       -0.1383724E-05 Eh
 * total energy  :  -118.3917880 Eh     change       -0.6661070E-06 Eh
 * total energy  :  -118.3917886 Eh     change       -0.5801607E-06 Eh
 * total energy  :  -118.3917892 Eh     change       -0.6117479E-06 Eh
 * total energy  :  -118.3917897 Eh     change       -0.4614160E-06 Eh
 * total energy  :  -118.3917897 Eh     change       -0.1054970E-07 Eh
   *** GEOMETRY OPTIMIZATION CONVERGED AFTER 22 ITERATIONS ***

 final structure:
================
82
 xtb: 6.7.1 (edcfbbe)
C          -10.02941132428546       -0.54101794879441        1.15509200151178
C           -9.14485305889858        0.00736991293891        0.01848195733163
C          -10.02323405532922        0.56787343112202       -1.11706043300347
C           -8.28751837101581        1.13234064296152        0.56021082670899
C           -8.89948427630214        2.25905256988920        1.09352845896044
C           -8.17299938828874        3.34217075884774        1.55274388337354
C           -6.79146150179495        3.32281402526408        1.45126085680947
C           -6.15788487105949        2.21729701978508        0.92844937672221
C           -6.88662661275806        1.09547400219841        0.50891659067797
N           -6.21617882994004       -0.01113841123404        0.01327132462643
C           -4.80255681822042       -0.01821929617111        0.00797100267336
C           -4.08543709167625       -0.01020760829657        1.21979000015657
C           -2.72167518237409       -0.02439868399832        1.22255695210495
C           -1.98492312884944       -0.02039276673089       -0.00259599365599
C           -0.61794679441993       -0.01644060802799       -0.00704048066889
C            0.61804231248586       -0.01094182065837       -0.00929729752584
C            1.98502253271801       -0.00407406570938       -0.00959964347908
C            2.72701560127632       -0.00390081471897       -1.23152263235551
C            4.09080328475436        0.01354317676661       -1.22291863395535
C            4.80264289263881        0.00559926016663       -0.00805148732619
N            6.21631673259633        0.00669354252293       -0.00639684226017
C            6.89405208740644       -1.09534376922277        0.48942653537031
C            6.17263758070564       -2.22249344680117        0.90738398556720
C            6.81328564617157       -3.32380796786866        1.43042958659267
C            8.19480699017867       -3.33351557408659        1.53357209260343
C            8.91426173606200       -2.24501229045711        1.07602391062771
C            8.29508411457158       -1.12230467398221        0.54260407273918
C            9.14503595046606        0.00993411524218        0.00444530622835
C           10.03284877711318       -0.54235862299653       -1.12773920509033
C           10.02021490453658        0.56506306842762        1.14508356034801
C            8.29649236632201        1.13968560288900       -0.54118961402213
C            8.91717490151864        2.26372327604999       -1.07003357801128
C            8.19876275607723        3.35078333897543       -1.53263466129546
C            6.81654735252793        3.33806403001008       -1.43971578207024
C            6.17436289394434        2.23523201178803       -0.92173015033889
C            6.89514139750133        1.10982584556781       -0.49812278834611
C            4.08941883760192       -0.00557235747268        1.20604702444829
C            2.72565064291103        0.00272851085939        1.21317546425239
C           -2.73081355522445       -0.01900040245769       -1.22213691311152
C           -4.09458647529593       -0.03054625271819       -1.20916218169952
C           -6.90229492186432       -1.10950073495338       -0.47893396413489
C           -6.18897140159762       -2.24039574275062       -0.90059846139668
C           -6.83820493903954       -3.33840606182818       -1.42002173220401
C           -8.22026390111864       -3.34066123126371       -1.51625233360490
C           -8.93159373418225       -2.24831679395876       -1.05516005837198
C           -8.30372867127605       -1.12903641277563       -0.52473951100681
H          -10.65695856050817        0.24304773526158        1.56878662060727
H           -9.40419572790287       -0.93857477712214        1.95283786982954
H          -10.67307071839370       -1.33804624421178        0.79434995545551
H          -10.65566681652652        1.37343411409549       -0.75539599949398
H          -10.66167469539953       -0.20765484267332       -1.53021436641168
H           -9.39359196034653        0.95709694604795       -1.91543469445284
H           -9.97632331232063        2.30014801208327        1.15031224880109
H           -8.68082590040884        4.19987483619668        1.96725488463966
H           -6.20576327510282        4.17155788434222        1.77186074497634
H           -5.08381134711860        2.21855521249379        0.83135691041030
H           -4.63610388569217       -0.01759530576286        2.15054541379688
H           -2.17287280770909       -0.04461806111842        2.15310557509100
H            2.18226549458026       -0.02487616292397       -2.16444559516782
H            4.64540342489000        0.00767072275176       -2.15134256512711
H            5.09869890175845       -2.23108958817281        0.80902284000382
H            6.23317371502008       -4.17678315451752        1.74996975729066
H            8.70815945505832       -4.18777550833261        1.94836211165513
H            9.99126896168335       -2.27844821800155        1.13459668564008
H           10.66642959962436        0.23878276478836       -1.53776529271502
H            9.40992339735058       -0.93650013639680       -1.92896064417373
H           10.67067483566445       -1.34268406478716       -0.76394259307689
H            9.38830197981549        0.95695987616740        1.94034983570754
H           10.65236481269624       -0.21409271430350        1.56107905887528
H           10.65877791906203        1.36758531898119        0.78746694642084
H            9.99452342325289        2.29957057032926       -1.12045892379253
H            8.71335815538312        4.20635184509212       -1.94316670561983
H            6.23704978595236        4.18994126117943       -1.76327442960897
H            5.09968920997141        2.24131446517732       -0.83145169013436
H            4.64306741619790        0.00426900988558        2.13500485769448
H            2.17968590856777        0.02081341062047        2.14543924286385
H           -2.18890220848411       -0.00102143742757       -2.15677714130306
H           -4.65216164054067       -0.02308537340015       -2.13578594532110
H           -5.11457807191445       -2.25445350382157       -0.80775476041982
H           -6.26443373847835       -4.19471056171945       -1.74209424532401
H           -8.74034277390059       -4.19217039538657       -1.92827313149094
H          -10.00904350614318       -2.27600125321526       -1.10841276101526

          :  Hamiltonian                  GFN2-xTB          :
         :: gradient norm              0.000097949286 Eh/a0 ::
         :: HOMO-LUMO gap              0.812243581839 eV    ::
         :: SCC energy              -120.606519135944 Eh    ::
         :: -> dispersion             -0.109724038046 Eh    ::
         :: -> Gsolv                  -0.048735901446 Eh    ::
         :: repulsion energy           2.214729436673 Eh    ::

    * Orbital Energies and Occupations

         #    Occupation            Energy/Eh            Energy/eV
      -------------------------------------------------------------
         1        2.0000           -0.6713716             -18.2689
       ...           ...                  ...                  ...
       100        2.0000           -0.4092493             -11.1362
       101        2.0000           -0.4040946             -10.9960
       102        2.0000           -0.4040875             -10.9958
       103        2.0000           -0.4000005             -10.8846
       104        2.0000           -0.3998012             -10.8791
       105        2.0000           -0.3997244             -10.8771
       106        2.0000           -0.3978582             -10.8263
       107        2.0000           -0.3965956             -10.7919
       108        2.0000           -0.3784554             -10.2983
       109        2.0000           -0.3619912              -9.8503
       110        1.9804           -0.3519475              -9.5770
       111        1.0196           -0.3445100              -9.3746
       112        1.0000           -0.2612341              -7.1085 (HOMO)
       113        0.0000           -0.2313851              -6.2963 (LUMO)
       114        0.0000           -0.2313736              -6.2960
       115                         -0.2247869              -6.1168
       116                         -0.2245641              -6.1107
       117                         -0.2240300              -6.0962
       118                         -0.2240223              -6.0960
       119                         -0.2124184              -5.7802
       120                         -0.2124163              -5.7801
       121                         -0.2116346              -5.7589
       122                         -0.1965300              -5.3479
       123                         -0.1923110              -5.2330
       ...                                ...                  ...
       220                          1.3913823              37.8614
      -------------------------------------------------------------
                  HL-Gap            0.0298491 Eh            0.8122 eV

     #   Z          covCN         q      C6AA      α(0)
     1   6 C        3.761    -0.105    22.549     6.769
     2   6 C        3.909     0.023    20.137     6.378
     3   6 C        3.761    -0.105    22.549     6.769
     4   6 C        2.979    -0.008    28.214     8.713
     5   6 C        2.926    -0.036    28.901     8.816
     6   6 C        2.917    -0.039    28.972     8.827
     7   6 C        2.918    -0.032    28.803     8.801
     8   6 C        2.923    -0.052    29.289     8.875
     9   6 C        2.928     0.060    26.664     8.468
    10   7 N        2.752    -0.038    21.983     6.964
    11   6 C        2.925     0.034    27.248     8.560
    12   6 C        2.911    -0.042    29.045     8.837
    13   6 C        2.919    -0.043    29.061     8.840
    14   6 C        2.962     0.014    27.703     8.633
    15   6 C        1.982    -0.062    32.726     9.238
    16   6 C        1.982    -0.062    32.726     9.238
    17   6 C        2.962     0.014    27.703     8.633
    18   6 C        2.919    -0.043    29.061     8.840
    19   6 C        2.911    -0.042    29.045     8.837
    20   6 C        2.925     0.034    27.248     8.560
    21   7 N        2.752    -0.038    21.984     6.964
    22   6 C        2.928     0.060    26.664     8.468
    23   6 C        2.923    -0.052    29.288     8.875
    24   6 C        2.918    -0.032    28.803     8.801
    25   6 C        2.917    -0.039    28.972     8.827
    26   6 C        2.926    -0.036    28.901     8.816
    27   6 C        2.979    -0.008    28.214     8.713
    28   6 C        3.909     0.023    20.137     6.378
    29   6 C        3.761    -0.105    22.549     6.769
    30   6 C        3.761    -0.105    22.549     6.769
    31   6 C        2.979    -0.008    28.215     8.713
    32   6 C        2.926    -0.036    28.901     8.816
    33   6 C        2.917    -0.039    28.972     8.827
    34   6 C        2.918    -0.032    28.803     8.801
    35   6 C        2.923    -0.052    29.289     8.875
    36   6 C        2.928     0.060    26.664     8.468
    37   6 C        2.911    -0.042    29.045     8.837
    38   6 C        2.919    -0.043    29.060     8.840
    39   6 C        2.919    -0.043    29.060     8.840
    40   6 C        2.911    -0.042    29.045     8.837
    41   6 C        2.928     0.060    26.664     8.468
    42   6 C        2.923    -0.052    29.288     8.875
    43   6 C        2.918    -0.032    28.803     8.801
    44   6 C        2.917    -0.039    28.972     8.827
    45   6 C        2.926    -0.036    28.901     8.816
    46   6 C        2.979    -0.008    28.214     8.713
    47   1 H        0.925     0.046     2.367     2.406
    48   1 H        0.925     0.033     2.551     2.498
    49   1 H        0.925     0.046     2.370     2.408
    50   1 H        0.925     0.046     2.370     2.408
    51   1 H        0.925     0.046     2.367     2.406
    52   1 H        0.925     0.033     2.551     2.498
    53   1 H        0.926     0.040     2.448     2.447
    54   1 H        0.926     0.034     2.534     2.489
    55   1 H        0.926     0.033     2.543     2.494
    56   1 H        0.926     0.037     2.492     2.469
    57   1 H        0.925     0.024     2.676     2.558
    58   1 H        0.926     0.020     2.729     2.583
    59   1 H        0.926     0.020     2.728     2.583
    60   1 H        0.925     0.024     2.676     2.558
    61   1 H        0.926     0.037     2.492     2.469
    62   1 H        0.926     0.033     2.543     2.494
    63   1 H        0.926     0.034     2.534     2.489
    64   1 H        0.926     0.040     2.448     2.447
    65   1 H        0.925     0.046     2.367     2.406
    66   1 H        0.925     0.033     2.551     2.498
    67   1 H        0.925     0.046     2.370     2.408
    68   1 H        0.925     0.033     2.551     2.498
    69   1 H        0.925     0.046     2.367     2.406
    70   1 H        0.925     0.046     2.370     2.408
    71   1 H        0.926     0.040     2.448     2.447
    72   1 H        0.926     0.034     2.534     2.489
    73   1 H        0.926     0.033     2.543     2.494
    74   1 H        0.926     0.037     2.492     2.469
    75   1 H        0.925     0.024     2.677     2.559
    76   1 H        0.926     0.020     2.729     2.583
    77   1 H        0.926     0.020     2.728     2.583
    78   1 H        0.925     0.024     2.677     2.559
    79   1 H        0.926     0.037     2.493     2.469
    80   1 H        0.926     0.033     2.542     2.493
    81   1 H        0.926     0.034     2.534     2.489
    82   1 H        0.926     0.040     2.448     2.447

molecular dipole:
                 x           y           z       tot (Debye)
 q only:       -0.002       0.009       0.007
   full:       -0.002       0.009       0.007       0.029

 projected vibrational frequencies (cm⁻¹)
eigval :       -0.00    -0.00    -0.00    -0.00     0.00     0.00
eigval :        8.41    14.01    15.92    24.18    24.56    33.45
eigval :       54.42    57.70    67.32    72.19    76.98    86.50
eigval :       98.41   107.50   108.66   115.99   116.06   121.16
eigval :      144.10   144.89   186.74   194.79   204.81   205.55
eigval :      209.08   214.13   217.17   222.65   237.89   240.98
eigval :      279.79   302.03   302.21   307.02   330.48   331.04
eigval :      339.05   342.26   348.51   356.58   369.38   370.71
eigval :      374.65   381.22   381.66   382.14   383.92   410.08
eigval :      410.24   432.31   446.21   453.87   455.77   455.83
eigval :      461.24   472.10   509.68   510.11   513.79   514.12
eigval :      524.77   545.82   545.87   556.14   572.01   572.99
eigval :      582.09   586.39   586.48   607.66   610.57   642.99
eigval :      644.60   646.61   657.41   685.71   686.34   686.70
eigval :      698.46   698.50   723.84   745.19   775.83   775.96
eigval :      778.16   778.21   784.23   785.03   815.38   824.29
eigval :      825.14   825.15   835.29   868.93   868.96   869.87
eigval :      869.91   899.44   900.37   900.51   902.28   909.89
eigval :      910.64   910.94   911.01   913.43   913.61   914.13
eigval :      914.15   926.11   926.48   926.66   926.87   938.39
eigval :      938.52   959.56   959.58   981.32   984.70  1013.59
eigval :     1013.65  1074.80  1074.85  1081.49  1082.56  1108.72
eigval :     1109.33  1114.66  1115.18  1124.82  1128.43  1136.98
eigval :     1137.17  1153.11  1153.13  1155.67  1159.35  1168.91
eigval :     1176.11  1182.80  1183.50  1183.70  1184.16  1188.42
eigval :     1207.02  1216.49  1239.99  1240.61  1242.19  1243.39
eigval :     1246.13  1249.85  1258.23  1258.89  1292.62  1292.94
eigval :     1297.42  1299.91  1301.06  1307.14  1317.01  1319.59
eigval :     1326.30  1326.34  1332.66  1332.91  1377.64  1380.28
eigval :     1384.49  1399.89  1399.92  1418.14  1418.19  1422.25
eigval :     1422.36  1424.62  1429.39  1430.00  1459.36  1459.46
eigval :     1468.79  1469.18  1478.65  1479.62  1485.91  1485.99
eigval :     1486.56  1486.60  1495.79  1495.88  1500.62  1500.67
eigval :     1508.60  1534.19  1558.25  1558.32  1570.81  1571.19
eigval :     1579.99  1580.03  1587.27  1590.76  1600.93  2145.25
eigval :     3023.76  3023.80  3026.03  3026.13  3042.97  3043.01
eigval :     3044.93  3044.96  3050.73  3050.76  3054.44  3054.55
eigval :     3060.72  3060.75  3062.81  3062.99  3076.65  3076.90
eigval :     3077.29  3077.83  3077.88  3078.01  3079.75  3080.83
eigval :     3084.32  3085.04  3085.07  3085.17  3094.91  3095.15
eigval :     3095.22  3095.64  3105.85  3106.21  3106.44  3106.66

   temp. (K)  partition function   enthalpy   heat capacity  entropy
                                   cal/mol     cal/K/mol   cal/K/mol   J/K/mol
 298.15  VIB  0.416E+18            23332.846    148.274    144.161
         ROT  0.576E+08              888.752      2.981     38.491
         INT  0.240E+26            24221.598    151.255    182.652
         TR   0.140E+29             1481.254      4.968     45.002
         TOT                       25702.8519   156.2230   227.6540   952.5042

       T/K    H(0)-H(T)+PV         H(T)/Eh          T*S/Eh         G(T)/Eh
   ------------------------------------------------------------------------
    298.15    0.409601E-01    0.692320E+00    0.108166E+00    0.584155E+00
   ------------------------------------------------------------------------

         :::::::::::::::::::::::::::::::::::::::::::::::::::::
         ::                  THERMODYNAMIC                  ::
         :::::::::::::::::::::::::::::::::::::::::::::::::::::
         :: total free energy        -117.807635029066 Eh   ::
         ::.................................................::
         :: total energy             -118.391789698850 Eh   ::
         :: zero point energy           0.651360314947 Eh   ::
         :: G(RRHO) w/o ZPVE           -0.067205645163 Eh   ::
         :: G(RRHO) contrib.            0.584154669784 Eh   ::
         :::::::::::::::::::::::::::::::::::::::::::::::::::::

           -------------------------------------------------
          | TOTAL ENERGY             -118.391789698850 Eh   |
          | TOTAL ENTHALPY           -117.699469282137 Eh   |
          | TOTAL FREE ENERGY        -117.807635029066 Eh   |
          | GRADIENT NORM               0.000097340747 Eh/α |
          | HOMO-LUMO GAP               0.812234453287 eV   |
           -------------------------------------------------

 * finished run on 2025/09/09 at 22:58:44.432
