   * xtb version 6.7.1 (edcfbbe) compiled by 'albert@albert-system' on 2024-07-22

   ID    Z sym.   atoms
    1    6 C      1-9, 11-20, 22-46
    2    7 N      10, 21
    3    1 H      47-82

          program call               : xtb data2507/toluene/DPE-DDMAc/DPE-DDMAc_toluene_S0_finalOpt.xtbopt.xyz --gfn 2 --uhf 2 --gbsa toluene --ohess vtight --parallel 40 --molden --ceasefiles --namespace data2507/toluene/DPE-DDMAc/DPE-DDMAc_toluene_T1_preOpt
      * Solvation model:               GBSA
        Solvent                        toluene
        Solvent mass                       9.2140E+01 g/mol
          :  Hamiltonian                  GFN2-xTB          :
 * total energy  :  -118.3824841 Eh     change       -0.3763191E-08 Eh
 * total energy  :  -118.3887076 Eh     change       -0.6223584E-02 Eh
 * total energy  :  -118.3901095 Eh     change       -0.1401809E-02 Eh
 * total energy  :  -118.3903111 Eh     change       -0.2016907E-03 Eh
 * total energy  :  -118.3905476 Eh     change       -0.2364580E-03 Eh
 * total energy  :  -118.3907274 Eh     change       -0.1798056E-03 Eh
 * total energy  :  -118.3908727 Eh     change       -0.1452695E-03 Eh
 * total energy  :  -118.3909869 Eh     change       -0.1142698E-03 Eh
 * total energy  :  -118.3910663 Eh     change       -0.7939569E-04 Eh
 * total energy  :  -118.3911435 Eh     change       -0.7711447E-04 Eh
 * total energy  :  -118.3916672 Eh     change       -0.7212943E-06 Eh
 * total energy  :  -118.3916679 Eh     change       -0.7166856E-06 Eh
 * total energy  :  -118.3916685 Eh     change       -0.6398589E-06 Eh
 * total energy  :  -118.3916692 Eh     change       -0.6434719E-06 Eh
 * total energy  :  -118.3916700 Eh     change       -0.8190969E-06 Eh
 * total energy  :  -118.3916707 Eh     change       -0.7409832E-06 Eh
 * total energy  :  -118.3916713 Eh     change       -0.5981671E-06 Eh
 * total energy  :  -118.3916715 Eh     change       -0.1173861E-06 Eh
 * total energy  :  -118.3916715 Eh     change       -0.2006971E-08 Eh
   *** GEOMETRY OPTIMIZATION CONVERGED AFTER 186 ITERATIONS ***

 final structure:
================
82
 xtb: 6.7.1 (edcfbbe)
C          -10.02582537432934       -0.48721278332136        1.17795908203870
C           -9.14427362536894       -0.00633803294440        0.00888371623562
C          -10.02579926894090        0.47384654939698       -1.16049590928680
C           -8.29562592985812        1.15604018787079        0.48105057777892
C           -8.91540645268194        2.31128665313727        0.93897246931966
C           -8.19579798504002        3.42175826748240        1.33994991775354
C           -6.81284711251182        3.39825024220451        1.25996799583181
C           -6.17144683420268        2.26534685228813        0.81070256836325
C           -6.89422457728270        1.12155303447441        0.44357717660541
N           -6.21638348949183       -0.00520694064367        0.00941927326154
C           -4.80158203974695       -0.00465766814516        0.00974605951968
C           -4.09038421104475        0.02531630962137        1.22426912983136
C           -2.72647924512984        0.00823445377607        1.23268247433819
C           -1.98524938620693       -0.00334098407745        0.01041318661822
C           -0.61804169947151       -0.00260216771463        0.01078187835141
C            0.61786840817347       -0.00191945738500        0.01127087741331
C            1.98507340532593       -0.00095257960631        0.01179568698407
C            2.72642154976989        0.06741902174731       -1.20849903058611
C            4.09032255458237        0.08590584605645       -1.19908050193934
C            4.80133095521712        0.00131360987655        0.01292904041909
N            6.21624653350078        0.00254135506850        0.01350313428804
C            6.89440373488188       -1.14354520853388        0.39322078309441
C            6.17181258142961       -2.30365626638336        0.70511651123349
C            6.81342981222565       -3.45710942713263        1.09837353769463
C            8.19644332486372       -3.48450754000711        1.17603478583499
C            8.91579527539469       -2.35571651389712        0.82936585527903
C            8.29576130764687       -1.17940960201838        0.42893370606674
C            9.14410759554259        0.00514160182943        0.01475886768967
C           10.02671906760396       -0.41678969936563       -1.17605325909220
C           10.02448170827752        0.42874738103701        1.20664040862887
C            8.29401190232880        1.18812457917833       -0.40031746395923
C            8.91229901225134        2.36550241727395       -0.80030254942681
C            8.19124420321503        3.49302826061200       -1.14755683654925
C            6.80822498860608        3.46323629628148       -1.07088925150628
C            6.16831602554846        2.30867278454354       -0.67810534150607
C            6.89269027479177        1.14981308896491       -0.36568787774401
C            4.08948625441008       -0.08447094021281        1.22436102623209
C            2.72554994646808       -0.06822796580715        1.23267978710686
C           -2.72588657976173       -0.01565715361055       -1.21220465372991
C           -4.08978164109952       -0.03401266921374       -1.20443654881708
C           -6.89318958618320       -1.13247263348634       -0.42503477724019
C           -6.16939216566360       -2.27568189301093       -0.79197097211528
C           -6.80975592120566       -3.40906515916598       -1.24150622634399
C           -8.19266295401338       -3.43365821746215       -1.32193822267827
C           -8.91327428618313       -2.32376207252248       -0.92116794124077
C           -8.29455134232951       -1.16804622079933       -0.46300206413164
H           -9.39821733193052       -0.82858078015526        1.99947115313878
H          -10.66424268357176       -1.30971878049921        0.86890047083154
H          -10.65851018532357        0.31782842115282        1.54044843938129
H          -10.66488607122717        1.29592563670860       -0.85168523302120
H          -10.65780476206168       -0.33165819342249       -1.52313802845151
H           -9.39817406970490        0.81561135961025       -1.98182989143116
H           -9.99285790074791        2.35296700555660        0.98221897629004
H           -8.70983466009055        4.30228955998533        1.69459394825652
H           -6.23244151855162        4.26473308075677        1.54020334717306
H           -5.09594891248488        2.26066160833580        0.73018333937635
H           -4.64532804813099        0.03556956163743        2.15245277091800
H           -2.18119402818518        0.00185444224654        2.16550645008673
H            2.18120029145348        0.10256783675801       -2.14072421067179
H            4.64534078420072        0.13964619488884       -2.12575125673110
H            5.09625986609509       -2.29484928418780        0.62536173074926
H            6.23313238507878       -4.33609599469041        1.33675739646841
H            8.71073070812123       -4.38135741369491        1.48667123000401
H            9.99327648957233       -2.39942541208393        0.87005832544010
H           10.65662251530431        0.40662676133331       -1.50009200817901
H            9.39980165174575       -0.72083783338033       -2.01260801147432
H           10.66801709541638       -1.25083614677743       -0.90647579995020
H            9.39595136669987        0.73154616930157        2.04243679411269
H           10.65558345066534       -0.39346166040467        1.53141264009519
H           10.66445789980107        1.26406480056430        0.93785323235957
H            9.98973432394016        2.41109015631219       -0.84012643771125
H            8.70420018018973        4.39076750942621       -1.45783450103011
H            6.22658276497894        4.34121978164965       -1.30969104836863
H            5.09272028936553        2.29801286357342       -0.59911785512914
H            4.64384288763020       -0.13730774168612        2.15148028210581
H            2.17965069548155       -0.10427796488862        2.16447201611655
H           -2.18017594765021       -0.00877018061966       -2.14477524592407
H           -4.64427678047120       -0.04477702037182       -2.13288294625797
H           -5.09392444195461       -2.27015732620282       -0.71108897854908
H           -6.22858149200174       -4.27507995463869       -1.52159419908001
H           -8.70588934979305       -4.31458296710299       -1.67678257610508
H           -9.99067785648873       -2.36627423743840       -0.96477837421702

          :  Hamiltonian                  GFN2-xTB          :
         :: gradient norm              0.000140312312 Eh/a0 ::
         :: HOMO-LUMO gap              0.806798286062 eV    ::
         :: SCC energy              -120.606641744822 Eh    ::
         :: -> dispersion             -0.109681739431 Eh    ::
         :: -> Gsolv                  -0.048864598926 Eh    ::
         :: repulsion energy           2.214970286383 Eh    ::

    * Orbital Energies and Occupations

         #    Occupation            Energy/Eh            Energy/eV
      -------------------------------------------------------------
         1        2.0000           -0.6714545             -18.2712
       ...           ...                  ...                  ...
       100        2.0000           -0.4093570             -11.1392
       101        2.0000           -0.4041722             -10.9981
       102        2.0000           -0.4041468             -10.9974
       103        2.0000           -0.4000427             -10.8857
       104        2.0000           -0.3999785             -10.8840
       105        2.0000           -0.3996825             -10.8759
       106        2.0000           -0.3980249             -10.8308
       107        2.0000           -0.3968342             -10.7984
       108        2.0000           -0.3783636             -10.2958
       109        2.0000           -0.3612437              -9.8299
       110        1.9733           -0.3520127              -9.5788
       111        1.0267           -0.3451769              -9.3927
       112        1.0000           -0.2610719              -7.1041 (HOMO)
       113        0.0000           -0.2314217              -6.2973 (LUMO)
       114        0.0000           -0.2313773              -6.2961
       115                         -0.2248442              -6.1183
       116                         -0.2246473              -6.1130
       117                         -0.2240887              -6.0978
       118                         -0.2240678              -6.0972
       119                         -0.2124832              -5.7820
       120                         -0.2124794              -5.7819
       121                         -0.2110933              -5.7441
       122                         -0.1965113              -5.3473
       123                         -0.1929774              -5.2512
       ...                                ...                  ...
       220                          1.3914962              37.8645
      -------------------------------------------------------------
                  HL-Gap            0.0296502 Eh            0.8068 eV

     #   Z          covCN         q      C6AA      α(0)
     1   6 C        3.761    -0.105    22.549     6.769
     2   6 C        3.909     0.023    20.137     6.378
     3   6 C        3.761    -0.105    22.549     6.769
     4   6 C        2.979    -0.008    28.214     8.713
     5   6 C        2.926    -0.036    28.900     8.816
     6   6 C        2.917    -0.039    28.970     8.826
     7   6 C        2.918    -0.032    28.800     8.800
     8   6 C        2.923    -0.052    29.287     8.875
     9   6 C        2.928     0.060    26.658     8.467
    10   7 N        2.752    -0.039    21.988     6.964
    11   6 C        2.925     0.033    27.253     8.561
    12   6 C        2.911    -0.042    29.045     8.837
    13   6 C        2.920    -0.043    29.061     8.840
    14   6 C        2.963     0.014    27.706     8.634
    15   6 C        1.982    -0.062    32.731     9.239
    16   6 C        1.982    -0.062    32.731     9.239
    17   6 C        2.963     0.014    27.706     8.634
    18   6 C        2.920    -0.043    29.061     8.840
    19   6 C        2.911    -0.042    29.045     8.837
    20   6 C        2.925     0.033    27.252     8.561
    21   7 N        2.752    -0.039    21.992     6.965
    22   6 C        2.928     0.060    26.657     8.467
    23   6 C        2.923    -0.052    29.287     8.875
    24   6 C        2.918    -0.032    28.800     8.800
    25   6 C        2.917    -0.039    28.970     8.826
    26   6 C        2.926    -0.036    28.900     8.816
    27   6 C        2.979    -0.008    28.214     8.713
    28   6 C        3.909     0.023    20.137     6.378
    29   6 C        3.761    -0.105    22.549     6.769
    30   6 C        3.761    -0.105    22.549     6.769
    31   6 C        2.979    -0.008    28.214     8.713
    32   6 C        2.926    -0.036    28.900     8.816
    33   6 C        2.917    -0.039    28.970     8.826
    34   6 C        2.918    -0.032    28.800     8.800
    35   6 C        2.923    -0.052    29.287     8.875
    36   6 C        2.928     0.060    26.657     8.467
    37   6 C        2.911    -0.042    29.045     8.837
    38   6 C        2.920    -0.043    29.061     8.840
    39   6 C        2.920    -0.043    29.061     8.840
    40   6 C        2.911    -0.042    29.045     8.837
    41   6 C        2.928     0.060    26.658     8.467
    42   6 C        2.923    -0.052    29.287     8.875
    43   6 C        2.918    -0.032    28.800     8.800
    44   6 C        2.917    -0.039    28.970     8.826
    45   6 C        2.926    -0.036    28.900     8.816
    46   6 C        2.979    -0.008    28.214     8.713
    47   1 H        0.925     0.033     2.550     2.497
    48   1 H        0.925     0.046     2.369     2.407
    49   1 H        0.925     0.046     2.367     2.406
    50   1 H        0.925     0.046     2.369     2.407
    51   1 H        0.925     0.046     2.367     2.406
    52   1 H        0.925     0.033     2.550     2.497
    53   1 H        0.926     0.040     2.447     2.446
    54   1 H        0.926     0.034     2.532     2.488
    55   1 H        0.926     0.033     2.541     2.493
    56   1 H        0.926     0.037     2.495     2.470
    57   1 H        0.925     0.023     2.682     2.561
    58   1 H        0.926     0.020     2.730     2.584
    59   1 H        0.926     0.020     2.730     2.584
    60   1 H        0.925     0.023     2.682     2.561
    61   1 H        0.926     0.036     2.496     2.470
    62   1 H        0.926     0.033     2.542     2.493
    63   1 H        0.926     0.034     2.532     2.488
    64   1 H        0.926     0.040     2.447     2.446
    65   1 H        0.925     0.046     2.367     2.406
    66   1 H        0.925     0.033     2.550     2.497
    67   1 H        0.925     0.046     2.369     2.407
    68   1 H        0.925     0.033     2.550     2.497
    69   1 H        0.925     0.046     2.367     2.406
    70   1 H        0.925     0.046     2.369     2.407
    71   1 H        0.926     0.040     2.447     2.446
    72   1 H        0.926     0.034     2.532     2.488
    73   1 H        0.926     0.033     2.542     2.493
    74   1 H        0.926     0.036     2.496     2.470
    75   1 H        0.925     0.023     2.682     2.561
    76   1 H        0.926     0.020     2.730     2.584
    77   1 H        0.926     0.020     2.730     2.584
    78   1 H        0.925     0.023     2.682     2.561
    79   1 H        0.926     0.037     2.495     2.470
    80   1 H        0.926     0.033     2.541     2.493
    81   1 H        0.926     0.034     2.532     2.488
    82   1 H        0.926     0.040     2.447     2.446

molecular dipole:
                 x           y           z       tot (Debye)
 q only:       -0.008       0.001       0.000
   full:       -0.008       0.001       0.000       0.020

 projected vibrational frequencies (cm⁻¹)
eigval :       -0.00    -0.00    -0.00     0.00     0.00     0.00
eigval :        6.59     7.13    12.91    19.74    23.57    29.30
eigval :       51.45    54.48    66.04    69.64    77.49    86.52
eigval :       96.57   104.64   104.82   109.58   113.24   113.94
eigval :      119.58   151.84   177.34   185.73   194.22   207.16
eigval :      212.54   213.83   215.90   221.97   235.36   239.75
eigval :      278.65   301.01   302.32   306.78   329.10   329.62
eigval :      338.53   340.66   346.53   355.19   368.62   369.82
eigval :      374.40   381.43   382.07   382.29   382.95   409.72
eigval :      409.90   431.60   445.84   453.66   453.80   454.35
eigval :      461.68   472.39   509.24   509.78   512.82   513.59
eigval :      524.07   545.52   545.61   555.59   571.63   572.71
eigval :      582.08   586.49   586.55   607.44   610.42   642.91
eigval :      645.25   648.06   657.09   685.61   686.17   686.60
eigval :      698.37   698.72   723.82   745.22   773.50   774.86
eigval :      775.45   777.13   782.10   783.69   813.11   822.67
eigval :      824.73   824.80   835.53   868.48   868.73   869.16
eigval :      869.54   896.56   897.24   899.43   902.15   905.93
eigval :      907.13   909.68   910.43   911.63   911.81   914.14
eigval :      914.76   923.20   923.31   923.38   923.55   936.52
eigval :      938.56   955.64   959.53   981.06   984.49  1012.47
eigval :     1013.11  1074.69  1074.86  1080.77  1082.62  1108.66
eigval :     1109.35  1114.72  1115.25  1123.99  1127.57  1137.35
eigval :     1138.13  1152.32  1153.28  1155.71  1158.32  1168.74
eigval :     1176.18  1183.38  1183.94  1184.48  1185.17  1188.06
eigval :     1207.01  1216.13  1239.81  1239.90  1242.21  1242.96
eigval :     1245.76  1249.27  1258.30  1259.20  1292.79  1293.19
eigval :     1297.98  1300.73  1300.85  1306.79  1316.80  1319.29
eigval :     1326.63  1326.68  1332.82  1333.09  1376.79  1379.46
eigval :     1384.39  1396.68  1398.93  1415.01  1417.53  1422.58
eigval :     1422.90  1424.63  1429.40  1430.30  1459.08  1459.48
eigval :     1467.90  1468.29  1478.86  1480.08  1482.46  1483.74
eigval :     1486.15  1488.26  1492.54  1498.01  1498.02  1500.52
eigval :     1507.72  1533.72  1558.60  1558.61  1571.05  1571.54
eigval :     1580.34  1580.38  1587.64  1590.97  1600.74  2145.31
eigval :     3022.00  3023.41  3024.16  3025.59  3042.99  3043.84
eigval :     3045.03  3045.56  3050.77  3051.45  3054.67  3055.04
eigval :     3060.23  3060.42  3062.37  3062.63  3076.40  3076.66
eigval :     3078.06  3078.09  3078.28  3078.33  3079.56  3080.47
eigval :     3085.15  3085.20  3085.26  3085.31  3095.27  3095.35
eigval :     3095.47  3095.88  3105.69  3105.89  3106.81  3107.03

   temp. (K)  partition function   enthalpy   heat capacity  entropy
                                   cal/mol     cal/K/mol   cal/K/mol   J/K/mol
 298.15  VIB  0.302E+19            23475.445    148.188    146.648
         ROT  0.288E+08              888.752      2.981     37.112
         INT  0.869E+26            24364.197    151.169    183.761
         TR   0.140E+29             1481.254      4.968     45.002
         TOT                       25845.4512   156.1371   228.7631   957.1447

       T/K    H(0)-H(T)+PV         H(T)/Eh          T*S/Eh         G(T)/Eh
   ------------------------------------------------------------------------
    298.15    0.411873E-01    0.692094E+00    0.108693E+00    0.583401E+00
   ------------------------------------------------------------------------

         :::::::::::::::::::::::::::::::::::::::::::::::::::::
         ::                  THERMODYNAMIC                  ::
         :::::::::::::::::::::::::::::::::::::::::::::::::::::
         :: total free energy        -117.808270110261 Eh   ::
         ::.................................................::
         :: total energy             -118.391671457821 Eh   ::
         :: zero point energy           0.650906720810 Eh   ::
         :: G(RRHO) w/o ZPVE           -0.067505373251 Eh   ::
         :: G(RRHO) contrib.            0.583401347560 Eh   ::
         :::::::::::::::::::::::::::::::::::::::::::::::::::::

           -------------------------------------------------
          | TOTAL ENERGY             -118.391671457821 Eh   |
          | TOTAL ENTHALPY           -117.699577388762 Eh   |
          | TOTAL FREE ENERGY        -117.808270110261 Eh   |
          | GRADIENT NORM               0.000137357387 Eh/α |
          | HOMO-LUMO GAP               0.806821975336 eV   |
           -------------------------------------------------

 * finished run on 2025/09/09 at 22:53:25.406
