   * xtb version 6.7.1 (edcfbbe) compiled by 'albert@albert-system' on 2024-07-22

   ID    Z sym.   atoms
    1    8 O      1, 14
    2    6 C      2-6, 8-13, 15-34, 36-40, 42-54
    3    7 N      7, 35, 41
    4    1 H      55-85

          program call               : xtb data2507/toluene/mCP-BP-DMAC/mCP-BP-DMAC_toluene_T1_crest.xyz --gfn 2 --uhf 2 --gbsa toluene --ohess vtight --parallel 40 --molden --ceasefiles --namespace data2507/toluene/mCP-BP-DMAC/mCP-BP-DMAC_toluene_T1_finalOpt
      * Solvation model:               GBSA
        Solvent                        toluene
        Solvent mass                       9.2140E+01 g/mol
          :  Hamiltonian                  GFN2-xTB          :
 * total energy  :  -137.7041609 Eh     change       -0.7470476E-08 Eh
 * total energy  :  -137.7042991 Eh     change       -0.1382195E-03 Eh
 * total energy  :  -137.7043411 Eh     change       -0.4196579E-04 Eh
 * total energy  :  -137.7043515 Eh     change       -0.1040891E-04 Eh
 * total energy  :  -137.7043610 Eh     change       -0.9505331E-05 Eh
 * total energy  :  -137.7043719 Eh     change       -0.1085949E-04 Eh
 * total energy  :  -137.7043822 Eh     change       -0.1037219E-04 Eh
 * total energy  :  -137.7043913 Eh     change       -0.9090627E-05 Eh
 * total energy  :  -137.7044003 Eh     change       -0.8937522E-05 Eh
 * total energy  :  -137.7044074 Eh     change       -0.7173620E-05 Eh
 * total energy  :  -137.7045385 Eh     change       -0.3944125E-06 Eh
 * total energy  :  -137.7045390 Eh     change       -0.4886303E-06 Eh
 * total energy  :  -137.7045396 Eh     change       -0.5637948E-06 Eh
 * total energy  :  -137.7045403 Eh     change       -0.7306890E-06 Eh
 * total energy  :  -137.7045409 Eh     change       -0.5934733E-06 Eh
 * total energy  :  -137.7045413 Eh     change       -0.4297803E-06 Eh
 * total energy  :  -137.7045416 Eh     change       -0.2785834E-06 Eh
 * total energy  :  -137.7045419 Eh     change       -0.2633189E-06 Eh
 * total energy  :  -137.7045419 Eh     change       -0.1881972E-08 Eh
   *** GEOMETRY OPTIMIZATION CONVERGED AFTER 68 ITERATIONS ***

 final structure:
================
85
 xtb: 6.7.1 (edcfbbe)
O           -1.55806131015364        1.36022356128012       -3.44579287988313
C           -1.67046365733415        0.67381809503160       -2.37639621015321
C           -2.92139180598027        0.61742757022408       -1.67275960198238
C           -4.09246720434219        1.06462789654572       -2.33861903876976
C           -5.31204907912973        1.06043009641591       -1.72133327252874
C           -5.42492895561974        0.62718731862846       -0.39215741715787
N           -6.68753893474313        0.61099602286473        0.25116163956869
C           -7.28667356661786       -0.58863644337530        0.59029566423756
C           -6.69151128763181       -1.82116119285863        0.31267326423244
C           -7.31950975079535       -2.99847798156807        0.66814513904987
C           -8.55592352998326       -2.97696866035967        1.29958982922570
C           -9.17329106809586       -1.76758570835689        1.56539049477885
C           -8.55107280445400       -0.57933408942762        1.21238161893191
O           -9.21626811560621        0.58065545311607        1.47648206806875
C           -8.61521885700137        1.75632605644077        1.13814427646679
C           -9.29897535659651        2.92901794689070        1.42140992547731
C           -8.72789421231917        4.15255156840807        1.11879010695085
C           -7.46422847919597        4.20354035367778        0.54541374230196
C           -6.77553699770993        3.04194098669122        0.25750770341604
C           -7.34304273683553        1.79552887867536        0.53258032675736
C           -4.27412547000285        0.23558514959328        0.30455930421036
C           -3.05149206608699        0.24133687615059       -0.31457717140208
C           -0.49866659890729       -0.05085464316044       -1.87715087061518
C            0.78102112722481        0.46439938071678       -2.16905159182308
C            1.93548103798729       -0.16166805423466       -1.76124884287644
C            1.82071811993791       -1.34846869519685       -1.04522913952998
C            0.54969995982775       -1.92158842619544       -0.80306821782756
C           -0.60301053062643       -1.28564019107797       -1.22528400718017
C            0.79014035124490       -3.16993775591253       -0.12666219184719
C           -0.04546087039045       -4.15399080435687        0.38030971136816
C            0.52205679558766       -5.24287427216913        1.01711364124293
C            1.90289261423714       -5.34522655194102        1.16417846855294
C            2.75559388992859       -4.37602486253087        0.66797592918232
C            2.19322459877564       -3.29396360847585        0.00437531281131
N            2.80458878451532       -2.18750921537628       -0.55475303242435
C            4.18386409862810       -1.95653988313944       -0.60625397518024
C            5.04391517452926       -2.95251709780937       -1.06725055872585
C            6.40757740807909       -2.72618639496682       -1.09496330160657
C            6.92947903316369       -1.51487634462772       -0.67711748548235
C            6.07413496502936       -0.51539785365728       -0.21763988918804
N            6.60024659317649        0.70604497791264        0.22834591342516
C            6.20551975436141        1.96330840961498       -0.18421794927669
C            5.27251180170104        2.32605932104689       -1.14476963462646
C            5.08365782911535        3.67288866419848       -1.38962808575274
C            5.81218772325447        4.64343285647161       -0.70507986144902
C            6.76118411075438        4.28872009151675        0.23439841776743
C            6.96642577395732        2.94088198733100        0.49812037712209
C            7.85832451371856        2.22730616531486        1.37065338784470
C            8.81985399330885        2.62708667600250        2.28935633734641
C            9.50204286575519        1.65694127492955        2.99809534469635
C            9.22574495984723        0.30431157355606        2.80964153484945
C            8.27332423225497       -0.11793049221598        1.90126570459933
C            7.60088635749780        0.85129983118608        1.16983223603588
C            4.70250663666300       -0.73673756008990       -0.18164324518052
H           -3.98560717789155        1.39076107127111       -3.36323485492891
H           -6.19912005451757        1.37335172375962       -2.25367084192198
H           -5.73765281783947       -1.83983523620246       -0.18904283396326
H           -6.84186905710680       -3.93990359671181        0.44649392114808
H           -9.04231223104283       -3.89849012601333        1.57665280216314
H          -10.13955549068576       -1.71779372245783        2.04111345932069
H          -10.27164478001518        2.85666489275691        1.88095908463631
H           -9.26301987682413        5.06232699703776        1.33895838479249
H           -7.00894166244448        5.15579176116046        0.32294688986187
H           -5.79028774011061        3.08478259185096       -0.17823218627273
H           -4.35750300557548       -0.04536349342586        1.34515317277349
H           -2.16912819251284       -0.00671441113751        0.25532822593026
H            0.83020382989354        1.38804790812031       -2.72782001134948
H            2.90016664409775        0.25469654755956       -2.00595203663656
H           -1.56532432713024       -1.75440919320397       -1.08883312712131
H           -1.11682067774137       -4.06462569363886        0.28100456157879
H           -0.11171678709384       -6.02097584673276        1.41611360563856
H            2.31806663265916       -6.19848707048804        1.68019366835459
H            3.82304138851915       -4.45723569796016        0.80454321543961
H            4.63579514618556       -3.88755770047075       -1.41832125814373
H            7.06977654271093       -3.49673427682596       -1.45976940259262
H            7.99176022669099       -1.33001503189931       -0.71806788526002
H            4.71820102670381        1.58172306463803       -1.69502029385891
H            4.35789462760390        3.97779957267546       -2.12956932205146
H            5.63529630437584        5.68658704106959       -0.92233759476831
H            7.33641086829560        5.04183595087922        0.75174585378219
H            9.02403551354540        3.67560397632263        2.44646902353481
H           10.25512853816954        1.94719566671046        3.71589513951050
H            9.76499024036931       -0.43077976962586        3.38904529729378
H            8.05472810528489       -1.16728793962981        1.77404028395865
H            4.04211596334094        0.02544378808028        0.20358661759984

          :  Hamiltonian                  GFN2-xTB          :
         :: gradient norm              0.000035440497 Eh/a0 ::
         :: HOMO-LUMO gap              0.310965454040 eV    ::
         :: SCC energy              -140.162097570278 Eh    ::
         :: -> dispersion             -0.120224956269 Eh    ::
         :: -> Gsolv                  -0.070110009181 Eh    ::
         :: repulsion energy           2.457555700704 Eh    ::

    * Orbital Energies and Occupations

         #    Occupation            Energy/Eh            Energy/eV
      -------------------------------------------------------------
         1        2.0000           -0.7598773             -20.6773
       ...           ...                  ...                  ...
       116        2.0000           -0.4153154             -11.3013
       117        2.0000           -0.4112139             -11.1897
       118        2.0000           -0.4080830             -11.1045
       119        2.0000           -0.4053765             -11.0309
       120        2.0000           -0.4037589             -10.9868
       121        2.0000           -0.3960011             -10.7757
       122        2.0000           -0.3815042             -10.3813
       123        2.0000           -0.3798690             -10.3368
       124        1.9945           -0.3677942             -10.0082
       125        1.9488           -0.3656313              -9.9493
       126        1.7720           -0.3640167              -9.9054
       127        1.2848           -0.3619832              -9.8501
       128        0.9976           -0.2738081              -7.4507 (HOMO)
       129        0.0024           -0.2623807              -7.1397 (LUMO)
       130                         -0.2499570              -6.8017
       131                         -0.2490609              -6.7773
       132                         -0.2473999              -6.7321
       133                         -0.2406837              -6.5493
       134                         -0.2399827              -6.5303
       135                         -0.2355090              -6.4085
       136                         -0.2266031              -6.1662
       137                         -0.2249213              -6.1204
       138                         -0.2188077              -5.9541
       139                         -0.2167317              -5.8976
       ...                                ...                  ...
       247                          0.7421409              20.1947
      -------------------------------------------------------------
                  HL-Gap            0.0114273 Eh            0.3110 eV

     #   Z          covCN         q      C6AA      α(0)
     1   8 O        0.858    -0.527    24.393     6.622
     2   6 C        2.834     0.161    24.520     8.115
     3   6 C        2.966    -0.025    28.622     8.775
     4   6 C        2.923    -0.034    28.852     8.809
     5   6 C        2.912    -0.043    29.073     8.842
     6   6 C        2.923     0.023    27.494     8.599
     7   7 N        2.752    -0.008    21.403     6.871
     8   6 C        2.927     0.047    26.942     8.512
     9   6 C        2.920    -0.047    29.164     8.856
    10   6 C        2.917    -0.027    28.684     8.783
    11   6 C        2.919    -0.027    28.666     8.780
    12   6 C        2.916    -0.050    29.251     8.869
    13   6 C        2.886     0.133    25.101     8.214
    14   8 O        1.710    -0.217    17.604     5.665
    15   6 C        2.886     0.132    25.103     8.214
    16   6 C        2.916    -0.050    29.254     8.869
    17   6 C        2.919    -0.027    28.664     8.780
    18   6 C        2.917    -0.027    28.683     8.782
    19   6 C        2.920    -0.047    29.156     8.855
    20   6 C        2.927     0.047    26.941     8.512
    21   6 C        2.913    -0.043    29.068     8.841
    22   6 C        2.917    -0.047    29.160     8.855
    23   6 C        2.969    -0.018    28.459     8.750
    24   6 C        2.928    -0.032    28.787     8.799
    25   6 C        2.907    -0.050    29.238     8.866
    26   6 C        3.071     0.040    27.037     8.526
    27   6 C        3.060    -0.017    28.366     8.734
    28   6 C        2.914    -0.044    29.104     8.846
    29   6 C        3.066    -0.015    28.330     8.728
    30   6 C        2.912    -0.033    28.826     8.804
    31   6 C        2.920    -0.040    28.989     8.829
    32   6 C        2.923    -0.034    28.851     8.808
    33   6 C        2.910    -0.050    29.234     8.866
    34   6 C        3.070     0.047    26.881     8.501
    35   7 N        2.800    -0.035    21.914     6.953
    36   6 C        2.912     0.066    26.516     8.444
    37   6 C        2.921    -0.045    29.127     8.850
    38   6 C        2.919    -0.026    28.648     8.777
    39   6 C        2.921    -0.046    29.133     8.851
    40   6 C        2.912     0.067    26.505     8.442
    41   7 N        2.802    -0.040    22.006     6.967
    42   6 C        3.074     0.047    26.864     8.498
    43   6 C        2.910    -0.049    29.210     8.862
    44   6 C        2.923    -0.033    28.830     8.805
    45   6 C        2.920    -0.040    29.002     8.831
    46   6 C        2.912    -0.033    28.832     8.805
    47   6 C        3.067    -0.017    28.362     8.733
    48   6 C        3.067    -0.016    28.352     8.731
    49   6 C        2.912    -0.033    28.830     8.805
    50   6 C        2.920    -0.040    29.005     8.832
    51   6 C        2.924    -0.034    28.842     8.807
    52   6 C        2.909    -0.050    29.249     8.868
    53   6 C        3.075     0.047    26.868     8.499
    54   6 C        2.924    -0.056    29.383     8.889
    55   1 H        0.926     0.030     2.586     2.515
    56   1 H        0.926     0.032     2.559     2.502
    57   1 H        0.926     0.059     2.208     2.324
    58   1 H        0.926     0.060     2.199     2.319
    59   1 H        0.926     0.063     2.163     2.300
    60   1 H        0.926     0.069     2.100     2.266
    61   1 H        0.926     0.069     2.097     2.264
    62   1 H        0.926     0.063     2.165     2.301
    63   1 H        0.926     0.059     2.209     2.324
    64   1 H        0.926     0.058     2.218     2.329
    65   1 H        0.926     0.034     2.533     2.489
    66   1 H        0.926     0.033     2.548     2.496
    67   1 H        0.926     0.029     2.604     2.523
    68   1 H        0.926     0.028     2.621     2.532
    69   1 H        0.926     0.033     2.542     2.493
    70   1 H        0.926     0.034     2.531     2.488
    71   1 H        0.926     0.034     2.537     2.491
    72   1 H        0.926     0.035     2.511     2.478
    73   1 H        0.926     0.036     2.506     2.476
    74   1 H        0.926     0.051     2.302     2.373
    75   1 H        0.926     0.052     2.294     2.368
    76   1 H        0.926     0.052     2.301     2.372
    77   1 H        0.926     0.027     2.633     2.537
    78   1 H        0.926     0.030     2.582     2.513
    79   1 H        0.926     0.031     2.577     2.510
    80   1 H        0.926     0.034     2.525     2.485
    81   1 H        0.926     0.034     2.537     2.491
    82   1 H        0.926     0.032     2.565     2.504
    83   1 H        0.926     0.034     2.533     2.489
    84   1 H        0.926     0.034     2.534     2.489
    85   1 H        0.926     0.049     2.328     2.386

molecular dipole:
                 x           y           z       tot (Debye)
 q only:       -2.311      -1.475       3.261
   full:       -2.245      -1.453       3.170      10.542

 projected vibrational frequencies (cm⁻¹)
eigval :       -0.00    -0.00    -0.00     0.00     0.00     0.00
eigval :        7.91    12.65    14.16    21.21    22.45    29.97
eigval :       39.51    41.52    54.31    55.58    61.26    67.92
eigval :       81.02   100.86   103.15   114.80   120.91   123.74
eigval :      129.92   143.21   154.39   156.65   181.46   195.45
eigval :      215.83   226.98   237.29   242.93   244.78   261.46
eigval :      268.12   272.69   278.71   280.70   286.77   307.84
eigval :      321.98   341.92   356.68   376.19   383.62   386.02
eigval :      393.69   397.91   402.93   413.07   422.16   422.32
eigval :      425.27   431.97   433.83   437.38   444.14   460.31
eigval :      471.13   493.28   493.87   506.20   516.45   520.80
eigval :      531.99   532.51   541.24   541.40   556.62   566.12
eigval :      576.06   582.88   588.49   593.92   598.88   603.61
eigval :      609.11   613.49   629.33   639.93   652.92   663.52
eigval :      668.32   669.74   674.10   674.35   675.84   687.35
eigval :      704.71   708.68   715.36   748.11   760.87   766.79
eigval :      772.66   775.84   778.43   778.76   790.64   796.07
eigval :      800.71   805.47   814.44   837.00   855.80   864.38
eigval :      866.57   867.76   869.52   870.82   871.92   880.56
eigval :      890.31   895.37   898.73   899.52   901.67   902.68
eigval :      904.82   905.22   905.93   906.93   907.91   909.74
eigval :      911.72   918.44   919.67   920.63   922.12   922.27
eigval :      922.88   929.06   948.45   993.03   994.96  1008.09
eigval :     1015.06  1020.95  1066.93  1069.21  1070.95  1078.99
eigval :     1080.77  1107.54  1114.13  1116.31  1118.31  1125.19
eigval :     1128.24  1139.67  1148.58  1153.46  1161.13  1164.37
eigval :     1169.16  1170.53  1174.79  1176.38  1180.25  1184.45
eigval :     1187.51  1196.68  1208.29  1208.90  1225.77  1229.15
eigval :     1232.42  1233.58  1244.81  1248.73  1249.50  1254.29
eigval :     1255.20  1268.94  1294.20  1295.75  1296.35  1298.35
eigval :     1302.82  1315.64  1318.67  1328.60  1335.88  1342.12
eigval :     1344.45  1353.77  1355.16  1355.75  1366.63  1403.61
eigval :     1408.84  1409.47  1414.16  1417.29  1419.26  1422.61
eigval :     1424.80  1433.98  1438.21  1447.11  1454.37  1456.03
eigval :     1461.61  1466.78  1471.95  1475.85  1485.11  1526.60
eigval :     1543.72  1548.95  1550.73  1553.02  1560.88  1569.63
eigval :     1571.89  1574.04  1576.74  1582.92  1586.15  1593.01
eigval :     1595.76  1607.98  3065.32  3067.30  3072.85  3073.73
eigval :     3075.27  3078.93  3079.15  3079.83  3080.86  3081.31
eigval :     3086.70  3087.02  3087.49  3088.69  3089.06  3089.67
eigval :     3092.18  3093.43  3094.80  3095.66  3098.26  3098.56
eigval :     3098.80  3100.51  3105.63  3105.76  3106.74  3113.56
eigval :     3116.00  3116.71  3119.56

   temp. (K)  partition function   enthalpy   heat capacity  entropy
                                   cal/mol     cal/K/mol   cal/K/mol   J/K/mol
 298.15  VIB  0.790E+19            24448.910    157.300    150.833
         ROT  0.160E+09              888.752      2.981     40.525
         INT  0.127E+28            25337.662    160.281    191.358
         TR   0.177E+29             1481.254      4.968     45.471
         TOT                       26818.9160   165.2492   236.8294   990.8943

       T/K    H(0)-H(T)+PV         H(T)/Eh          T*S/Eh         G(T)/Eh
   ------------------------------------------------------------------------
    298.15    0.427387E-01    0.682677E+00    0.112525E+00    0.570152E+00
   ------------------------------------------------------------------------

         :::::::::::::::::::::::::::::::::::::::::::::::::::::
         ::                  THERMODYNAMIC                  ::
         :::::::::::::::::::::::::::::::::::::::::::::::::::::
         :: total free energy        -137.134389702712 Eh   ::
         ::.................................................::
         :: total energy             -137.704541865455 Eh   ::
         :: zero point energy           0.639938799766 Eh   ::
         :: G(RRHO) w/o ZPVE           -0.069786637023 Eh   ::
         :: G(RRHO) contrib.            0.570152162744 Eh   ::
         :::::::::::::::::::::::::::::::::::::::::::::::::::::

           -------------------------------------------------
          | TOTAL ENERGY             -137.704541865455 Eh   |
          | TOTAL ENTHALPY           -137.021864402570 Eh   |
          | TOTAL FREE ENERGY        -137.134389702712 Eh   |
          | GRADIENT NORM               0.000038333487 Eh/α |
          | HOMO-LUMO GAP               0.310954000295 eV   |
           -------------------------------------------------

 * finished run on 2025/08/21 at 18:17:08.808
