   * xtb version 6.7.1 (edcfbbe) compiled by 'albert@albert-system' on 2024-07-22

   ID    Z sym.   atoms
    1    8 O      1, 14
    2    6 C      2-6, 8-13, 15-34, 36-40, 42-54
    3    7 N      7, 35, 41
    4    1 H      55-85

          program call               : xtb data2507/toluene/mCP-BP-DMAC/mCP-BP-DMAC.xyz --gfn 2 --gbsa toluene --ohess vtight --parallel 40 --molden --ceasefiles --namespace data2507/toluene/mCP-BP-DMAC/mCP-BP-DMAC_toluene_S0_preOpt
      * Solvation model:               GBSA
        Solvent                        toluene
        Solvent mass                       9.2140E+01 g/mol
          :  Hamiltonian                  GFN2-xTB          :
 * total energy  :  -137.7609096 Eh     change       -0.7183530E-08 Eh
 * total energy  :  -137.7761025 Eh     change       -0.1519294E-01 Eh
 * total energy  :  -137.7800902 Eh     change       -0.3987671E-02 Eh
 * total energy  :  -137.7810862 Eh     change       -0.9959559E-03 Eh
 * total energy  :  -137.7818525 Eh     change       -0.7663867E-03 Eh
 * total energy  :  -137.7821654 Eh     change       -0.3128684E-03 Eh
 * total energy  :  -137.7823382 Eh     change       -0.1728050E-03 Eh
 * total energy  :  -137.7824615 Eh     change       -0.1232843E-03 Eh
 * total energy  :  -137.7825579 Eh     change       -0.9642230E-04 Eh
 * total energy  :  -137.7826372 Eh     change       -0.7931353E-04 Eh
 * total energy  :  -137.7842617 Eh     change       -0.2491112E-06 Eh
 * total energy  :  -137.7842620 Eh     change       -0.2885631E-06 Eh
 * total energy  :  -137.7842623 Eh     change       -0.3267031E-06 Eh
 * total energy  :  -137.7842626 Eh     change       -0.3039316E-06 Eh
 * total energy  :  -137.7842629 Eh     change       -0.2553774E-06 Eh
 * total energy  :  -137.7842631 Eh     change       -0.2215926E-06 Eh
 * total energy  :  -137.7842633 Eh     change       -0.1880768E-06 Eh
 * total energy  :  -137.7842634 Eh     change       -0.1242703E-06 Eh
 * total energy  :  -137.7842634 Eh     change       -0.2636170E-08 Eh
   *** GEOMETRY OPTIMIZATION CONVERGED AFTER 94 ITERATIONS ***

 final structure:
================
85
 xtb: 6.7.1 (edcfbbe)
O           -2.73667839472143        4.40082837034177        0.16321414054772
C           -2.58254227133381        3.19779069887202       -0.01194103231902
C           -3.73822066583831        2.26827574300631        0.06334581039773
C           -3.62580188232120        0.99241167251156        0.61551036692671
C           -4.73143690010410        0.16992438773126        0.70093777216493
C           -5.96844608765612        0.60401978202215        0.22894115204910
N           -7.09389129051987       -0.24386439124502        0.30210138457657
C           -8.19774512078992        0.10837545526489        1.08378249462184
C           -8.20830060823253        1.24462320017731        1.88397963176718
C           -9.31740585983607        1.56223298398944        2.65355242529155
C          -10.42964163687174        0.74470289821746        2.64684391644155
C          -10.42356411794406       -0.40988678082507        1.87738847865303
C           -9.31930455621477       -0.73126030738386        1.10999822597606
O           -9.37681378387693       -1.90835893145337        0.40020903173852
C           -8.27293669736823       -2.25142949877439       -0.34580524704810
C           -8.34061752389794       -3.44007610572236       -1.04893437302856
C           -7.28150119436433       -3.84131267036647       -1.85038780032312
C           -6.16503671051535       -3.03627587731614       -1.95283599184514
C           -6.09214088079051       -1.84431130787033       -1.24767394225446
C           -7.13165670607813       -1.44124925042749       -0.41803045532039
C           -6.08917401320258        1.88416662227875       -0.30833361003729
C           -4.98593946877994        2.70936670909461       -0.37644577117038
C           -1.25974192723731        2.61656834317610       -0.30082522708859
C           -0.12058190321786        3.31002750457344        0.14406907579669
C            1.15367003425652        2.84909281628197       -0.09484888033220
C            1.29341863354989        1.67231879986325       -0.82428855292007
C            0.15580386706569        0.96183353655711       -1.28587874605204
C           -1.11814080674363        1.43579936039324       -1.02669869702797
C            0.65316904035350       -0.20289696748386       -1.96634252785697
C            0.03865258261021       -1.25802095795839       -2.62863687225358
C            0.83487402057629       -2.23280498172251       -3.19692786093034
C            2.22433489229362       -2.15831599466826       -3.12129740708754
C            2.85776175727095       -1.11868569606952       -2.46633782044678
C            2.06226859013569       -0.14764288870820       -1.87561759540558
N            2.43050917492814        0.99370174082578       -1.18417476382080
C            3.74848609074890        1.39651443110552       -0.90821549443496
C            4.17505524166184        2.67674826415671       -1.24886808586230
C            5.47448248721737        3.06187234723057       -0.97022516624526
C            6.35377907150259        2.18595184828229       -0.36007290422082
C            5.93259013840522        0.90096310942337       -0.02563923431883
N            6.81387879068301        0.00610037133532        0.59513915212837
C            6.55965515243056       -0.71074555504962        1.74938923204024
C            5.44200711047461       -0.69719173147801        2.57195982357176
C            5.45740381240481       -1.50166164317623        3.69581473666597
C            6.55846422979360       -2.29692890506979        4.00676918277489
C            7.68298384255067       -2.29612183213478        3.20537963223425
C            7.69116440684128       -1.49560408042952        2.07014653732430
C            8.67022678850101       -1.23761110430185        1.05078115103461
C            9.95271094928693       -1.71645253386788        0.81500132121470
C           10.63253685950492       -1.26709954730652       -0.29979325327611
C           10.04300960975418       -0.36409554380806       -1.18235607637853
C            8.76839065599012        0.12617252422743       -0.96916945897526
C            8.09003097862794       -0.30243072848416        0.16315264710548
C            4.62698641782251        0.50798326004322       -0.30058198814896
H           -2.67721351479200        0.65628382569492        1.00621419996969
H           -4.64629298950722       -0.81284608717398        1.14056274411988
H           -7.34056266468075        1.88480171595951        1.91096435305733
H           -9.29848742042999        2.45434209007376        3.26064115525100
H          -11.29698224801431        0.98866530223573        3.23981996873681
H          -11.26811825973788       -1.08093940319352        1.86279950450334
H           -9.23630227261339       -4.03475201205377       -0.96020763272724
H           -7.34308355631440       -4.77106874646620       -2.39366475740339
H           -5.34050937257277       -3.32525606465652       -2.58631593883910
H           -5.22071215146251       -1.21748083710173       -1.34990862606816
H           -7.04887343286062        2.22301518298391       -0.66924108717173
H           -5.06847652056423        3.70434171378064       -0.78882918825148
H           -0.27510928202154        4.22320619843819        0.70012102336275
H            2.01405095918723        3.38257956481870        0.27849623365637
H           -1.98217541175418        0.91238805389409       -1.40542603062361
H           -1.03737059139661       -1.30809958485336       -2.69872982971574
H            0.37848599052974       -3.06278415142057       -3.71558282333594
H            2.82063774223112       -2.92887729984737       -3.58725981157507
H            3.93483140484447       -1.06344110768581       -2.42617847306085
H            3.49366697711512        3.35540003249784       -1.73823543151448
H            5.80443037792511        4.05616347275920       -1.23046282750918
H            7.36111053637178        2.49432945967098       -0.12674670135095
H            4.58976754406261       -0.07178526269422        2.35269933416140
H            4.59749245775585       -1.51078212901129        4.34977802732435
H            6.53100530138715       -2.91368938226324        4.89314498469403
H            8.54272093895558       -2.89972576934660        3.45521266014124
H           10.40331766939024       -2.42884500334948        1.48985397536072
H           11.63197838267815       -1.62504727148384       -0.49937327739887
H           10.59346364171647       -0.04264476974555       -2.05463475463624
H            8.31558393359634        0.81280312157631       -1.66843090337141
H            4.29668461223588       -0.48628581994768       -0.04130455636271

          :  Hamiltonian                  GFN2-xTB          :
         :: gradient norm              0.000036426317 Eh/a0 ::
         :: HOMO-LUMO gap              1.539756678339 eV    ::
         :: SCC energy              -140.256536561752 Eh    ::
         :: -> dispersion             -0.119402394201 Eh    ::
         :: -> Gsolv                  -0.059806220008 Eh    ::
         :: repulsion energy           2.472273148469 Eh    ::

    * Orbital Energies and Occupations

         #    Occupation            Energy/Eh            Energy/eV
      -------------------------------------------------------------
         1        2.0000           -0.7308115             -19.8864
       ...           ...                  ...                  ...
       115        2.0000           -0.4185356             -11.3889
       116        2.0000           -0.4182411             -11.3809
       117        2.0000           -0.4171288             -11.3507
       118        2.0000           -0.4154443             -11.3048
       119        2.0000           -0.4141046             -11.2684
       120        2.0000           -0.4070903             -11.0775
       121        2.0000           -0.3932477             -10.7008
       122        2.0000           -0.3919370             -10.6651
       123        2.0000           -0.3895617             -10.6005
       124        2.0000           -0.3804830             -10.3535
       125        2.0000           -0.3748422             -10.2000
       126        2.0000           -0.3658864              -9.9563
       127        2.0000           -0.3454317              -9.3997 (HOMO)
       128                         -0.2888466              -7.8599 (LUMO)
       129                         -0.2562414              -6.9727
       130                         -0.2495972              -6.7919
       131                         -0.2451430              -6.6707
       132                         -0.2415189              -6.5721
       133                         -0.2413591              -6.5677
       134                         -0.2396821              -6.5221
       135                         -0.2392734              -6.5110
       136                         -0.2311507              -6.2899
       137                         -0.2238510              -6.0913
       138                         -0.2190010              -5.9593
       ...                                ...                  ...
       247                          0.7423765              20.2011
      -------------------------------------------------------------
                  HL-Gap            0.0565850 Eh            1.5398 eV

     #   Z          covCN         q      C6AA      α(0)
     1   8 O        0.858    -0.434    22.371     6.341
     2   6 C        2.830     0.224    23.290     7.908
     3   6 C        2.971    -0.015    28.371     8.737
     4   6 C        2.920    -0.026    28.645     8.777
     5   6 C        2.920    -0.039    28.973     8.827
     6   6 C        2.921     0.071    26.416     8.428
     7   7 N        2.751    -0.071    22.621     7.064
     8   6 C        2.921     0.042    27.053     8.529
     9   6 C        2.924    -0.060    29.496     8.906
    10   6 C        2.919    -0.039    28.964     8.825
    11   6 C        2.919    -0.041    29.014     8.833
    12   6 C        2.919    -0.058    29.439     8.898
    13   6 C        2.882     0.122    25.309     8.248
    14   8 O        1.708    -0.272    18.508     5.809
    15   6 C        2.882     0.123    25.307     8.247
    16   6 C        2.919    -0.058    29.435     8.897
    17   6 C        2.919    -0.041    29.017     8.834
    18   6 C        2.919    -0.039    28.968     8.826
    19   6 C        2.924    -0.061    29.509     8.908
    20   6 C        2.921     0.042    27.054     8.530
    21   6 C        2.919    -0.039    28.959     8.825
    22   6 C        2.924    -0.017    28.442     8.746
    23   6 C        2.972    -0.027    28.676     8.784
    24   6 C        2.929    -0.023    28.570     8.766
    25   6 C        2.907    -0.049    29.209     8.862
    26   6 C        3.075     0.053    26.728     8.476
    27   6 C        3.066    -0.014    28.296     8.723
    28   6 C        2.914    -0.030    28.749     8.792
    29   6 C        3.066    -0.015    28.329     8.728
    30   6 C        2.912    -0.032    28.797     8.799
    31   6 C        2.920    -0.039    28.960     8.825
    32   6 C        2.924    -0.032    28.786     8.799
    33   6 C        2.909    -0.048    29.200     8.861
    34   6 C        3.077     0.047    26.872     8.499
    35   7 N        2.803    -0.031    21.842     6.941
    36   6 C        2.913     0.064    26.563     8.451
    37   6 C        2.921    -0.046    29.135     8.852
    38   6 C        2.919    -0.025    28.632     8.775
    39   6 C        2.921    -0.045    29.118     8.849
    40   6 C        2.912     0.068    26.481     8.438
    41   7 N        2.802    -0.044    22.081     6.979
    42   6 C        3.073     0.046    26.884     8.501
    43   6 C        2.910    -0.052    29.290     8.874
    44   6 C        2.924    -0.034    28.859     8.810
    45   6 C        2.920    -0.042    29.040     8.837
    46   6 C        2.912    -0.034    28.853     8.808
    47   6 C        3.067    -0.018    28.379     8.735
    48   6 C        3.067    -0.018    28.380     8.735
    49   6 C        2.912    -0.034    28.853     8.808
    50   6 C        2.920    -0.042    29.042     8.837
    51   6 C        2.924    -0.034    28.859     8.810
    52   6 C        2.910    -0.052    29.291     8.875
    53   6 C        3.073     0.047    26.881     8.501
    54   6 C        2.925    -0.056    29.399     8.892
    55   1 H        0.926     0.052     2.298     2.371
    56   1 H        0.926     0.053     2.283     2.363
    57   1 H        0.926     0.039     2.466     2.456
    58   1 H        0.926     0.041     2.434     2.440
    59   1 H        0.926     0.042     2.419     2.432
    60   1 H        0.926     0.048     2.343     2.394
    61   1 H        0.926     0.048     2.348     2.396
    62   1 H        0.926     0.042     2.417     2.431
    63   1 H        0.926     0.042     2.419     2.432
    64   1 H        0.926     0.040     2.453     2.449
    65   1 H        0.926     0.050     2.316     2.380
    66   1 H        0.926     0.051     2.313     2.378
    67   1 H        0.926     0.045     2.380     2.413
    68   1 H        0.926     0.044     2.401     2.423
    69   1 H        0.926     0.045     2.389     2.417
    70   1 H        0.926     0.037     2.489     2.467
    71   1 H        0.926     0.035     2.515     2.480
    72   1 H        0.926     0.037     2.493     2.469
    73   1 H        0.926     0.036     2.505     2.475
    74   1 H        0.926     0.050     2.316     2.380
    75   1 H        0.926     0.051     2.301     2.372
    76   1 H        0.926     0.051     2.306     2.375
    77   1 H        0.926     0.030     2.588     2.516
    78   1 H        0.926     0.031     2.579     2.511
    79   1 H        0.926     0.029     2.607     2.525
    80   1 H        0.926     0.031     2.569     2.506
    81   1 H        0.926     0.031     2.572     2.508
    82   1 H        0.926     0.029     2.607     2.525
    83   1 H        0.926     0.031     2.570     2.507
    84   1 H        0.926     0.032     2.563     2.504
    85   1 H        0.926     0.053     2.277     2.360

molecular dipole:
                 x           y           z       tot (Debye)
 q only:        1.662      -0.948      -0.597
   full:        1.682      -0.898      -0.596       5.078

 projected vibrational frequencies (cm⁻¹)
eigval :       -0.00    -0.00    -0.00     0.00     0.00     0.00
eigval :        6.13     9.55    12.88    14.38    19.94    26.70
eigval :       33.67    40.66    52.02    53.12    58.54    64.94
eigval :       80.70    89.02    97.55   112.78   114.31   119.04
eigval :      129.98   142.82   153.76   161.97   181.28   200.44
eigval :      214.42   224.20   235.97   241.03   248.75   263.67
eigval :      271.72   273.29   275.31   284.59   288.80   294.23
eigval :      318.97   350.36   363.09   377.22   380.52   383.92
eigval :      395.12   398.82   415.90   416.81   417.84   423.20
eigval :      425.82   429.97   435.86   440.76   444.94   458.48
eigval :      471.85   509.11   510.86   517.25   521.44   523.86
eigval :      535.48   537.61   541.22   543.85   557.38   575.00
eigval :      584.31   587.40   591.43   598.69   603.37   607.47
eigval :      615.97   638.34   643.81   658.77   660.98   662.40
eigval :      667.03   672.77   676.34   687.72   692.34   707.96
eigval :      710.45   719.66   729.39   749.53   761.53   768.11
eigval :      773.13   778.29   778.93   780.14   793.46   803.39
eigval :      815.64   824.79   829.02   853.25   862.85   864.65
eigval :      866.32   869.24   871.46   872.13   882.71   887.37
eigval :      893.79   895.37   897.74   898.42   899.40   903.12
eigval :      905.07   907.14   908.91   914.03   915.07   916.00
eigval :      916.29   919.39   922.40   923.03   925.35   926.96
eigval :      932.45   935.77   964.69   997.04  1008.27  1014.74
eigval :     1018.79  1028.89  1068.73  1069.16  1073.12  1088.27
eigval :     1090.59  1105.88  1111.52  1117.20  1118.40  1125.42
eigval :     1131.42  1146.82  1150.96  1162.31  1165.54  1169.34
eigval :     1174.25  1175.96  1176.59  1180.49  1181.51  1185.54
eigval :     1187.00  1196.55  1198.26  1215.03  1227.57  1231.30
eigval :     1234.55  1240.85  1246.83  1249.57  1251.68  1259.40
eigval :     1260.60  1283.21  1297.49  1300.47  1304.18  1304.37
eigval :     1306.61  1313.19  1315.06  1333.13  1343.93  1352.52
eigval :     1352.70  1355.39  1357.84  1361.39  1371.67  1400.34
eigval :     1415.99  1420.49  1422.34  1425.39  1427.56  1441.28
eigval :     1456.59  1469.46  1471.89  1472.78  1476.33  1479.99
eigval :     1482.52  1486.34  1502.47  1553.94  1557.52  1566.11
eigval :     1569.24  1574.38  1575.50  1576.51  1579.27  1582.33
eigval :     1586.80  1587.66  1588.27  1597.46  1602.10  1606.83
eigval :     1612.67  1638.91  3071.87  3072.42  3076.48  3077.53
eigval :     3078.14  3082.08  3083.00  3084.19  3084.82  3084.86
eigval :     3085.57  3087.49  3087.85  3088.41  3089.65  3091.49
eigval :     3093.02  3093.77  3094.71  3095.52  3095.59  3096.01
eigval :     3096.48  3097.93  3100.65  3102.24  3103.35  3105.82
eigval :     3106.02  3108.49  3110.39

   temp. (K)  partition function   enthalpy   heat capacity  entropy
                                   cal/mol     cal/K/mol   cal/K/mol   J/K/mol
 298.15  VIB  0.401E+20            24382.294    155.709    151.809
         ROT  0.155E+09              888.752      2.981     40.464
         INT  0.623E+28            25271.046    158.690    192.274
         TR   0.177E+29             1481.254      4.968     45.471
         TOT                       26752.3003   163.6577   237.7447   994.7238

       T/K    H(0)-H(T)+PV         H(T)/Eh          T*S/Eh         G(T)/Eh
   ------------------------------------------------------------------------
    298.15    0.426325E-01    0.685668E+00    0.112960E+00    0.572707E+00
   ------------------------------------------------------------------------

         :::::::::::::::::::::::::::::::::::::::::::::::::::::
         ::                  THERMODYNAMIC                  ::
         :::::::::::::::::::::::::::::::::::::::::::::::::::::
         :: total free energy        -137.211555964320 Eh   ::
         ::.................................................::
         :: total energy             -137.784263417918 Eh   ::
         :: zero point energy           0.643035124757 Eh   ::
         :: G(RRHO) w/o ZPVE           -0.070327671159 Eh   ::
         :: G(RRHO) contrib.            0.572707453598 Eh   ::
         :::::::::::::::::::::::::::::::::::::::::::::::::::::

           -------------------------------------------------
          | TOTAL ENERGY             -137.784263417918 Eh   |
          | TOTAL ENTHALPY           -137.098595788901 Eh   |
          | TOTAL FREE ENERGY        -137.211555964320 Eh   |
          | GRADIENT NORM               0.000036425402 Eh/α |
          | HOMO-LUMO GAP               1.539757276415 eV   |
           -------------------------------------------------

 * finished run on 2025/08/21 at 18:03:07.482
