   * xtb version 6.7.1 (edcfbbe) compiled by 'albert@albert-system' on 2024-07-22

   ID    Z sym.   atoms
    1    8 O      1, 14
    2    6 C      2-6, 8-13, 15-34, 36-40, 42-54
    3    7 N      7, 35, 41
    4    1 H      55-85

          program call               : xtb data2507/toluene/mCP-BP-DMAC/mCP-BP-DMAC_toluene_S0_crest.xyz --gfn 2 --gbsa toluene --ohess vtight --parallel 40 --molden --ceasefiles --namespace data2507/toluene/mCP-BP-DMAC/mCP-BP-DMAC_toluene_S0_finalOpt
      * Solvation model:               GBSA
        Solvent                        toluene
        Solvent mass                       9.2140E+01 g/mol
          :  Hamiltonian                  GFN2-xTB          :
 * total energy  :  -137.7840905 Eh     change       -0.4937959E-08 Eh
 * total energy  :  -137.7841780 Eh     change       -0.8752443E-04 Eh
 * total energy  :  -137.7842032 Eh     change       -0.2525759E-04 Eh
 * total energy  :  -137.7842100 Eh     change       -0.6748004E-05 Eh
 * total energy  :  -137.7842171 Eh     change       -0.7109556E-05 Eh
 * total energy  :  -137.7842232 Eh     change       -0.6154600E-05 Eh
 * total energy  :  -137.7842274 Eh     change       -0.4158696E-05 Eh
 * total energy  :  -137.7842316 Eh     change       -0.4161474E-05 Eh
 * total energy  :  -137.7842354 Eh     change       -0.3806667E-05 Eh
 * total energy  :  -137.7842386 Eh     change       -0.3234658E-05 Eh
 * total energy  :  -137.7842627 Eh     change       -0.4279190E-06 Eh
 * total energy  :  -137.7842631 Eh     change       -0.4213695E-06 Eh
 * total energy  :  -137.7842636 Eh     change       -0.4812076E-06 Eh
 * total energy  :  -137.7842641 Eh     change       -0.5774224E-06 Eh
 * total energy  :  -137.7842648 Eh     change       -0.6706512E-06 Eh
 * total energy  :  -137.7842656 Eh     change       -0.7397867E-06 Eh
 * total energy  :  -137.7842663 Eh     change       -0.7926754E-06 Eh
 * total energy  :  -137.7842672 Eh     change       -0.8290694E-06 Eh
 * total energy  :  -137.7842672 Eh     change       -0.4926534E-08 Eh
   *** GEOMETRY OPTIMIZATION CONVERGED AFTER 44 ITERATIONS ***

 final structure:
================
85
 xtb: 6.7.1 (edcfbbe)
O           -2.58009601039268        4.31056644308227        0.26152229702964
C           -2.42071080323399        3.11486242372329        0.04602370434155
C           -3.56950619252708        2.17550340396753        0.10031758654960
C           -3.44142143717425        0.88256042051075        0.60765102407721
C           -4.53950031709624        0.04866626667190        0.67625325738100
C           -5.78478317655063        0.48895701506310        0.23267416432078
N           -6.90257231020088       -0.37015641346002        0.28996109427433
C           -7.99854542252577       -0.05557780442103        1.09821016991483
C           -8.01047646901960        1.05531028828108        1.93320953654896
C           -9.11153375630677        1.33546374805638        2.72847080918690
C          -10.21408845129707        0.50507266955210        2.71248115313868
C          -10.20613136104334       -0.62487319021393        1.90725833801017
C           -9.10997863537376       -0.90884020918650        1.11392315830765
O           -9.16473289690063       -2.06352138382188        0.36790512476388
C           -8.06950900087725       -2.36831992994770       -0.40694295192219
C           -8.13575970514117       -3.53235017019495       -1.15021062820503
C           -7.08523502500309       -3.89366188545118       -1.98147311366119
C           -5.97898273665514       -3.07331311786126       -2.07292665438519
C           -5.90759293454970       -1.90581660621526       -1.32781670640538
C           -6.93841060424879       -1.54318778498739       -0.46915473141659
C           -5.92109438645982        1.78534133261961       -0.25997369832379
C           -4.82493945067021        2.62117231358387       -0.31187546590724
C           -1.09724872135267        2.54931585062742       -0.26993813916346
C            0.04210262500211        3.22689658197061        0.19813968230787
C            1.31612519746410        2.77553797290542       -0.05964584658587
C            1.45443345969741        1.62619336131930       -0.83162622004351
C            0.31674783046111        0.93324442310414       -1.31891172156086
C           -0.95679104770150        1.39735369240349       -1.04094423067952
C            0.81397490048832       -0.20931384068629       -2.03624523016799
C            0.20002784527803       -1.24272661913478       -2.73249874686569
C            0.99669563912799       -2.20104424850168       -3.32753880274421
C            2.38605554723084       -2.13223205069649       -3.24406726585153
C            3.01902728060593       -1.11426844351486       -2.55553649838209
C            2.22289571359041       -0.15981016395858       -1.93933774004932
N            2.59099984980582        0.95823960299471       -1.21142990613277
C            3.90846537881839        1.34810840969449       -0.91373514319958
C            4.34554268977157        2.63186460381549       -1.22585955480480
C            5.64392696531051        3.00423884315715       -0.92556263327916
C            6.51014661599634        2.11314750294219       -0.31866020251220
C            6.07720206542598        0.82559963391590       -0.00998876499921
N            6.94273190702878       -0.08244140072528        0.61368464765423
C            6.66522067734245       -0.80813962723235        1.75706411776323
C            5.53317546944876       -0.79696799024891        2.55971743334894
C            5.52626146196456       -1.60930944461782        3.67798833706766
C            6.61917104618770       -2.41034050312636        4.00258157185389
C            7.75751155176846       -2.40783787820383        3.22093201967027
C            7.78821628989084       -1.59938116873748        2.09169055466826
C            8.78647412184061       -1.33608185723483        1.09243607177367
C           10.07148184967297       -1.81713729480308        0.87567431319752
C           10.77303610142448       -1.35973223710804       -0.22227034068617
C           10.20286056425153       -0.44648173795711       -1.10701719752962
C            8.92608802655201        0.04598045500955       -0.91274823431680
C            8.22567801139737       -0.39106107754178        0.20276409702252
C            4.77395395183233        0.44396529475919       -0.31081222821226
H           -2.48616608852181        0.54119200324701        0.97690714998628
H           -4.44223041105340       -0.94787511197904        1.08096190865215
H           -7.14990121795738        1.70472347752003        1.96767582288033
H           -9.09391067633074        2.20863800100156        3.36253025569492
H          -11.07517854967973        0.71984923981538        3.32552048283104
H          -11.04303078336770       -1.30516140064914        1.88399561849966
H           -9.02331376468330       -4.14005501106679       -1.06818465468146
H           -7.14564058709485       -4.80460371512205       -2.55587471227818
H           -5.16138175450127       -3.33121953890215       -2.72841992310914
H           -5.04470372803280       -1.26587583243963       -1.42146989179311
H           -6.88727931539713        2.12833417322813       -0.59903875803621
H           -4.91930379757687        3.62858767134709       -0.69009437126394
H           -0.11198059414244        4.11849874700681        0.78831431173315
H            2.17752339792395        3.29476008666439        0.33115049577920
H           -1.82159923980729        0.88813245312379       -1.43693409283296
H           -0.87581561226387       -1.28882089281287       -2.80788891409317
H            0.54072368185261       -3.01382017017700       -3.87309771662304
H            2.98245718137868       -2.88993368314059       -3.73053947563829
H            4.09602066585869       -1.06274865679281       -2.50760622676125
H            3.67272520032098        3.32336424500165       -1.70915265860299
H            5.98289376797614        4.00077584510858       -1.16473444575659
H            7.51593571083628        2.41183855915748       -0.06673751599648
H            4.68699071849439       -0.16708571796283        2.33004552767109
H            4.65502185075120       -1.62006666095372        4.31677040972072
H            6.57431877989520       -3.03282439440339        4.88424199934695
H            8.61093434899985       -3.01577564311995        3.48174919274238
H           10.50732181628955       -2.53733163628323        1.55194342078022
H           11.77474452901741       -1.71929479964844       -0.40701085032748
H           10.77037358732551       -0.11869899796397       -1.96591090984351
H            8.48831805881783        0.74070604425221       -1.61359591154586
H            4.43487392458756       -0.55313033698089       -0.07449861601941

          :  Hamiltonian                  GFN2-xTB          :
         :: gradient norm              0.000055939518 Eh/a0 ::
         :: HOMO-LUMO gap              1.540728563581 eV    ::
         :: SCC energy              -140.256708574565 Eh    ::
         :: -> dispersion             -0.119402794383 Eh    ::
         :: -> Gsolv                  -0.059849277454 Eh    ::
         :: repulsion energy           2.472441395660 Eh    ::

    * Orbital Energies and Occupations

         #    Occupation            Energy/Eh            Energy/eV
      -------------------------------------------------------------
         1        2.0000           -0.7307960             -19.8860
       ...           ...                  ...                  ...
       115        2.0000           -0.4185779             -11.3901
       116        2.0000           -0.4182681             -11.3817
       117        2.0000           -0.4171278             -11.3506
       118        2.0000           -0.4154417             -11.3047
       119        2.0000           -0.4141053             -11.2684
       120        2.0000           -0.4071191             -11.0783
       121        2.0000           -0.3932398             -10.7006
       122        2.0000           -0.3919402             -10.6652
       123        2.0000           -0.3895171             -10.5993
       124        2.0000           -0.3805129             -10.3543
       125        2.0000           -0.3748275             -10.1996
       126        2.0000           -0.3659322              -9.9575
       127        2.0000           -0.3454240              -9.3995 (HOMO)
       128                         -0.2888032              -7.8587 (LUMO)
       129                         -0.2561667              -6.9707
       130                         -0.2496485              -6.7933
       131                         -0.2451688              -6.6714
       132                         -0.2415515              -6.5729
       133                         -0.2414465              -6.5701
       134                         -0.2396987              -6.5225
       135                         -0.2393182              -6.5122
       136                         -0.2311502              -6.2899
       137                         -0.2238756              -6.0920
       138                         -0.2189875              -5.9590
       ...                                ...                  ...
       247                          0.7423265              20.1997
      -------------------------------------------------------------
                  HL-Gap            0.0566207 Eh            1.5407 eV

     #   Z          covCN         q      C6AA      α(0)
     1   8 O        0.858    -0.434    22.368     6.341
     2   6 C        2.830     0.224    23.288     7.908
     3   6 C        2.971    -0.015    28.372     8.737
     4   6 C        2.920    -0.026    28.644     8.777
     5   6 C        2.920    -0.039    28.972     8.827
     6   6 C        2.921     0.071    26.415     8.428
     7   7 N        2.751    -0.071    22.621     7.064
     8   6 C        2.921     0.042    27.053     8.529
     9   6 C        2.924    -0.060    29.497     8.907
    10   6 C        2.919    -0.039    28.964     8.825
    11   6 C        2.919    -0.041    29.014     8.833
    12   6 C        2.919    -0.058    29.439     8.898
    13   6 C        2.882     0.122    25.309     8.248
    14   8 O        1.708    -0.272    18.508     5.809
    15   6 C        2.882     0.123    25.306     8.247
    16   6 C        2.919    -0.058    29.435     8.897
    17   6 C        2.919    -0.041    29.018     8.834
    18   6 C        2.919    -0.039    28.967     8.826
    19   6 C        2.924    -0.061    29.509     8.908
    20   6 C        2.921     0.042    27.054     8.530
    21   6 C        2.919    -0.039    28.959     8.825
    22   6 C        2.924    -0.017    28.441     8.746
    23   6 C        2.972    -0.027    28.677     8.784
    24   6 C        2.929    -0.023    28.570     8.766
    25   6 C        2.907    -0.049    29.209     8.862
    26   6 C        3.076     0.053    26.728     8.476
    27   6 C        3.066    -0.014    28.297     8.723
    28   6 C        2.914    -0.030    28.748     8.792
    29   6 C        3.066    -0.016    28.331     8.728
    30   6 C        2.912    -0.032    28.797     8.799
    31   6 C        2.920    -0.039    28.962     8.825
    32   6 C        2.924    -0.031    28.786     8.799
    33   6 C        2.909    -0.048    29.199     8.861
    34   6 C        3.078     0.047    26.870     8.499
    35   7 N        2.803    -0.031    21.848     6.942
    36   6 C        2.913     0.064    26.563     8.451
    37   6 C        2.921    -0.045    29.129     8.851
    38   6 C        2.919    -0.025    28.631     8.775
    39   6 C        2.921    -0.045    29.115     8.849
    40   6 C        2.912     0.068    26.480     8.438
    41   7 N        2.802    -0.044    22.080     6.979
    42   6 C        3.073     0.046    26.884     8.501
    43   6 C        2.910    -0.052    29.289     8.874
    44   6 C        2.924    -0.034    28.859     8.810
    45   6 C        2.920    -0.042    29.040     8.837
    46   6 C        2.912    -0.034    28.853     8.808
    47   6 C        3.067    -0.018    28.378     8.735
    48   6 C        3.067    -0.018    28.380     8.735
    49   6 C        2.912    -0.034    28.853     8.808
    50   6 C        2.920    -0.042    29.041     8.837
    51   6 C        2.924    -0.034    28.858     8.810
    52   6 C        2.910    -0.052    29.291     8.875
    53   6 C        3.073     0.047    26.881     8.501
    54   6 C        2.925    -0.056    29.393     8.891
    55   1 H        0.926     0.052     2.299     2.371
    56   1 H        0.926     0.053     2.283     2.363
    57   1 H        0.926     0.039     2.465     2.455
    58   1 H        0.926     0.041     2.434     2.440
    59   1 H        0.926     0.042     2.419     2.432
    60   1 H        0.926     0.048     2.344     2.394
    61   1 H        0.926     0.048     2.348     2.396
    62   1 H        0.926     0.042     2.417     2.431
    63   1 H        0.926     0.042     2.419     2.432
    64   1 H        0.926     0.040     2.454     2.450
    65   1 H        0.926     0.050     2.314     2.379
    66   1 H        0.926     0.051     2.312     2.378
    67   1 H        0.926     0.045     2.383     2.414
    68   1 H        0.926     0.043     2.405     2.425
    69   1 H        0.926     0.044     2.391     2.418
    70   1 H        0.926     0.037     2.490     2.468
    71   1 H        0.926     0.035     2.516     2.480
    72   1 H        0.926     0.037     2.494     2.469
    73   1 H        0.926     0.036     2.507     2.476
    74   1 H        0.926     0.050     2.316     2.380
    75   1 H        0.926     0.052     2.299     2.371
    76   1 H        0.926     0.051     2.304     2.374
    77   1 H        0.926     0.030     2.589     2.516
    78   1 H        0.926     0.031     2.579     2.511
    79   1 H        0.926     0.029     2.607     2.525
    80   1 H        0.926     0.031     2.568     2.506
    81   1 H        0.926     0.031     2.572     2.508
    82   1 H        0.926     0.029     2.607     2.525
    83   1 H        0.926     0.031     2.570     2.507
    84   1 H        0.926     0.032     2.563     2.504
    85   1 H        0.926     0.053     2.278     2.360

molecular dipole:
                 x           y           z       tot (Debye)
 q only:        1.677      -0.924      -0.642
   full:        1.698      -0.874      -0.639       5.118

 projected vibrational frequencies (cm⁻¹)
eigval :       -0.00    -0.00     0.00     0.00     0.00     0.00
eigval :        6.28    10.52    11.32    16.54    19.40    27.73
eigval :       35.71    41.81    52.78    53.39    59.69    66.00
eigval :       79.86    89.63    97.98   112.85   116.93   120.45
eigval :      130.99   142.62   154.55   162.23   181.27   200.07
eigval :      214.43   224.40   235.17   239.36   248.55   262.96
eigval :      271.35   273.57   275.28   285.15   288.33   294.15
eigval :      318.98   350.63   363.41   377.88   381.38   384.02
eigval :      395.75   399.46   415.94   417.16   417.91   423.10
eigval :      427.43   430.11   435.91   440.33   445.10   458.61
eigval :      471.96   509.05   510.45   517.12   521.36   523.76
eigval :      535.52   537.82   541.06   543.38   557.50   575.26
eigval :      584.27   587.50   591.37   598.70   603.20   607.70
eigval :      615.87   638.31   643.79   658.84   660.81   662.85
eigval :      667.49   672.74   676.15   688.29   692.36   708.51
eigval :      711.85   719.79   730.77   749.48   761.47   767.47
eigval :      776.27   777.58   779.16   779.56   793.51   803.69
eigval :      815.76   823.79   831.74   853.13   863.37   865.33
eigval :      866.37   869.81   872.39   873.18   884.95   887.36
eigval :      893.31   896.16   897.25   897.65   899.22   903.93
eigval :      905.32   907.20   908.90   913.97   914.78   915.45
eigval :      916.33   919.34   920.92   923.46   925.20   925.59
eigval :      932.99   934.66   964.88   997.05  1008.16  1014.79
eigval :     1018.81  1029.02  1068.86  1069.28  1072.96  1088.54
eigval :     1090.73  1105.62  1110.74  1117.22  1118.28  1124.80
eigval :     1131.79  1146.90  1150.44  1162.32  1165.56  1168.88
eigval :     1173.27  1176.03  1176.82  1179.87  1180.87  1184.97
eigval :     1186.63  1196.62  1197.72  1215.05  1227.87  1231.21
eigval :     1234.64  1241.06  1246.76  1249.90  1251.14  1259.71
eigval :     1260.87  1283.37  1297.81  1300.33  1304.29  1304.91
eigval :     1306.93  1313.33  1314.97  1333.26  1344.14  1352.56
eigval :     1352.86  1355.44  1358.04  1361.50  1371.63  1400.58
eigval :     1416.13  1420.54  1422.07  1425.66  1427.75  1440.95
eigval :     1456.85  1469.57  1471.98  1472.86  1476.31  1480.17
eigval :     1482.82  1486.35  1502.62  1554.10  1557.85  1566.17
eigval :     1569.27  1574.49  1575.73  1576.78  1579.13  1582.46
eigval :     1587.11  1587.69  1588.33  1597.48  1602.03  1606.95
eigval :     1612.67  1639.79  3071.63  3071.91  3076.80  3077.13
eigval :     3077.91  3082.31  3083.10  3084.29  3084.64  3084.73
eigval :     3085.45  3087.27  3087.72  3087.90  3089.68  3091.29
eigval :     3093.16  3093.52  3094.87  3095.57  3095.67  3096.15
eigval :     3096.39  3097.86  3100.45  3100.92  3103.91  3105.75
eigval :     3105.96  3108.73  3110.33

   temp. (K)  partition function   enthalpy   heat capacity  entropy
                                   cal/mol     cal/K/mol   cal/K/mol   J/K/mol
 298.15  VIB  0.297E+20            24361.859    155.805    151.549
         ROT  0.155E+09              888.752      2.981     40.464
         INT  0.462E+28            25250.611    158.785    192.013
         TR   0.177E+29             1481.254      4.968     45.471
         TOT                       26731.8650   163.7536   237.4837   993.6318

       T/K    H(0)-H(T)+PV         H(T)/Eh          T*S/Eh         G(T)/Eh
   ------------------------------------------------------------------------
    298.15    0.425999E-01    0.685693E+00    0.112836E+00    0.572856E+00
   ------------------------------------------------------------------------

         :::::::::::::::::::::::::::::::::::::::::::::::::::::
         ::                  THERMODYNAMIC                  ::
         :::::::::::::::::::::::::::::::::::::::::::::::::::::
         :: total free energy        -137.211410692841 Eh   ::
         ::.................................................::
         :: total energy             -137.784267185013 Eh   ::
         :: zero point energy           0.643092718565 Eh   ::
         :: G(RRHO) w/o ZPVE           -0.070236226394 Eh   ::
         :: G(RRHO) contrib.            0.572856492171 Eh   ::
         :::::::::::::::::::::::::::::::::::::::::::::::::::::

           -------------------------------------------------
          | TOTAL ENERGY             -137.784267185013 Eh   |
          | TOTAL ENTHALPY           -137.098574528035 Eh   |
          | TOTAL FREE ENERGY        -137.211410692841 Eh   |
          | GRADIENT NORM               0.000055932946 Eh/α |
          | HOMO-LUMO GAP               1.540728029860 eV   |
           -------------------------------------------------

 * finished run on 2025/08/21 at 18:09:00.981
