   * xtb version 6.7.1 (edcfbbe) compiled by 'albert@albert-system' on 2024-07-22

   ID    Z sym.   atoms
    1    8 O      1, 14
    2    6 C      2-6, 8-13, 15-34, 36-40, 42-54
    3    7 N      7, 35, 41
    4    1 H      55-85

          program call               : xtb data2507/toluene/mCP-BP-DMAC/mCP-BP-DMAC_toluene_S0_finalOpt.xtbopt.xyz --gfn 2 --uhf 2 --gbsa toluene --ohess vtight --parallel 40 --molden --ceasefiles --namespace data2507/toluene/mCP-BP-DMAC/mCP-BP-DMAC_toluene_T1_preOpt
      * Solvation model:               GBSA
        Solvent                        toluene
        Solvent mass                       9.2140E+01 g/mol
          :  Hamiltonian                  GFN2-xTB          :
 * total energy  :  -137.6975605 Eh     change       -0.7243557E-09 Eh
 * total energy  :  -137.7015332 Eh     change       -0.3972713E-02 Eh
 * total energy  :  -137.7026823 Eh     change       -0.1149164E-02 Eh
 * total energy  :  -137.7028654 Eh     change       -0.1830445E-03 Eh
 * total energy  :  -137.7030670 Eh     change       -0.2016493E-03 Eh
 * total energy  :  -137.7032198 Eh     change       -0.1528050E-03 Eh
 * total energy  :  -137.7033519 Eh     change       -0.1321101E-03 Eh
 * total energy  :  -137.7034311 Eh     change       -0.7913064E-04 Eh
 * total energy  :  -137.7034754 Eh     change       -0.4437199E-04 Eh
 * total energy  :  -137.7035200 Eh     change       -0.4451622E-04 Eh
 * total energy  :  -137.7042950 Eh     change       -0.5870718E-06 Eh
 * total energy  :  -137.7042955 Eh     change       -0.5309849E-06 Eh
 * total energy  :  -137.7042960 Eh     change       -0.4651611E-06 Eh
 * total energy  :  -137.7042965 Eh     change       -0.5564390E-06 Eh
 * total energy  :  -137.7042972 Eh     change       -0.7329146E-06 Eh
 * total energy  :  -137.7042981 Eh     change       -0.8101554E-06 Eh
 * total energy  :  -137.7042991 Eh     change       -0.1017520E-05 Eh
 * total energy  :  -137.7043000 Eh     change       -0.9727210E-06 Eh
 * total energy  :  -137.7043001 Eh     change       -0.6101033E-08 Eh
   *** GEOMETRY OPTIMIZATION CONVERGED AFTER 94 ITERATIONS ***

 final structure:
================
85
 xtb: 6.7.1 (edcfbbe)
O           -2.61617632539434        4.20322336521653       -0.22707862380662
C           -2.47871577343692        2.93590479262699       -0.26381999857014
C           -3.61771037463129        2.07051667167498       -0.13314707223434
C           -3.53580614317487        0.71298182938739        0.25980279104410
C           -4.66219142194771       -0.05610730082924        0.38721928904354
C           -5.92971614598097        0.49399346046977        0.14934437420340
N           -7.08599390461223       -0.31478929638814        0.26559995396417
C           -8.01655202129066       -0.07081139023249        1.25951670272696
C           -7.84537216576996        0.94118729555046        2.20747063023663
C           -8.80292139005110        1.16179374787072        3.17744211604264
C           -9.94619271184123        0.37570257807362        3.23425780154130
C          -10.12297919793249       -0.65023796059877        2.32286932377047
C           -9.16709389677204       -0.88081595128370        1.34492894938739
O           -9.38170934092379       -1.92069937402139        0.49085453108935
C           -8.44938239758955       -2.16211368282515       -0.47321388248090
C           -8.68121317210310       -3.22497801930431       -1.33373612258341
C           -7.78327310953672       -3.50085925883228       -2.34950397231931
C           -6.65941834083863       -2.70216671873481       -2.51453193482532
C           -6.41869352732114       -1.64270985077114       -1.66255365102093
C           -7.29780739553977       -1.36187158911167       -0.61370241326307
C           -6.03909687942989        1.85288751090632       -0.18196680863592
C           -4.91475790621535        2.62081948076630       -0.30483143316507
C           -1.13595690583607        2.37807993405307       -0.45024740942366
C           -0.03038877170576        3.11082194545035        0.02781098167943
C            1.26592350993917        2.68294036757906       -0.14205210023254
C            1.47727968135606        1.49909669612415       -0.84262430253599
C            0.38400595649802        0.75298489158001       -1.34371202747652
C           -0.91339977912050        1.19694832492419       -1.16786353697708
C            0.94403049658269       -0.40694570538876       -1.98730343001633
C            0.38757936707583       -1.48161906296191       -2.66474951918221
C            1.23187280768425       -2.43989894405967       -3.19605517948106
C            2.61371611018072       -2.32343666087582       -3.07136630317302
C            3.19097462916400       -1.26153810175765       -2.39903386615411
C            2.34752424164590       -0.31213427199238       -1.83821463597849
N            2.65623711613514        0.84224695089118       -1.14368892782201
C            3.94580496231759        1.28840298145794       -0.83210175327481
C            4.32949335702303        2.59556768080209       -1.12683654177038
C            5.60800900760433        3.02233136312910       -0.81809178735614
C            6.51563844046978        2.16291287630218       -0.22488830448568
C            6.14012934541694        0.85230939845279        0.06230013352543
N            7.05219682038116       -0.02809288682517        0.66114265897495
C            6.82105207185164       -0.79280492862955        1.78829759563825
C            5.69831891235482       -0.85347985434589        2.60223977738239
C            5.74064282912801       -1.69374837850088        3.69902114198870
C            6.87229092369705       -2.45201649628280        3.99180027331767
C            8.00095893683271       -2.37829336307308        3.19877631625315
C            7.98224592762378       -1.54151742716462        2.09065362772926
C            8.95519662271793       -1.21053846799945        1.08600187921128
C           10.25684218756679       -1.62848971595562        0.84172755845004
C           10.92250576533544       -1.11431053939274       -0.25412613112757
C           10.30022354957526       -0.20791427908138       -1.11017950230390
C            9.00541721960211        0.22213028804874       -0.88833626276403
C            8.34079563659547       -0.27087727238902        0.22615293633035
C            4.85476410736336        0.41788816930551       -0.23874413324602
H           -2.57376995229107        0.28734891947748        0.50128917070793
H           -4.58544317563066       -1.08836903534061        0.69913031808648
H           -6.95303055171498        1.54521901535352        2.17495153654985
H           -8.65275127949339        1.95121106343328        3.89708659061796
H          -10.69250099225161        0.55359978430264        3.99176675565272
H          -10.99072874527513       -1.28949962062185        2.35167194855647
H           -9.57225019034902       -3.81475532052972       -1.19021586871984
H           -7.96592212144607       -4.32845608802654       -3.01596415266685
H           -5.96673826832302       -2.90292119705796       -3.31665273075641
H           -5.55216342479153       -1.01677263407948       -1.80123089509077
H           -7.01683117470539        2.27879054697158       -0.35720476608159
H           -4.97923108309453        3.66813475538851       -0.56267217637720
H           -0.23489263269198        4.02987654041198        0.55832476124208
H            2.08837531975454        3.24830508056138        0.26978109885814
H           -1.73851385919619        0.65488863651486       -1.60314556319477
H           -0.68330672432175       -1.56099215977297       -2.77679116780324
H            0.81783397025441       -3.28569873492517       -3.72475754453207
H            3.25044989174337       -3.07616582029981       -3.51254802101268
H            4.26423977850718       -1.17159756951256       -2.32833054184884
H            3.62998882314283        3.26042270451519       -1.60945392849662
H            5.90105204891705        4.03653600892160       -1.04379091859690
H            7.50691860957772        2.50325527914998        0.03148405182808
H            4.82197170481454       -0.25751735811295        2.39645211809060
H            4.87764799259635       -1.76042848739254        4.34542930588418
H            6.86560326455533       -3.09818070102638        4.85730035750413
H            8.88330020881126       -2.95404136831955        3.43476670542294
H           10.73406098072418       -2.34328704060964        1.49525156432879
H           11.93671277415945       -1.42392458412230       -0.45956847343740
H           10.84046426084760        0.16459030591621       -1.96830291912965
H            8.52640131398488        0.91141018841129       -1.56712761974644
H            4.56019308214428       -0.59459410766103       -0.00909096842960

          :  Hamiltonian                  GFN2-xTB          :
         :: gradient norm              0.000057368347 Eh/a0 ::
         :: HOMO-LUMO gap              0.299779825436 eV    ::
         :: SCC energy              -140.161177099423 Eh    ::
         :: -> dispersion             -0.119340572098 Eh    ::
         :: -> Gsolv                  -0.070013609337 Eh    ::
         :: repulsion energy           2.456877045586 Eh    ::

    * Orbital Energies and Occupations

         #    Occupation            Energy/Eh            Energy/eV
      -------------------------------------------------------------
         1        2.0000           -0.7603366             -20.6898
       ...           ...                  ...                  ...
       116        2.0000           -0.4151069             -11.2956
       117        2.0000           -0.4114314             -11.1956
       118        2.0000           -0.4077294             -11.0949
       119        2.0000           -0.4056956             -11.0395
       120        2.0000           -0.4036868             -10.9849
       121        2.0000           -0.3964882             -10.7890
       122        2.0000           -0.3812186             -10.3735
       123        2.0000           -0.3798392             -10.3359
       124        1.9850           -0.3670326              -9.9875
       125        1.9628           -0.3661499              -9.9634
       126        1.7695           -0.3642050              -9.9105
       127        1.2828           -0.3621755              -9.8553
       128        0.9970           -0.2737566              -7.4493 (HOMO)
       129        0.0030           -0.2627405              -7.1495 (LUMO)
       130                         -0.2497616              -6.7964
       131                         -0.2493273              -6.7845
       132                         -0.2473380              -6.7304
       133                         -0.2401143              -6.5338
       134                         -0.2395908              -6.5196
       135                         -0.2359082              -6.4194
       136                         -0.2266957              -6.1687
       137                         -0.2246451              -6.1129
       138                         -0.2191238              -5.9627
       139                         -0.2169200              -5.9027
       ...                                ...                  ...
       247                          0.7419551              20.1896
      -------------------------------------------------------------
                  HL-Gap            0.0110161 Eh            0.2998 eV

     #   Z          covCN         q      C6AA      α(0)
     1   8 O        0.858    -0.526    24.361     6.617
     2   6 C        2.833     0.161    24.514     8.113
     3   6 C        2.966    -0.025    28.613     8.774
     4   6 C        2.917    -0.046    29.150     8.854
     5   6 C        2.914    -0.043    29.066     8.841
     6   6 C        2.923     0.023    27.497     8.599
     7   7 N        2.751    -0.006    21.372     6.866
     8   6 C        2.926     0.047    26.948     8.513
     9   6 C        2.920    -0.047    29.158     8.855
    10   6 C        2.917    -0.027    28.682     8.782
    11   6 C        2.919    -0.026    28.660     8.779
    12   6 C        2.916    -0.050    29.253     8.869
    13   6 C        2.886     0.133    25.098     8.213
    14   8 O        1.710    -0.216    17.593     5.663
    15   6 C        2.886     0.133    25.098     8.213
    16   6 C        2.916    -0.050    29.250     8.869
    17   6 C        2.919    -0.026    28.663     8.779
    18   6 C        2.917    -0.027    28.683     8.782
    19   6 C        2.920    -0.047    29.163     8.856
    20   6 C        2.927     0.047    26.952     8.514
    21   6 C        2.912    -0.043    29.071     8.841
    22   6 C        2.923    -0.034    28.854     8.809
    23   6 C        2.969    -0.018    28.453     8.749
    24   6 C        2.928    -0.031    28.783     8.798
    25   6 C        2.907    -0.051    29.267     8.871
    26   6 C        3.070     0.040    27.027     8.524
    27   6 C        3.060    -0.016    28.357     8.733
    28   6 C        2.914    -0.045    29.106     8.847
    29   6 C        3.065    -0.016    28.335     8.729
    30   6 C        2.912    -0.033    28.824     8.804
    31   6 C        2.920    -0.040    28.991     8.830
    32   6 C        2.923    -0.034    28.850     8.808
    33   6 C        2.910    -0.050    29.230     8.865
    34   6 C        3.070     0.047    26.880     8.501
    35   7 N        2.801    -0.035    21.919     6.953
    36   6 C        2.912     0.066    26.520     8.444
    37   6 C        2.921    -0.045    29.126     8.850
    38   6 C        2.919    -0.026    28.649     8.777
    39   6 C        2.921    -0.046    29.146     8.853
    40   6 C        2.912     0.067    26.506     8.442
    41   7 N        2.802    -0.040    22.016     6.969
    42   6 C        3.073     0.047    26.874     8.500
    43   6 C        2.909    -0.050    29.253     8.869
    44   6 C        2.924    -0.034    28.845     8.808
    45   6 C        2.920    -0.041    29.012     8.833
    46   6 C        2.912    -0.034    28.837     8.806
    47   6 C        3.067    -0.017    28.360     8.732
    48   6 C        3.066    -0.017    28.361     8.733
    49   6 C        2.912    -0.034    28.836     8.806
    50   6 C        2.920    -0.041    29.014     8.833
    51   6 C        2.924    -0.034    28.846     8.808
    52   6 C        2.909    -0.051    29.259     8.870
    53   6 C        3.074     0.047    26.873     8.500
    54   6 C        2.925    -0.057    29.428     8.896
    55   1 H        0.926     0.033     2.549     2.497
    56   1 H        0.926     0.034     2.529     2.487
    57   1 H        0.926     0.059     2.208     2.324
    58   1 H        0.926     0.059     2.206     2.323
    59   1 H        0.926     0.063     2.163     2.300
    60   1 H        0.926     0.069     2.096     2.264
    61   1 H        0.926     0.069     2.098     2.265
    62   1 H        0.926     0.063     2.162     2.299
    63   1 H        0.926     0.060     2.197     2.318
    64   1 H        0.926     0.060     2.202     2.321
    65   1 H        0.926     0.033     2.545     2.495
    66   1 H        0.926     0.030     2.587     2.515
    67   1 H        0.926     0.029     2.602     2.522
    68   1 H        0.926     0.032     2.559     2.502
    69   1 H        0.926     0.033     2.539     2.492
    70   1 H        0.926     0.034     2.525     2.485
    71   1 H        0.926     0.034     2.536     2.490
    72   1 H        0.926     0.035     2.519     2.482
    73   1 H        0.926     0.034     2.533     2.489
    74   1 H        0.926     0.048     2.343     2.394
    75   1 H        0.926     0.050     2.319     2.381
    76   1 H        0.926     0.051     2.311     2.377
    77   1 H        0.926     0.030     2.583     2.513
    78   1 H        0.926     0.032     2.563     2.503
    79   1 H        0.926     0.031     2.578     2.511
    80   1 H        0.926     0.033     2.538     2.491
    81   1 H        0.926     0.033     2.543     2.494
    82   1 H        0.926     0.031     2.578     2.511
    83   1 H        0.926     0.033     2.549     2.497
    84   1 H        0.926     0.033     2.549     2.497
    85   1 H        0.926     0.053     2.287     2.365

molecular dipole:
                 x           y           z       tot (Debye)
 q only:       -2.020      -3.648       0.177
   full:       -1.960      -3.513       0.183      10.235

 projected vibrational frequencies (cm⁻¹)
eigval :       -0.00    -0.00    -0.00     0.00     0.00     0.00
eigval :        6.30     8.57    12.80    15.98    22.66    28.34
eigval :       38.53    41.26    53.16    57.51    65.29    67.83
eigval :       81.97    93.87   101.39   113.53   117.21   124.80
eigval :      130.77   140.51   152.90   161.45   181.43   200.78
eigval :      223.58   228.27   235.61   240.47   241.87   260.17
eigval :      270.52   272.14   280.21   283.99   286.95   305.34
eigval :      315.46   345.55   356.16   375.16   380.72   385.04
eigval :      393.46   397.39   401.29   413.01   416.60   422.84
eigval :      426.89   432.80   435.22   439.25   444.24   459.58
eigval :      473.29   493.31   494.04   511.12   514.61   519.60
eigval :      532.49   534.75   539.21   540.07   544.33   566.48
eigval :      580.50   582.18   588.04   593.86   600.77   604.31
eigval :      607.68   616.73   629.71   638.69   651.76   663.67
eigval :      669.88   671.96   674.82   675.35   676.08   687.57
eigval :      704.28   708.02   712.81   748.16   760.24   768.26
eigval :      772.21   775.88   778.83   779.96   790.40   794.37
eigval :      800.17   808.97   817.69   835.64   855.78   865.16
eigval :      868.01   869.01   870.48   871.42   874.58   879.91
eigval :      892.58   894.74   896.85   898.22   902.37   902.93
eigval :      905.29   905.40   905.93   906.72   908.01   909.50
eigval :      911.25   918.95   919.73   920.19   921.20   923.10
eigval :      924.15   930.54   947.49   992.32   995.21  1007.41
eigval :     1013.60  1024.20  1067.88  1070.26  1072.11  1079.53
eigval :     1080.84  1109.85  1113.47  1116.15  1117.81  1124.33
eigval :     1126.67  1143.36  1148.63  1154.53  1160.27  1164.18
eigval :     1167.52  1169.54  1175.39  1176.26  1178.77  1184.85
eigval :     1187.47  1196.30  1207.28  1209.20  1227.69  1230.61
eigval :     1233.34  1233.66  1245.34  1248.47  1250.35  1253.32
eigval :     1254.87  1268.24  1293.98  1294.71  1297.92  1298.78
eigval :     1302.41  1316.66  1318.78  1328.84  1335.35  1342.09
eigval :     1344.41  1351.97  1354.82  1356.41  1368.09  1403.85
eigval :     1407.91  1410.67  1412.10  1417.79  1419.95  1423.26
eigval :     1424.13  1433.23  1437.75  1449.87  1452.78  1453.37
eigval :     1460.38  1467.82  1472.47  1475.72  1485.07  1526.46
eigval :     1542.21  1547.01  1548.34  1550.96  1560.53  1569.02
eigval :     1571.82  1572.92  1577.06  1582.86  1585.87  1593.21
eigval :     1595.49  1607.64  3065.54  3067.44  3073.31  3073.81
eigval :     3075.23  3075.38  3078.68  3079.37  3080.58  3081.60
eigval :     3085.80  3086.04  3086.38  3086.77  3087.62  3088.33
eigval :     3091.05  3092.51  3093.27  3094.96  3098.10  3098.79
eigval :     3100.11  3102.48  3105.54  3105.85  3106.97  3114.02
eigval :     3115.63  3116.97  3118.61

   temp. (K)  partition function   enthalpy   heat capacity  entropy
                                   cal/mol     cal/K/mol   cal/K/mol   J/K/mol
 298.15  VIB  0.224E+20            24471.246    157.262    151.860
         ROT  0.160E+09              888.752      2.981     40.519
         INT  0.357E+28            25359.998    160.243    192.379
         TR   0.177E+29             1481.254      4.968     45.471
         TOT                       26841.2520   165.2114   237.8503   995.1655

       T/K    H(0)-H(T)+PV         H(T)/Eh          T*S/Eh         G(T)/Eh
   ------------------------------------------------------------------------
    298.15    0.427743E-01    0.682651E+00    0.113010E+00    0.569641E+00
   ------------------------------------------------------------------------

         :::::::::::::::::::::::::::::::::::::::::::::::::::::
         ::                  THERMODYNAMIC                  ::
         :::::::::::::::::::::::::::::::::::::::::::::::::::::
         :: total free energy        -137.134659476909 Eh   ::
         ::.................................................::
         :: total energy             -137.704300051374 Eh   ::
         :: zero point energy           0.639876646535 Eh   ::
         :: G(RRHO) w/o ZPVE           -0.070236072069 Eh   ::
         :: G(RRHO) contrib.            0.569640574466 Eh   ::
         :::::::::::::::::::::::::::::::::::::::::::::::::::::

           -------------------------------------------------
          | TOTAL ENERGY             -137.704300051374 Eh   |
          | TOTAL ENTHALPY           -137.021649147017 Eh   |
          | TOTAL FREE ENERGY        -137.134659476909 Eh   |
          | GRADIENT NORM               0.000058405057 Eh/α |
          | HOMO-LUMO GAP               0.299764292837 eV   |
           -------------------------------------------------

 * finished run on 2025/08/21 at 18:09:15.783
