   * xtb version 6.7.1 (edcfbbe) compiled by 'albert@albert-system' on 2024-07-22

   ID    Z sym.   atoms
    1    6 C      1-40
    2    1 H      41-66

          program call               : xtb data2507/gas/diarylbiindole/diarylbiindole_gas_S0_crest.xyz --gfn 2 --ohess vtight --parallel 40 --molden --ceasefiles --namespace data2507/gas/diarylbiindole/diarylbiindole_gas_S0_finalOpt
          :  Hamiltonian                  GFN2-xTB          :
 * total energy  :   -98.9293004 Eh     change       -0.3528740E-08 Eh
 * total energy  :   -98.9293010 Eh     change       -0.6179396E-06 Eh
 * total energy  :   -98.9293016 Eh     change       -0.5508400E-06 Eh
 * total energy  :   -98.9293024 Eh     change       -0.8907006E-06 Eh
 * total energy  :   -98.9293026 Eh     change       -0.1627615E-06 Eh
 * total energy  :   -98.9293028 Eh     change       -0.1751634E-06 Eh
 * total energy  :   -98.9293030 Eh     change       -0.2134970E-06 Eh
 * total energy  :   -98.9293031 Eh     change       -0.7587047E-07 Eh
   *** GEOMETRY OPTIMIZATION CONVERGED AFTER 8 ITERATIONS ***

 final structure:
================
66
 xtb: 6.7.1 (edcfbbe)
C           -3.43841370236680       -4.00354727004216       -0.19938322521023
C           -3.47741400688769       -3.19727703194368        0.92517658384178
C           -2.72391839371979       -2.03946233803486        0.97561181120504
C           -1.91796525990090       -1.67633505418117       -0.09751522596141
C           -1.12411831553499       -0.42770611353701       -0.04635364823246
C           -1.79441873667555        0.79130532418057        0.04083841413007
C           -3.26825410454556        0.80496714860656        0.14053480389629
C           -4.05594933467949        0.28471360919587       -0.88072160220002
C           -5.43367357546726        0.27858324838340       -0.76700247400561
C           -6.04169245484382        0.78864277268356        0.36768234487879
C           -5.26511962156577        1.31297364326002        1.38711662791717
C           -3.88710926549716        1.32421728332355        1.27384567979395
C           -1.06917162738675        1.99093624174244       -0.01457335378079
C           -1.72559898733779        3.25605023036633       -0.08063161931792
C           -1.02817289118820        4.41057501175582       -0.17298998296722
C            0.39513228073095        4.40681778131943       -0.20731860736029
C            1.13586547089435        5.58426038664810       -0.32403784752802
C            2.51717943188785        5.54998908380800       -0.36911352987332
C            3.18966856420511        4.34497299562784       -0.29227786689034
C            2.48646799593791        3.14470968431941       -0.17520670749441
C            3.14387781950934        1.89467897071139       -0.03248711150945
C            2.46640969761020        0.71908593298663        0.07936031494496
C            3.26090837195863       -0.47943965539903        0.41043376377767
C            4.32675604819125       -0.87092910002084       -0.39238765064144
C            5.11186468437994       -1.95199805548773       -0.03797881616510
C            4.85550258656902       -2.64242722032827        1.13392681814552
C            3.81410079851641       -2.24145810728225        1.95341045214414
C            3.02260665813001       -1.16690064440824        1.59625556192767
C            1.02969664358564        0.70084765690020       -0.01894235858915
C            0.27263079566773       -0.48187905713176       -0.09753444982864
C            0.89287205138703       -1.80459652517727       -0.31251628753437
C            0.69007085990378       -2.85382216711233        0.57754222958308
C            1.22858273570035       -4.10035700849697        0.32382652668682
C            1.96538322841481       -4.31977723387277       -0.82734562612768
C            2.16143549492200       -3.28463415632119       -1.72487764031401
C            1.62821997807575       -2.03550123353246       -1.47054708364284
C            0.34753078023311        1.94823131621551       -0.05033717038791
C            1.07181832509855        3.16424445351932       -0.13837377538190
C           -1.88495661340725       -2.49084918392004       -1.22388279935108
C           -2.64134618394721       -3.64659909191693       -1.27362603730439
H           -4.02846735915200       -4.90738134417097       -0.23898119206183
H           -4.09796037697557       -3.47054481215240        1.76626460129247
H           -2.75257315286574       -1.41307954460183        1.85584876436672
H           -3.58341008757947       -0.10999202110713       -1.76818626524344
H           -6.03543916097030       -0.12754228610993       -1.56687730342193
H           -7.11800924425319        0.77885495314436        0.45707778121220
H           -5.73445574042153        1.71364579803885        2.27406661400321
H           -3.27886038819604        1.72735763948602        2.07178908583309
H           -2.80543915710964        3.27003248320637       -0.07300000641718
H           -1.53947682639519        5.36097264126859       -0.23195855838783
H            0.61381766094643        6.52866342375940       -0.38270983263676
H            3.07436215686141        6.47116562774912       -0.46123663212953
H            4.26967837321724        4.32095234920867       -0.31909826778252
H            4.22299807010171        1.89355466446786        0.04030317243350
H            4.52554592686400       -0.33347827511689       -1.30877922544987
H            5.92850317397438       -2.25558342411658       -0.67691669273517
H            5.46902480494436       -3.48689909750574        1.41113129874327
H            3.61857880630770       -2.76850043333087        2.87589522997338
H            2.21597703196046       -0.84753151672026        2.24061632800869
H            0.11909980769897       -2.68623287340412        1.47898581133894
H            1.07029544308298       -4.90539598758227        1.02641875695551
H            2.38370323378330       -5.29548048882741       -1.02583223406325
H            2.73057268404453       -3.45156204495746       -2.62787506915149
H            1.77318715123227       -1.22835696238218       -2.17515141473240
H           -1.26796243856873       -2.21099771858156       -2.06569344919649
H           -2.60893263429007       -4.27084709416870       -2.15473617722415

          :  Hamiltonian                  GFN2-xTB          :
         :: gradient norm              0.000031482569 Eh/a0 ::
         :: HOMO-LUMO gap              2.234900694460 eV    ::
         :: SCC energy              -100.893792563778 Eh    ::
         :: -> dispersion             -0.106457461913 Eh    ::
         :: repulsion energy           1.964489493223 Eh    ::

    * Orbital Energies and Occupations

         #    Occupation            Energy/Eh            Energy/eV
      -------------------------------------------------------------
         1        2.0000           -0.6557716             -17.8445
       ...           ...                  ...                  ...
        81        2.0000           -0.4090841             -11.1317
        82        2.0000           -0.4079811             -11.1017
        83        2.0000           -0.4072790             -11.0826
        84        2.0000           -0.4043111             -11.0019
        85        2.0000           -0.4036229             -10.9831
        86        2.0000           -0.4014653             -10.9244
        87        2.0000           -0.3997621             -10.8781
        88        2.0000           -0.3955911             -10.7646
        89        2.0000           -0.3932959             -10.7021
        90        2.0000           -0.3917102             -10.6590
        91        2.0000           -0.3804401             -10.3523
        92        2.0000           -0.3777021             -10.2778
        93        2.0000           -0.3587895              -9.7632 (HOMO)
        94                         -0.2766584              -7.5283 (LUMO)
        95                         -0.2462919              -6.7019
        96                         -0.2311232              -6.2892
        97                         -0.2263028              -6.1580
        98                         -0.2237039              -6.0873
        99                         -0.2222205              -6.0469
       100                         -0.2202842              -5.9942
       101                         -0.2184802              -5.9451
       102                         -0.2166333              -5.8949
       103                         -0.2113628              -5.7515
       104                         -0.2070560              -5.6343
       ...                                ...                  ...
       186                          0.7295892              19.8531
      -------------------------------------------------------------
                  HL-Gap            0.0821311 Eh            2.2349 eV

     #   Z          covCN         q      C6AA      α(0)
     1   6 C        2.920    -0.031    28.785     8.798
     2   6 C        2.919    -0.030    28.747     8.792
     3   6 C        2.925    -0.032    28.788     8.799
     4   6 C        2.979     0.015    27.667     8.628
     5   6 C        2.984    -0.002    28.058     8.689
     6   6 C        2.981    -0.003    28.091     8.694
     7   6 C        2.978     0.016    27.657     8.627
     8   6 C        2.924    -0.031    28.776     8.797
     9   6 C        2.919    -0.029    28.727     8.789
    10   6 C        2.920    -0.031    28.782     8.798
    11   6 C        2.919    -0.030    28.756     8.794
    12   6 C        2.925    -0.032    28.797     8.800
    13   6 C        2.984     0.004    27.935     8.670
    14   6 C        2.914    -0.036    28.884     8.813
    15   6 C        2.914    -0.037    28.924     8.819
    16   6 C        2.983     0.012    27.749     8.641
    17   6 C        2.921    -0.038    28.946     8.823
    18   6 C        2.914    -0.030    28.755     8.793
    19   6 C        2.921    -0.038    28.943     8.822
    20   6 C        2.981     0.011    27.772     8.644
    21   6 C        2.928    -0.043    29.080     8.844
    22   6 C        2.969     0.005    27.905     8.665
    23   6 C        2.984     0.013    27.714     8.636
    24   6 C        2.925    -0.034    28.849     8.808
    25   6 C        2.919    -0.030    28.747     8.792
    26   6 C        2.921    -0.032    28.797     8.800
    27   6 C        2.919    -0.029    28.731     8.790
    28   6 C        2.926    -0.030    28.759     8.795
    29   6 C        2.979     0.000    28.017     8.683
    30   6 C        2.977    -0.000    28.033     8.685
    31   6 C        2.979     0.016    27.638     8.624
    32   6 C        2.925    -0.030    28.758     8.794
    33   6 C        2.920    -0.029    28.735     8.790
    34   6 C        2.921    -0.031    28.781     8.798
    35   6 C        2.919    -0.030    28.738     8.791
    36   6 C        2.926    -0.030    28.759     8.794
    37   6 C        2.991    -0.001    28.033     8.685
    38   6 C        2.998     0.002    27.979     8.677
    39   6 C        2.925    -0.031    28.776     8.797
    40   6 C        2.919    -0.030    28.740     8.791
    41   1 H        0.926     0.029     2.598     2.521
    42   1 H        0.926     0.029     2.601     2.522
    43   1 H        0.926     0.026     2.637     2.539
    44   1 H        0.926     0.028     2.617     2.530
    45   1 H        0.926     0.029     2.597     2.520
    46   1 H        0.926     0.029     2.598     2.521
    47   1 H        0.926     0.029     2.594     2.519
    48   1 H        0.925     0.029     2.599     2.521
    49   1 H        0.926     0.032     2.551     2.498
    50   1 H        0.926     0.030     2.593     2.518
    51   1 H        0.926     0.030     2.593     2.518
    52   1 H        0.926     0.029     2.605     2.524
    53   1 H        0.926     0.030     2.592     2.517
    54   1 H        0.925     0.030     2.582     2.513
    55   1 H        0.926     0.029     2.601     2.522
    56   1 H        0.926     0.029     2.599     2.521
    57   1 H        0.926     0.029     2.606     2.525
    58   1 H        0.926     0.029     2.605     2.524
    59   1 H        0.926     0.027     2.626     2.534
    60   1 H        0.926     0.027     2.623     2.532
    61   1 H        0.926     0.029     2.603     2.523
    62   1 H        0.926     0.029     2.601     2.522
    63   1 H        0.926     0.029     2.600     2.522
    64   1 H        0.926     0.027     2.631     2.537
    65   1 H        0.926     0.026     2.642     2.542
    66   1 H        0.926     0.029     2.601     2.522

molecular dipole:
                 x           y           z       tot (Debye)
 q only:       -0.072      -0.060       0.002
   full:       -0.088      -0.094      -0.003       0.327

 projected vibrational frequencies (cm⁻¹)
eigval :       -0.00    -0.00    -0.00     0.00     0.00     0.00
eigval :       16.03    23.76    37.02    44.10    47.85    54.00
eigval :       61.72    65.15    68.40    73.52    76.77   103.60
eigval :      107.09   134.63   181.94   192.22   198.47   203.48
eigval :      209.18   215.97   223.20   245.36   257.09   259.76
eigval :      280.29   294.79   314.05   366.22   371.43   372.11
eigval :      373.74   379.31   393.65   441.70   445.95   462.24
eigval :      473.86   480.28   489.88   498.46   508.80   517.47
eigval :      550.34   559.36   572.18   576.28   584.96   590.25
eigval :      593.07   601.46   604.46   613.50   626.01   643.55
eigval :      646.13   668.17   669.27   670.09   674.32   686.82
eigval :      711.26   722.44   745.06   753.19   757.37   761.88
eigval :      763.56   782.29   791.14   801.57   831.88   836.90
eigval :      863.75   869.03   876.88   878.44   879.86   881.74
eigval :      886.07   900.83   902.44   903.41   904.01   906.08
eigval :      921.30   925.00   927.80   928.98   929.27   930.42
eigval :      931.07   931.31   931.78   933.42   964.67   973.64
eigval :      987.77   995.23  1034.85  1038.78  1084.46  1084.71
eigval :     1085.08  1085.92  1115.48  1119.67  1120.18  1121.30
eigval :     1122.56  1123.73  1151.66  1167.46  1181.88  1182.28
eigval :     1182.54  1183.31  1195.39  1196.56  1197.63  1199.67
eigval :     1202.42  1210.28  1215.46  1240.22  1248.68  1275.13
eigval :     1281.76  1282.60  1282.92  1284.39  1305.90  1311.35
eigval :     1314.85  1316.60  1318.45  1319.77  1345.55  1360.10
eigval :     1376.24  1398.90  1399.72  1409.16  1430.84  1431.14
eigval :     1431.88  1432.99  1445.57  1464.11  1476.21  1479.52
eigval :     1488.36  1489.09  1494.88  1520.47  1546.02  1572.41
eigval :     1582.07  1583.16  1584.02  1585.02  1590.03  1600.51
eigval :     1601.97  1602.61  1603.43  1606.45  3066.69  3067.58
eigval :     3067.77  3068.84  3069.81  3070.61  3070.75  3071.46
eigval :     3072.27  3073.27  3073.59  3076.46  3077.33  3079.03
eigval :     3079.31  3079.49  3082.26  3084.51  3086.23  3086.29
eigval :     3086.42  3090.36  3091.30  3091.87  3092.86  3093.24

   temp. (K)  partition function   enthalpy   heat capacity  entropy
                                   cal/mol     cal/K/mol   cal/K/mol   J/K/mol
 298.15  VIB  0.447E+13            17563.581    115.264    108.065
         ROT  0.325E+08              888.752      2.981     37.354
         INT  0.145E+21            18452.333    118.245    145.419
         TR   0.110E+29             1481.254      4.968     44.534
         TOT                       19933.5870   123.2133   189.9534   794.7651

       T/K    H(0)-H(T)+PV         H(T)/Eh          T*S/Eh         G(T)/Eh
   ------------------------------------------------------------------------
    298.15    0.317662E-01    0.544776E+00    0.902530E-01    0.454523E+00
   ------------------------------------------------------------------------

         :::::::::::::::::::::::::::::::::::::::::::::::::::::
         ::                  THERMODYNAMIC                  ::
         :::::::::::::::::::::::::::::::::::::::::::::::::::::
         :: total free energy         -98.474779691982 Eh   ::
         ::.................................................::
         :: total energy              -98.929303070556 Eh   ::
         :: zero point energy           0.513010181446 Eh   ::
         :: G(RRHO) w/o ZPVE           -0.058486802872 Eh   ::
         :: G(RRHO) contrib.            0.454523378574 Eh   ::
         :::::::::::::::::::::::::::::::::::::::::::::::::::::

           -------------------------------------------------
          | TOTAL ENERGY              -98.929303070556 Eh   |
          | TOTAL ENTHALPY            -98.384526696257 Eh   |
          | TOTAL FREE ENERGY         -98.474779691982 Eh   |
          | GRADIENT NORM               0.000031480121 Eh/α |
          | HOMO-LUMO GAP               2.234901032379 eV   |
           -------------------------------------------------

 * finished run on 2025/08/29 at 14:28:26.592
