   * xtb version 6.7.1 (edcfbbe) compiled by 'albert@albert-system' on 2024-07-22

   ID    Z sym.   atoms
    1    6 C      1-40
    2    1 H      41-66

          program call               : xtb data2507/gas/diarylbiindole/diarylbiindole.xyz --gfn 2 --ohess vtight --parallel 40 --molden --ceasefiles --namespace data2507/gas/diarylbiindole/diarylbiindole_gas_S0_preOpt
          :  Hamiltonian                  GFN2-xTB          :
 * total energy  :   -98.9056110 Eh     change       -0.4435734E-08 Eh
 * total energy  :   -98.9189209 Eh     change       -0.1330994E-01 Eh
 * total energy  :   -98.9230962 Eh     change       -0.4175289E-02 Eh
 * total energy  :   -98.9240451 Eh     change       -0.9488980E-03 Eh
 * total energy  :   -98.9244836 Eh     change       -0.4384816E-03 Eh
 * total energy  :   -98.9246627 Eh     change       -0.1790816E-03 Eh
 * total energy  :   -98.9248268 Eh     change       -0.1641131E-03 Eh
 * total energy  :   -98.9250110 Eh     change       -0.1842264E-03 Eh
 * total energy  :   -98.9251957 Eh     change       -0.1846790E-03 Eh
 * total energy  :   -98.9253219 Eh     change       -0.1262102E-03 Eh
 * total energy  :   -98.9255883 Eh     change       -0.1949843E-05 Eh
 * total energy  :   -98.9255896 Eh     change       -0.1306312E-05 Eh
 * total energy  :   -98.9255909 Eh     change       -0.1261346E-05 Eh
 * total energy  :   -98.9255922 Eh     change       -0.1347397E-05 Eh
 * total energy  :   -98.9255933 Eh     change       -0.1104032E-05 Eh
 * total energy  :   -98.9255939 Eh     change       -0.6123642E-06 Eh
 * total energy  :   -98.9255942 Eh     change       -0.2557226E-06 Eh
 * total energy  :   -98.9255943 Eh     change       -0.1476405E-06 Eh
 * total energy  :   -98.9255944 Eh     change       -0.9424330E-07 Eh
   *** GEOMETRY OPTIMIZATION CONVERGED AFTER 34 ITERATIONS ***

 final structure:
================
66
 xtb: 6.7.1 (edcfbbe)
C           -2.91095374587840       -4.16151222323293       -0.00026459219510
C           -2.60449046748879       -3.53886383804439        1.19718364667727
C           -1.99189071417652       -2.29950533633491        1.19769461675672
C           -1.67825129926480       -1.67157421301459       -0.00014912827612
C           -1.03356250899789       -0.33601116641305       -0.00010219201168
C           -1.83930651327179        0.79559859520049        0.00006497790268
C           -3.30909422672744        0.61617530137787        0.00026906857519
C           -4.00361777951810        0.51180573150024       -1.19853522660430
C           -5.37097954349749        0.30504801334855       -1.19727520424921
C           -6.05681085449949        0.20013393741029        0.00073602740739
C           -5.37092260279162        0.30737261044091        1.19850991414558
C           -4.00356591991527        0.51416857914998        1.19930755674205
C           -1.25389699447193        2.06673673869287        0.00002852463968
C           -2.05494837565056        3.24711706558226        0.00004826275801
C           -1.49504698537965        4.47716765880026       -0.00005851000188
C           -0.07953989106038        4.63643566576585       -0.00019884434095
C            0.52120593649935        5.89621585771265       -0.00033011851469
C            1.89777203560478        6.02482767019968       -0.00047758793671
C            2.70496201173480        4.90302543998981       -0.00050011034038
C            2.14450557576123        3.62475367464072       -0.00037340452245
C            2.94254472392213        2.44975174603295       -0.00031677249730
C            2.40677725873376        1.20039791398841       -0.00017600917447
C            3.36679698210036        0.07105507098827        0.00008049669276
C            3.86642761732084       -0.42424101145048       -1.19771246850693
C            4.82140459902132       -1.42397174530827       -1.19675327567193
C            5.29710427469667       -1.92930010016545        0.00070302510053
C            4.82058669846304       -1.42401437146089        1.19785288953996
C            3.86558615206207       -0.42430883616848        1.19819744317353
C            0.98056171788103        1.01963227499088       -0.00015895254868
C            0.35854788525868       -0.23869058058696       -0.00018557012966
C            1.07295983479291       -1.53717971691823       -0.00025488629389
C            1.34958435367021       -2.18391109388700        1.19728088349708
C            1.91783474825989       -3.44360112095424        1.19660650666564
C            2.20418850332964       -4.07599569027420       -0.00037638607383
C            1.91848769707220       -3.44319427272041       -1.19729951253545
C            1.35026317636593       -2.18349042269733       -1.19785789321016
C            0.15923587472910        2.18318618457004       -0.00011887258655
C            0.73723587607047        3.47795324159999       -0.00022358185044
C           -1.99064400767253       -2.30001461600139       -1.19805347546619
C           -2.60327248471964       -3.53935708903511       -1.19765728009365
H           -3.38995516508203       -5.12963783809935       -0.00030953990667
H           -2.84452053617856       -4.02024077015835        2.13410801665379
H           -1.75373193116213       -1.81193011804471        2.13201603035763
H           -3.46595149547985        0.59567633409180       -2.13212099394493
H           -5.90307308349227        0.22444784197471       -2.13404970148011
H           -7.12438131904383        0.03611537884755        0.00091970467545
H           -5.90297444101023        0.22857119198958        2.13546162335183
H           -3.46585343425560        0.59986086411067        2.13270496264888
H           -3.12886817202256        3.12744188335165        0.00013074268286
H           -2.11036771428546        5.36570732754510       -0.00005263990966
H           -0.10606305340779        6.77625502901306       -0.00030906737752
H            2.34498911767936        7.00845637402817       -0.00057373077407
H            3.78070817326633        5.00528759846756       -0.00060270586278
H            4.01831555735156        2.56403999446298       -0.00034707870342
H            3.49934008837293       -0.02257911814036       -2.13144624316801
H            5.19901698450140       -1.80708768689299       -2.13361346757863
H            6.04284036240743       -2.71054152921488        0.00094374554751
H            5.19757881861052       -1.80714669471923        2.13495592183995
H            3.49786906325992       -0.02267227717436        2.13169466132368
H            1.12036077655533       -1.69186702764447        2.13160758936977
H            2.13335706200452       -3.93592979076800        2.13369794733814
H            2.64536406799579       -5.06178481224952       -0.00042359323891
H            2.13452268417078       -3.93520429216907       -2.13444037277576
H            1.12159190620992       -1.69111078509398       -2.13214366622896
H           -1.75151733788139       -1.81283612365998       -2.13233395665093
H           -2.84237659745191       -4.02110648117482       -2.13462717283101

          :  Hamiltonian                  GFN2-xTB          :
         :: gradient norm              0.000033076276 Eh/a0 ::
         :: HOMO-LUMO gap              2.354339613838 eV    ::
         :: SCC energy              -100.894524324269 Eh    ::
         :: -> dispersion             -0.105380980190 Eh    ::
         :: repulsion energy           1.968929902984 Eh    ::

    * Orbital Energies and Occupations

         #    Occupation            Energy/Eh            Energy/eV
      -------------------------------------------------------------
         1        2.0000           -0.6556957             -17.8424
       ...           ...                  ...                  ...
        81        2.0000           -0.4087067             -11.1215
        82        2.0000           -0.4078654             -11.0986
        83        2.0000           -0.4048023             -11.0152
        84        2.0000           -0.4041446             -10.9973
        85        2.0000           -0.4020167             -10.9394
        86        2.0000           -0.4004840             -10.8977
        87        2.0000           -0.3999326             -10.8827
        88        2.0000           -0.3936170             -10.7109
        89        2.0000           -0.3926258             -10.6839
        90        2.0000           -0.3916292             -10.6568
        91        2.0000           -0.3852476             -10.4831
        92        2.0000           -0.3813183             -10.3762
        93        2.0000           -0.3598519              -9.7921 (HOMO)
        94                         -0.2733315              -7.4377 (LUMO)
        95                         -0.2397824              -6.5248
        96                         -0.2291281              -6.2349
        97                         -0.2268680              -6.1734
        98                         -0.2228499              -6.0641
        99                         -0.2227558              -6.0615
       100                         -0.2187816              -5.9533
       101                         -0.2178608              -5.9283
       102                         -0.2174391              -5.9168
       103                         -0.2104099              -5.7255
       104                         -0.2082214              -5.6660
       ...                                ...                  ...
       186                          0.7297798              19.8583
      -------------------------------------------------------------
                  HL-Gap            0.0865204 Eh            2.3543 eV

     #   Z          covCN         q      C6AA      α(0)
     1   6 C        2.921    -0.032    28.799     8.800
     2   6 C        2.920    -0.030    28.743     8.792
     3   6 C        2.926    -0.031    28.785     8.799
     4   6 C        2.981     0.013    27.719     8.636
     5   6 C        2.991    -0.001    28.052     8.688
     6   6 C        2.982    -0.002    28.074     8.691
     7   6 C        2.979     0.015    27.665     8.628
     8   6 C        2.925    -0.032    28.786     8.799
     9   6 C        2.919    -0.029    28.735     8.791
    10   6 C        2.920    -0.032    28.793     8.799
    11   6 C        2.919    -0.029    28.736     8.791
    12   6 C        2.925    -0.032    28.786     8.799
    13   6 C        2.985     0.004    27.934     8.670
    14   6 C        2.914    -0.035    28.862     8.810
    15   6 C        2.914    -0.037    28.915     8.818
    16   6 C        2.983     0.012    27.750     8.641
    17   6 C        2.921    -0.038    28.951     8.824
    18   6 C        2.914    -0.030    28.756     8.793
    19   6 C        2.921    -0.038    28.945     8.823
    20   6 C        2.981     0.011    27.767     8.644
    21   6 C        2.928    -0.043    29.071     8.842
    22   6 C        2.969     0.005    27.901     8.664
    23   6 C        2.984     0.013    27.708     8.635
    24   6 C        2.925    -0.032    28.791     8.799
    25   6 C        2.920    -0.029    28.730     8.790
    26   6 C        2.921    -0.032    28.793     8.799
    27   6 C        2.920    -0.029    28.730     8.790
    28   6 C        2.925    -0.032    28.791     8.799
    29   6 C        2.978     0.001    28.005     8.681
    30   6 C        2.978    -0.000    28.029     8.684
    31   6 C        2.983     0.016    27.656     8.626
    32   6 C        2.926    -0.030    28.761     8.795
    33   6 C        2.920    -0.029    28.735     8.790
    34   6 C        2.921    -0.032    28.795     8.800
    35   6 C        2.920    -0.029    28.735     8.790
    36   6 C        2.926    -0.030    28.761     8.795
    37   6 C        2.991    -0.001    28.040     8.686
    38   6 C        2.997     0.002    27.973     8.676
    39   6 C        2.926    -0.031    28.785     8.799
    40   6 C        2.920    -0.030    28.743     8.792
    41   1 H        0.926     0.029     2.596     2.519
    42   1 H        0.926     0.030     2.589     2.516
    43   1 H        0.926     0.027     2.631     2.536
    44   1 H        0.926     0.028     2.616     2.529
    45   1 H        0.926     0.030     2.587     2.515
    46   1 H        0.926     0.029     2.597     2.520
    47   1 H        0.926     0.030     2.587     2.515
    48   1 H        0.926     0.028     2.616     2.529
    49   1 H        0.926     0.031     2.575     2.509
    50   1 H        0.926     0.030     2.590     2.517
    51   1 H        0.926     0.029     2.595     2.519
    52   1 H        0.926     0.029     2.606     2.525
    53   1 H        0.926     0.030     2.592     2.518
    54   1 H        0.925     0.028     2.617     2.530
    55   1 H        0.926     0.028     2.621     2.532
    56   1 H        0.926     0.029     2.595     2.519
    57   1 H        0.926     0.029     2.603     2.523
    58   1 H        0.926     0.029     2.595     2.519
    59   1 H        0.926     0.028     2.621     2.532
    60   1 H        0.926     0.027     2.632     2.537
    61   1 H        0.926     0.029     2.594     2.519
    62   1 H        0.926     0.029     2.600     2.522
    63   1 H        0.926     0.029     2.594     2.519
    64   1 H        0.926     0.027     2.632     2.537
    65   1 H        0.926     0.027     2.631     2.536
    66   1 H        0.926     0.030     2.589     2.516

molecular dipole:
                 x           y           z       tot (Debye)
 q only:       -0.064      -0.097      -0.000
   full:       -0.078      -0.148       0.000       0.424

 projected vibrational frequencies (cm⁻¹)
eigval :       -0.00    -0.00    -0.00    -0.00    -0.00     0.00
eigval :      -36.18   -20.56    -5.30    22.76    38.69    42.19
eigval :       42.38    45.88    53.38    71.37    74.94    92.47
eigval :       98.02   126.12   172.05   187.71   191.31   199.17
eigval :      203.67   206.12   217.81   230.54   245.60   253.59
eigval :      274.85   292.02   308.20   362.84   365.29   369.10
eigval :      375.26   387.54   387.64   446.04   446.24   452.09
eigval :      475.26   479.03   494.60   497.78   510.41   511.91
eigval :      550.01   559.94   570.87   574.99   583.79   592.87
eigval :      594.97   599.55   610.02   611.08   624.55   643.39
eigval :      649.50   665.02   668.66   670.40   672.31   687.68
eigval :      714.01   715.26   741.44   751.59   755.07   757.15
eigval :      762.30   782.39   791.93   804.98   832.50   836.81
eigval :      863.74   870.97   872.49   875.96   879.36   882.45
eigval :      886.70   896.10   898.91   901.61   903.00   905.56
eigval :      920.77   923.91   924.91   926.38   928.19   928.78
eigval :      930.34   931.27   931.33   931.90   965.25   974.23
eigval :      988.99   995.73  1035.38  1039.91  1083.57  1083.88
eigval :     1084.35  1085.72  1115.89  1117.09  1118.03  1119.51
eigval :     1121.59  1123.09  1153.18  1164.08  1181.42  1182.24
eigval :     1182.88  1183.74  1192.96  1194.07  1195.75  1197.56
eigval :     1201.34  1209.65  1215.26  1237.92  1247.05  1274.00
eigval :     1279.62  1280.37  1281.38  1283.00  1307.31  1310.45
eigval :     1311.22  1314.09  1317.40  1318.88  1347.59  1362.67
eigval :     1377.12  1400.95  1403.54  1410.64  1430.56  1430.90
eigval :     1432.68  1432.98  1445.12  1465.45  1477.42  1480.45
eigval :     1490.82  1493.83  1502.79  1532.12  1549.03  1574.91
eigval :     1584.14  1585.13  1586.52  1587.39  1593.70  1603.99
eigval :     1604.76  1606.04  1606.93  1608.37  3065.31  3068.22
eigval :     3069.25  3069.54  3070.15  3070.47  3070.80  3070.87
eigval :     3071.14  3071.95  3073.04  3076.19  3076.91  3078.28
eigval :     3079.42  3080.80  3081.26  3082.85  3084.36  3084.58
eigval :     3086.56  3086.84  3090.89  3091.24  3091.92  3092.90

   temp. (K)  partition function   enthalpy   heat capacity  entropy
                                   cal/mol     cal/K/mol   cal/K/mol   J/K/mol
 298.15  VIB  0.249E+13            16745.135    111.550    102.651
         ROT  0.325E+08              888.752      2.981     37.354
         INT  0.810E+20            17633.887    114.531    140.005
         TR   0.110E+29             1481.254      4.968     44.534
         TOT                       19115.1414   119.4992   184.5397   772.1141

       T/K    H(0)-H(T)+PV         H(T)/Eh          T*S/Eh         G(T)/Eh
   ------------------------------------------------------------------------
    298.15    0.304619E-01    0.542731E+00    0.876808E-01    0.455050E+00
   ------------------------------------------------------------------------

         :::::::::::::::::::::::::::::::::::::::::::::::::::::
         ::                  THERMODYNAMIC                  ::
         :::::::::::::::::::::::::::::::::::::::::::::::::::::
         :: total free energy         -98.470544195910 Eh   ::
         ::.................................................::
         :: total energy              -98.925594421230 Eh   ::
         :: zero point energy           0.512269070039 Eh   ::
         :: G(RRHO) w/o ZPVE           -0.057218844719 Eh   ::
         :: G(RRHO) contrib.            0.455050225320 Eh   ::
         :::::::::::::::::::::::::::::::::::::::::::::::::::::

           -------------------------------------------------
          | TOTAL ENERGY              -98.925594421230 Eh   |
          | TOTAL ENTHALPY            -98.382863434396 Eh   |
          | TOTAL FREE ENERGY         -98.470544195910 Eh   |
          | GRADIENT NORM               0.000033076897 Eh/α |
          | HOMO-LUMO GAP               2.354339989481 eV   |
           -------------------------------------------------

 * finished run on 2025/08/29 at 14:25:48.243
