   * xtb version 6.7.1 (edcfbbe) compiled by 'albert@albert-system' on 2024-07-22

   ID    Z sym.   atoms
    1    6 C      1-40
    2    1 H      41-66

          program call               : xtb data2507/gas/diarylbiindole/diarylbiindole_gas_S0_finalOpt.xtbopt.xyz --gfn 2 --spinpol --tblite --uhf 2 --ohess vtight --parallel 40 --molden --ceasefiles --namespace data2507/gas/diarylbiindole/diarylbiindole_gas_T1_preOpt
 * total energy  :   -98.8517508 Eh     change       -0.9322520E-08 Eh
 * total energy  :   -98.8583091 Eh     change       -0.6558302E-02 Eh
 * total energy  :   -98.8598846 Eh     change       -0.1575522E-02 Eh
 * total energy  :   -98.8599657 Eh     change       -0.8104004E-04 Eh
 * total energy  :   -98.8600378 Eh     change       -0.7214835E-04 Eh
 * total energy  :   -98.8600921 Eh     change       -0.5423806E-04 Eh
 * total energy  :   -98.8601620 Eh     change       -0.6996999E-04 Eh
 * total energy  :   -98.8602383 Eh     change       -0.7622542E-04 Eh
 * total energy  :   -98.8602910 Eh     change       -0.5278177E-04 Eh
 * total energy  :   -98.8603239 Eh     change       -0.3282858E-04 Eh
 * total energy  :   -98.8606092 Eh     change       -0.1119203E-05 Eh
 * total energy  :   -98.8606104 Eh     change       -0.1123079E-05 Eh
 * total energy  :   -98.8606114 Eh     change       -0.1020571E-05 Eh
 * total energy  :   -98.8606123 Eh     change       -0.9503412E-06 Eh
 * total energy  :   -98.8606132 Eh     change       -0.8535973E-06 Eh
 * total energy  :   -98.8606140 Eh     change       -0.8302272E-06 Eh
 * total energy  :   -98.8606148 Eh     change       -0.7891087E-06 Eh
 * total energy  :   -98.8606156 Eh     change       -0.7604710E-06 Eh
 * total energy  :   -98.8606156 Eh     change       -0.4212096E-07 Eh
   *** GEOMETRY OPTIMIZATION CONVERGED AFTER 68 ITERATIONS ***

 final structure:
================
66
 xtb: 6.7.1 (edcfbbe)
C           -3.46516357408279       -4.03663315363049       -0.05067914918726
C           -3.47559724350521       -3.20226482165380        1.05392627848513
C           -2.71928738287290       -2.04499655999080        1.05670966917739
C           -1.93974203473801       -1.71068926670263       -0.04501241057743
C           -1.14272894901087       -0.46195401652007       -0.04177603394404
C           -1.80879741846969        0.75562437466612        0.03228280705966
C           -3.26802751282932        0.80392328688284        0.18351674753644
C           -4.11239270175503        0.16573880670133       -0.72376773024466
C           -5.48285592378994        0.20437642190723       -0.55419110725183
C           -6.03542049402258        0.87533984835827        0.52427728600307
C           -5.20644174400349        1.51757255608973        1.42964614466316
C           -3.83583986783362        1.48796837305618        1.25896720674581
C           -1.06468929954081        1.98516429638238       -0.09894780531587
C           -1.70683910129370        3.21457420519725       -0.23583046974315
C           -0.98620832109774        4.39421150572756       -0.36738897996456
C            0.40817340368317        4.38239246914903       -0.35504229544033
C            1.17512001830544        5.57931823682726       -0.47399974104804
C            2.55515901507026        5.53687200135686       -0.47262873183673
C            3.22411305123281        4.33750104742663       -0.34421609633531
C            2.50196128131892        3.11311073870365       -0.21153978358921
C            3.14186318089820        1.89739114774951       -0.02355665597852
C            2.43024518276831        0.68905141365929        0.10432146210083
C            3.21612387684101       -0.49047010397773        0.48834549397173
C            4.36412795163367       -0.84415437274407       -0.21710430228524
C            5.13024023513852       -1.92223841569163        0.18221577720082
C            4.77655974069534       -2.64942187675993        1.30592771279045
C            3.65306942632145       -2.28803558127775        2.03126777675351
C            2.87891372528845       -1.21863229743735        1.62769354779281
C            1.03442997074049        0.68710380218183       -0.04466190582457
C            0.25234012246854       -0.52444252236738       -0.13154184558035
C            0.89386915286162       -1.81042278890681       -0.41792441060493
C            0.67062684611731       -2.93801114751179        0.37181492241420
C            1.25659715552518       -4.14636133060655        0.05186450011353
C            2.06384412823440       -4.25764881705458       -1.06759275003791
C            2.28438072883275       -3.14692310398966       -1.86566323301642
C            1.70853540957753       -1.93479710264067       -1.54387463361581
C            0.35325268672729        1.93459504404271       -0.12883118968817
C            1.08242867591287        3.14243480026479       -0.22936368716105
C           -1.93507153586601       -2.55334208300327       -1.15130983593762
C           -2.69426986903313       -3.70846758240858       -1.15302551875687
H           -4.05742163427705       -4.93989463903506       -0.05307697205621
H           -4.07600799277560       -3.45282898226324        1.91642834686609
H           -2.72588182525611       -1.39537314431873        1.92050275410485
H           -3.68832764298909       -0.34732469305555       -1.57390347703566
H           -6.12396173194592       -0.29110567141051       -1.26868447874191
H           -7.10683245443170        0.90009127018172        0.65767183039503
H           -5.63072194391563        2.04259655831125        2.27342255305493
H           -3.18944315157570        1.97890867139041        1.97312198983565
H           -2.78551168675566        3.25115543827274       -0.25181802121634
H           -1.50894126436200        5.33278951680556       -0.48040551526199
H            0.65251322138270        6.51968146849359       -0.56355306912492
H            3.11757089892616        6.45494723324868       -0.56799331290096
H            4.30303414013734        4.30373141702930       -0.33515071633372
H            4.21877991431196        1.87241974545917        0.06194112189573
H            4.63748004240950       -0.28533519592331       -1.10088564307083
H            6.00821052189847       -2.19621112712547       -0.38482431201249
H            5.37688330559812       -3.49077301018328        1.61888727040084
H            3.38106920989096       -2.84291621220337        2.91732391838874
H            2.00945687454385       -0.92925864639893        2.20050160270415
H            0.05521594225853       -2.85695520516903        1.25531706291643
H            1.08285530586937       -5.00727337941805        0.68086112452160
H            2.51893824872264       -5.20446494920458       -1.31765722630595
H            2.90721869006214       -3.22811114878919       -2.74475525262406
H            1.87248745880857       -1.07163475105113       -2.17383521215127
H           -1.33902053473406       -2.29540537187115       -2.01505754394588
H           -2.68465272052379       -4.35469817380613       -2.01869351538009

 projected vibrational frequencies (cm⁻¹)
eigval :       -0.00    -0.00    -0.00     0.00     0.00     0.00
eigval :       17.38    23.69    35.23    45.49    49.74    54.04
eigval :       64.86    67.80    73.72    75.25    79.58   101.94
eigval :      113.02   131.55   175.53   184.12   194.71   203.92
eigval :      206.98   215.84   222.50   247.35   253.79   260.46
eigval :      277.06   286.70   308.09   352.50   372.50   373.24
eigval :      373.90   377.98   381.84   426.70   438.95   449.46
eigval :      460.77   470.89   484.42   492.01   505.71   507.02
eigval :      545.13   549.00   555.82   564.67   582.97   587.63
eigval :      588.49   592.91   597.12   612.49   622.56   624.35
eigval :      640.86   652.17   665.17   668.03   671.16   672.87
eigval :      688.56   720.14   725.51   743.78   746.93   753.11
eigval :      757.78   759.80   788.95   793.54   800.30   819.92
eigval :      827.67   834.55   856.80   874.13   876.01   878.35
eigval :      879.37   884.09   898.44   898.70   902.64   903.40
eigval :      903.75   910.85   926.78   927.19   928.84   928.92
eigval :      929.43   930.46   931.41   931.52   954.80   972.34
eigval :      984.99   992.13  1024.88  1032.70  1084.08  1084.38
eigval :     1084.97  1085.60  1113.71  1120.38  1120.75  1120.91
eigval :     1121.95  1125.22  1146.00  1156.46  1172.54  1180.99
eigval :     1181.17  1182.18  1182.22  1184.00  1197.55  1198.14
eigval :     1200.58  1202.17  1208.23  1214.26  1246.73  1263.23
eigval :     1266.10  1273.57  1281.69  1283.24  1284.77  1286.72
eigval :     1312.63  1315.50  1317.06  1319.40  1320.49  1326.17
eigval :     1346.65  1367.29  1382.16  1394.97  1398.03  1418.40
eigval :     1424.44  1428.77  1432.53  1436.91  1440.83  1468.31
eigval :     1472.28  1475.14  1481.23  1486.29  1491.24  1497.93
eigval :     1516.35  1563.58  1570.55  1571.46  1576.24  1583.96
eigval :     1590.41  1591.52  1595.46  1602.05  3067.14  3067.71
eigval :     3068.92  3069.59  3070.40  3070.47  3071.82  3073.22
eigval :     3073.67  3076.01  3076.82  3077.81  3078.86  3079.01
eigval :     3079.30  3082.25  3084.02  3085.73  3088.17  3088.42
eigval :     3091.36  3091.52  3092.32  3093.63  3094.55  3095.32

   temp. (K)  partition function   enthalpy   heat capacity  entropy
                                   cal/mol     cal/K/mol   cal/K/mol   J/K/mol
 298.15  VIB  0.425E+13            17754.836    116.902    108.921
         ROT  0.327E+08              888.752      2.981     37.364
         INT  0.139E+21            18643.588    119.883    146.285
         TR   0.110E+29             1481.254      4.968     44.534
         TOT                       20124.8423   124.8508   190.8190   798.3868

       T/K    H(0)-H(T)+PV         H(T)/Eh          T*S/Eh         G(T)/Eh
   ------------------------------------------------------------------------
    298.15    0.320710E-01    0.541729E+00    0.906643E-01    0.451064E+00
   ------------------------------------------------------------------------

         :::::::::::::::::::::::::::::::::::::::::::::::::::::
         ::                  THERMODYNAMIC                  ::
         :::::::::::::::::::::::::::::::::::::::::::::::::::::
         :: total free energy         -98.409551244841 Eh   ::
         ::.................................................::
         :: total energy              -98.860615598885 Eh   ::
         :: zero point energy           0.509657648433 Eh   ::
         :: G(RRHO) w/o ZPVE           -0.058593294390 Eh   ::
         :: G(RRHO) contrib.            0.451064354044 Eh   ::
         :::::::::::::::::::::::::::::::::::::::::::::::::::::

           -------------------------------------------------
          | TOTAL ENERGY              -98.860615598885 Eh   |
          | TOTAL ENTHALPY            -98.318886972889 Eh   |
          | TOTAL FREE ENERGY         -98.409551244841 Eh   |
          | GRADIENT NORM               0.000070996743 Eh/α |
           -------------------------------------------------

 * finished run on 2025/08/29 at 14:28:33.642
