   * xtb version 6.7.1 (edcfbbe) compiled by 'albert@albert-system' on 2024-07-22

   ID    Z sym.   atoms
    1    6 C      1-40
    2    1 H      41-66

          program call               : xtb data2507/gas/diarylbiindole/diarylbiindole_gas_T1_crest.xyz --gfn 2 --spinpol --tblite --uhf 2 --ohess vtight --parallel 40 --molden --ceasefiles --namespace data2507/gas/diarylbiindole/diarylbiindole_gas_T1_finalOpt
 * total energy  :   -98.8606048 Eh     change       -0.1121209E-07 Eh
 * total energy  :   -98.8606211 Eh     change       -0.1633529E-04 Eh
 * total energy  :   -98.8606270 Eh     change       -0.5848203E-05 Eh
 * total energy  :   -98.8606288 Eh     change       -0.1823336E-05 Eh
 * total energy  :   -98.8606315 Eh     change       -0.2763744E-05 Eh
 * total energy  :   -98.8606334 Eh     change       -0.1863278E-05 Eh
 * total energy  :   -98.8606346 Eh     change       -0.1189048E-05 Eh
 * total energy  :   -98.8606356 Eh     change       -0.9719287E-06 Eh
 * total energy  :   -98.8606366 Eh     change       -0.1072065E-05 Eh
 * total energy  :   -98.8606380 Eh     change       -0.1328498E-05 Eh
 * total energy  :   -98.8606415 Eh     change       -0.6684231E-06 Eh
 * total energy  :   -98.8606421 Eh     change       -0.5877933E-06 Eh
 * total energy  :   -98.8606427 Eh     change       -0.5988299E-06 Eh
 * total energy  :   -98.8606432 Eh     change       -0.4600604E-06 Eh
 * total energy  :   -98.8606436 Eh     change       -0.3895181E-06 Eh
 * total energy  :   -98.8606439 Eh     change       -0.3451973E-06 Eh
 * total energy  :   -98.8606443 Eh     change       -0.3795877E-06 Eh
 * total energy  :   -98.8606447 Eh     change       -0.3627876E-06 Eh
 * total energy  :   -98.8606447 Eh     change       -0.1510632E-07 Eh
   *** GEOMETRY OPTIMIZATION CONVERGED AFTER 22 ITERATIONS ***

 final structure:
================
66
 xtb: 6.7.1 (edcfbbe)
C           -3.54232792211708       -3.95961961616685       -0.21112209747269
C           -3.54622927577252       -3.15967354876455        0.91873288110230
C           -2.76725164078397       -2.01833562941459        0.96396252998957
C           -1.97148653711810       -1.66621670365767       -0.12036520065636
C           -1.14887811609182       -0.43518406745218       -0.07527749702163
C           -1.78765209859784        0.79590206903247        0.01925198226827
C           -3.24389891429240        0.87773948501467        0.18127047357772
C           -4.11438068125099        0.26767003275402       -0.72063012314685
C           -5.48131648598782        0.33612585763212       -0.53234072941006
C           -6.00441163528956        1.00942940199194        0.55928676261424
C           -5.14928535878870        1.62543912728356        1.45861518435826
C           -3.78221534260314        1.56616059978639        1.26935177559542
C           -1.01546720152980        2.01036526278263       -0.09440869319892
C           -1.62681902306549        3.25528116469281       -0.23168686074547
C           -0.87641093398179        4.41770539801501       -0.35060985902561
C            0.51743560611070        4.37387089745201       -0.31945455249941
C            1.31465177767223        5.55182173490538       -0.42494538640446
C            2.69314344406403        5.47559074223193       -0.40189394676219
C            3.33143968948217        4.26073582813988       -0.26201060177495
C            2.57863291900798        3.05390889650009       -0.14233872589067
C            3.18515966097820        1.82313036873672        0.06177142937745
C            2.44110414034111        0.63274339305693        0.17022164006066
C            3.17326643904691       -0.56870175621066        0.58796310815516
C            4.34769813417775       -0.95596485574456       -0.05329539811368
C            5.05633626429469       -2.05833803873826        0.38432985304392
C            4.61758705507069       -2.77759261001066        1.48289248897731
C            3.46581648349736       -2.38441031112213        2.14473168861084
C            2.74925609930077       -1.29074186935381        1.70249627360890
C            1.05074716544285        0.66594950856639       -0.01998112801057
C            0.24553628572707       -0.52628381208920       -0.14941679439841
C            0.87244563781476       -1.81110837873936       -0.46877328644175
C            0.61323990828375       -2.96697217509664        0.26743288377575
C            1.19342399922937       -4.16889538057022       -0.08574487067041
C            2.03085891648645       -4.24562352233144       -1.18579332161188
C            2.28816134457563       -3.10617486975864       -1.93072207535436
C            1.71856110529458       -1.90072199178311       -1.57515795901623
C            0.40088808912169        1.92864413509678       -0.10616319842131
C            1.16068680466590        3.11847695532443       -0.18696469078169
C           -1.97299026043502       -2.47447679910754       -1.25214853200864
C           -2.75493467129337       -3.61346599550176       -1.29621320306064
H           -4.15251951378205       -4.85015705433490       -0.24661524037970
H           -4.15932838382564       -3.42470002151126        1.76787032585386
H           -2.76895203546811       -1.39540570803034        1.84722227726484
H           -3.71374588535903       -0.24695255530706       -1.58107112117627
H           -6.14288538267235       -0.13832121795066       -1.24243528494570
H           -7.07310723011659        1.05656149898738        0.70758013650065
H           -5.55028479342111        2.15266337541789        2.31234527115916
H           -3.11540715678316        2.03637491392702        1.97866264643250
H           -2.70414974308238        3.31755655425042       -0.25930401948075
H           -1.37531422871793        5.36868806498296       -0.46770936785944
H            0.81686129433427        6.50486133914486       -0.52166718994333
H            3.27896946171112        6.37982543471271       -0.48826953964137
H            4.40898623118188        4.20196093131123       -0.23456576062652
H            4.25856418087415        1.77300317370784        0.17523236220087
H            4.68759990527760       -0.40441125736754       -0.91825474737895
H            5.95622642153477       -2.35791163187553       -0.13320629255961
H            5.17341077190802       -3.63764500692741        1.82577249927456
H            3.12674983905124       -2.93332061193007        3.01119185030322
H            1.85745615324378       -0.97665763736676        2.22594510725176
H           -0.02488106018905       -2.91411302021520        1.13672805339700
H            0.99169993547333       -5.05222656984322        0.50247654674226
H            2.48118591814136       -5.18751656242076       -1.46172274907016
H            2.93502029596517       -3.15961345288707       -2.79448014795920
H            1.91215158757520       -1.01469404136884       -2.16364874262461
H           -1.36376620143024       -2.20185823163379       -2.10211879895066
H           -2.75030176541117       -4.23276893605452       -2.18139108979973

 projected vibrational frequencies (cm⁻¹)
eigval :       -0.00     0.00     0.00     0.00     0.00     0.00
eigval :       18.89    24.12    36.08    45.35    49.54    54.23
eigval :       63.38    68.04    73.39    75.09    80.12   100.25
eigval :      113.86   131.92   176.55   183.28   194.97   204.60
eigval :      206.65   217.13   222.19   246.95   254.00   259.80
eigval :      277.35   286.47   309.26   351.95   372.70   373.40
eigval :      373.81   377.72   382.17   426.42   439.09   449.15
eigval :      461.04   470.87   484.43   491.99   505.37   507.03
eigval :      545.08   548.57   555.76   564.82   582.97   587.61
eigval :      588.58   592.66   596.94   612.78   622.44   624.58
eigval :      641.05   651.89   664.97   667.95   671.03   672.62
eigval :      688.48   720.13   725.71   743.78   746.77   753.24
eigval :      757.76   759.82   788.77   793.81   800.20   819.83
eigval :      827.74   833.99   856.68   874.04   876.28   878.17
eigval :      879.45   884.39   898.40   898.63   902.43   903.12
eigval :      903.78   911.01   926.94   927.21   928.71   929.11
eigval :      929.48   930.43   931.52   931.59   954.96   972.20
eigval :      984.81   992.01  1024.77  1032.81  1083.87  1084.19
eigval :     1084.75  1085.35  1113.42  1119.93  1120.45  1121.00
eigval :     1121.80  1125.09  1145.97  1156.30  1172.80  1181.43
eigval :     1181.55  1182.42  1182.46  1184.12  1198.15  1198.54
eigval :     1201.03  1202.47  1207.77  1214.29  1247.25  1263.42
eigval :     1266.74  1273.83  1281.89  1283.34  1285.31  1287.31
eigval :     1312.33  1315.85  1317.27  1319.56  1320.70  1326.24
eigval :     1346.59  1368.42  1382.38  1394.96  1397.83  1418.16
eigval :     1424.50  1428.68  1432.61  1437.04  1440.92  1468.21
eigval :     1472.22  1475.03  1481.57  1486.43  1490.92  1497.39
eigval :     1516.21  1562.99  1569.98  1570.95  1575.68  1583.71
eigval :     1590.06  1591.32  1594.94  1601.72  3067.21  3068.24
eigval :     3069.38  3069.57  3070.31  3070.45  3071.72  3073.47
eigval :     3073.93  3076.32  3076.93  3078.07  3078.74  3079.40
eigval :     3079.54  3082.56  3084.10  3085.58  3088.46  3088.57
eigval :     3091.09  3091.63  3092.29  3094.01  3094.36  3095.16

   temp. (K)  partition function   enthalpy   heat capacity  entropy
                                   cal/mol     cal/K/mol   cal/K/mol   J/K/mol
 298.15  VIB  0.385E+13            17752.171    116.905    108.846
         ROT  0.326E+08              888.752      2.981     37.360
         INT  0.126E+21            18640.924    119.886    146.206
         TR   0.110E+29             1481.254      4.968     44.534
         TOT                       20122.1777   124.8539   190.7409   798.0600

       T/K    H(0)-H(T)+PV         H(T)/Eh          T*S/Eh         G(T)/Eh
   ------------------------------------------------------------------------
    298.15    0.320667E-01    0.541735E+00    0.906272E-01    0.451108E+00
   ------------------------------------------------------------------------

         :::::::::::::::::::::::::::::::::::::::::::::::::::::
         ::                  THERMODYNAMIC                  ::
         :::::::::::::::::::::::::::::::::::::::::::::::::::::
         :: total free energy         -98.409536726099 Eh   ::
         ::.................................................::
         :: total energy              -98.860644650703 Eh   ::
         :: zero point energy           0.509668362317 Eh   ::
         :: G(RRHO) w/o ZPVE           -0.058560437713 Eh   ::
         :: G(RRHO) contrib.            0.451107924604 Eh   ::
         :::::::::::::::::::::::::::::::::::::::::::::::::::::

           -------------------------------------------------
          | TOTAL ENERGY              -98.860644650703 Eh   |
          | TOTAL ENTHALPY            -98.318909557087 Eh   |
          | TOTAL FREE ENERGY         -98.409536726099 Eh   |
          | GRADIENT NORM               0.000043982920 Eh/α |
           -------------------------------------------------

 * finished run on 2025/08/29 at 14:31:12.254
