   * xtb version 6.7.1 (edcfbbe) compiled by 'albert@albert-system' on 2024-07-22

   ID    Z sym.   atoms
    1    6 C      1, 3-12, 14-20, 22-28, 30-34
    2    8 O      2, 13, 21, 29
    3    1 H      35-62

          program call               : xtb data2507/toluene/TMOE/TMOE_toluene_T1_crest.xyz --gfn 2 --uhf 2 --gbsa toluene --ohess vtight --parallel 40 --molden --ceasefiles --namespace data2507/toluene/TMOE/TMOE_toluene_T1_finalOpt
      * Solvation model:               GBSA
        Solvent                        toluene
        Solvent mass                       9.2140E+01 g/mol
          :  Hamiltonian                  GFN2-xTB          :
 * total energy  :   -94.7323994 Eh     change       -0.5333760E-09 Eh
 * total energy  :   -94.7324575 Eh     change       -0.5802877E-04 Eh
 * total energy  :   -94.7324819 Eh     change       -0.2439632E-04 Eh
 * total energy  :   -94.7324864 Eh     change       -0.4518248E-05 Eh
 * total energy  :   -94.7324930 Eh     change       -0.6666033E-05 Eh
 * total energy  :   -94.7324982 Eh     change       -0.5201950E-05 Eh
 * total energy  :   -94.7325016 Eh     change       -0.3396574E-05 Eh
 * total energy  :   -94.7325035 Eh     change       -0.1888656E-05 Eh
 * total energy  :   -94.7325051 Eh     change       -0.1572000E-05 Eh
 * total energy  :   -94.7325066 Eh     change       -0.1506752E-05 Eh
 * total energy  :   -94.7325138 Eh     change       -0.1840165E-05 Eh
 * total energy  :   -94.7325151 Eh     change       -0.1303285E-05 Eh
 * total energy  :   -94.7325160 Eh     change       -0.9020871E-06 Eh
 * total energy  :   -94.7325167 Eh     change       -0.6897770E-06 Eh
 * total energy  :   -94.7325173 Eh     change       -0.6284030E-06 Eh
 * total energy  :   -94.7325180 Eh     change       -0.6527093E-06 Eh
 * total energy  :   -94.7325187 Eh     change       -0.7718842E-06 Eh
 * total energy  :   -94.7325197 Eh     change       -0.9502878E-06 Eh
 * total energy  :   -94.7325197 Eh     change       -0.8989019E-08 Eh
   *** GEOMETRY OPTIMIZATION CONVERGED AFTER 22 ITERATIONS ***

 final structure:
================
62
 xtb: 6.7.1 (edcfbbe)
C           -5.26582991445273       -2.77039055308280       -3.16622674429513
O           -4.44060371258819       -3.37497065126744       -2.19498798994601
C           -3.37153999185296       -2.67486127600151       -1.71662541059011
C           -2.60631922300173       -3.31938486014929       -0.73700470105933
C           -1.50474066274443       -2.71270044514480       -0.19074718358800
C           -1.10652686900650       -1.41690106071627       -0.58917336016068
C            0.00141480849133       -0.73879128809979        0.00042002796014
C           -0.00178911967316        0.73760345966787       -0.00711846924607
C           -1.11391798120208        1.41109274291550        0.58036790995153
C           -1.91183251475118        0.76974650396099        1.54880577576408
C           -3.01402360997867        1.37724218646803        2.10623337241479
C           -3.38654685863560        2.65920256567549        1.70317755926294
O           -4.45988705607647        3.35458770043782        2.17888143597560
C           -5.27889870997033        2.75057781610942        3.15571253761044
C           -2.62560153413616        3.30460878018110        0.72084502524539
C           -1.52012138184558        2.70280898803710        0.17704069889650
C            1.10685751134943        1.40978392450574       -0.60210500772705
C            1.91032127223860        0.76012781814205       -1.56053748860654
C            3.01000110618709        1.36639643825457       -2.12409224528509
C            3.37405806005913        2.65603222455323       -1.73812396013407
O            4.44417920518153        3.35106576140095       -2.22149501074997
C            5.27046501236513        2.73691373852400       -3.18579941012625
C            2.60712273653616        3.31054578095629       -0.76649646875165
C            1.50447449035657        2.70954334279210       -0.21613852072537
C            1.11297087030463       -1.40625123892601        0.59576000857358
C            1.51926734092366       -2.70225319661734        0.20645939993007
C            2.62440193156360       -3.29833303089803        0.75723106505586
C            3.38502044536876       -2.64249050612111        1.73288451532231
O            4.45811976867676       -3.33276501747000        2.21650401594405
C            5.27721074279794       -2.71789208639744        3.18647377031690
C            3.01241598649445       -1.35627733234273        2.12205890022066
C            1.91046893574170       -0.75472705690027        1.55776420986098
C           -1.90848270670335       -0.77696626502778       -1.55536461099740
C           -3.00708171902244       -1.38903390838226       -2.11474633328262
H           -5.72513589849229       -1.85348836342587       -2.78422651144280
H           -6.04283575624749       -3.50125809654101       -3.38489653756272
H           -4.70820296957132       -2.54728361299389       -4.08096017036985
H           -2.91517081547661       -4.30283363894703       -0.41565103688106
H           -0.96324000515020       -3.21307324199080        0.59756038363746
H           -1.63283548154790       -0.21922185696864        1.88096093989740
H           -3.58037040247196        0.84642567844296        2.85566515664341
H           -5.73353311799759        1.82861844268392        2.78035535269455
H           -6.05987647009627        3.47789774113330        3.37208782245392
H           -4.71751951526206        2.53635163999777        4.07027646654173
H           -2.94081243453692        4.28471057341316        0.39548037384885
H           -0.98168333292970        3.20353190466304       -0.61315736077277
H            1.63780332930778       -0.23482880531822       -1.87985331396236
H            3.58102941476568        0.82865188398543       -2.86497643127776
H            4.71388563535176        2.50509865617138       -4.09901567425165
H            6.04792930315888        3.46543270333046       -3.41058520326769
H            5.72906651315158        1.82363740309349       -2.79439297980601
H            2.91553027287677        4.29715930701248       -0.45455425523159
H            0.96156594038068        3.21794410360071        0.56603631401417
H            0.98126533029367       -3.21131179335348       -0.57868842693123
H            2.93963938038362       -4.28190728132341        0.44254015359303
H            6.05785245611258       -3.44298276692149        3.41137379181008
H            5.73227564125735       -1.80050509236935        2.80057161061666
H            4.71578031446216       -2.49287894387790        4.09842328005866
H            3.57854658637699       -0.81753044196168        2.86596766722509
H            1.63134024739240        0.23767761392492        1.87936604785957
H           -1.63558112280413        0.21481134187331       -1.88411295016510
H           -3.57687690938122       -0.85880191136815       -2.86197168720648

          :  Hamiltonian                  GFN2-xTB          :
         :: gradient norm              0.000063971587 Eh/a0 ::
         :: HOMO-LUMO gap              1.847709349610 eV    ::
         :: SCC energy               -96.208087772379 Eh    ::
         :: -> dispersion             -0.075188658546 Eh    ::
         :: -> Gsolv                  -0.039636515302 Eh    ::
         :: repulsion energy           1.475568072739 Eh    ::

    * Orbital Energies and Occupations

         #    Occupation            Energy/Eh            Energy/eV
      -------------------------------------------------------------
         1        2.0000           -0.7176131             -19.5272
       ...           ...                  ...                  ...
        75        2.0000           -0.4181362             -11.3781
        76        2.0000           -0.4143459             -11.2749
        77        2.0000           -0.4094499             -11.1417
        78        2.0000           -0.4047085             -11.0127
        79        2.0000           -0.4044788             -11.0064
        80        2.0000           -0.4044764             -11.0064
        81        2.0000           -0.4034052             -10.9772
        82        2.0000           -0.3994393             -10.8693
        83        2.0000           -0.3937428             -10.7143
        84        2.0000           -0.3759671             -10.2306
        85        2.0000           -0.3755250             -10.2186
        86        1.0000           -0.3234734              -8.8022
        87        1.0000           -0.2893498              -7.8736 (HOMO)
        88                         -0.2214477              -6.0259 (LUMO)
        89                         -0.2210072              -6.0139
        90                         -0.2190547              -5.9608
        91                         -0.2177711              -5.9259
        92                         -0.2174566              -5.9173
        93                         -0.2148135              -5.8454
        94                         -0.1858080              -5.0561
        95                         -0.1596349              -4.3439
        96                         -0.0940349              -2.5588
        97                         -0.0894853              -2.4350
        98                         -0.0781467              -2.1265
       ...                                ...                  ...
       164                          0.6870497              18.6956
      -------------------------------------------------------------
                  HL-Gap            0.0679021 Eh            1.8477 eV

     #   Z          covCN         q      C6AA      α(0)
     1   6 C        3.642     0.036    20.314     6.480
     2   8 O        1.705    -0.286    18.750     5.846
     3   6 C        2.864     0.136    25.023     8.199
     4   6 C        2.915    -0.056    29.390     8.890
     5   6 C        2.921    -0.038    28.955     8.824
     6   6 C        2.969     0.005    27.908     8.665
     7   6 C        2.970    -0.013    28.334     8.731
     8   6 C        2.970    -0.013    28.335     8.731
     9   6 C        2.969     0.005    27.907     8.665
    10   6 C        2.925    -0.038    28.950     8.824
    11   6 C        2.912    -0.066    29.652     8.929
    12   6 C        2.864     0.136    25.023     8.199
    13   8 O        1.705    -0.286    18.751     5.846
    14   6 C        3.642     0.036    20.314     6.480
    15   6 C        2.915    -0.056    29.390     8.890
    16   6 C        2.921    -0.038    28.954     8.824
    17   6 C        2.969     0.005    27.908     8.665
    18   6 C        2.925    -0.038    28.951     8.824
    19   6 C        2.912    -0.066    29.652     8.929
    20   6 C        2.864     0.136    25.023     8.199
    21   8 O        1.705    -0.286    18.750     5.846
    22   6 C        3.642     0.036    20.314     6.480
    23   6 C        2.915    -0.056    29.390     8.890
    24   6 C        2.921    -0.038    28.955     8.824
    25   6 C        2.969     0.005    27.907     8.665
    26   6 C        2.921    -0.038    28.955     8.824
    27   6 C        2.915    -0.056    29.390     8.890
    28   6 C        2.864     0.136    25.023     8.199
    29   8 O        1.705    -0.286    18.751     5.846
    30   6 C        3.642     0.036    20.314     6.480
    31   6 C        2.912    -0.066    29.652     8.929
    32   6 C        2.925    -0.038    28.951     8.824
    33   6 C        2.925    -0.038    28.951     8.824
    34   6 C        2.912    -0.066    29.652     8.929
    35   1 H        0.924     0.047     2.362     2.403
    36   1 H        0.925     0.066     2.126     2.280
    37   1 H        0.924     0.047     2.356     2.400
    38   1 H        0.926     0.041     2.429     2.437
    39   1 H        0.926     0.042     2.428     2.437
    40   1 H        0.926     0.034     2.529     2.487
    41   1 H        0.926     0.037     2.489     2.467
    42   1 H        0.924     0.047     2.362     2.403
    43   1 H        0.925     0.066     2.126     2.280
    44   1 H        0.924     0.047     2.356     2.400
    45   1 H        0.926     0.041     2.429     2.437
    46   1 H        0.926     0.042     2.428     2.437
    47   1 H        0.926     0.034     2.529     2.487
    48   1 H        0.926     0.037     2.489     2.467
    49   1 H        0.924     0.047     2.356     2.400
    50   1 H        0.925     0.066     2.126     2.280
    51   1 H        0.924     0.047     2.362     2.403
    52   1 H        0.926     0.041     2.429     2.437
    53   1 H        0.926     0.042     2.428     2.437
    54   1 H        0.926     0.042     2.428     2.437
    55   1 H        0.926     0.041     2.429     2.437
    56   1 H        0.925     0.066     2.126     2.280
    57   1 H        0.924     0.047     2.362     2.403
    58   1 H        0.924     0.047     2.356     2.400
    59   1 H        0.926     0.037     2.489     2.467
    60   1 H        0.926     0.034     2.529     2.487
    61   1 H        0.926     0.034     2.529     2.487
    62   1 H        0.926     0.037     2.489     2.467

molecular dipole:
                 x           y           z       tot (Debye)
 q only:        0.000       0.000       0.004
   full:        0.001       0.001       0.005       0.014

 projected vibrational frequencies (cm⁻¹)
eigval :       -0.00    -0.00    -0.00    -0.00     0.00     0.00
eigval :        8.46    17.68    26.45    29.84    32.85    42.02
eigval :       50.57    73.84    78.23    78.29    84.56    88.89
eigval :       89.63   117.61   131.59   162.72   166.04   170.74
eigval :      191.90   192.11   208.18   208.44   213.63   218.85
eigval :      222.00   225.01   253.25   270.12   298.50   305.32
eigval :      317.41   324.56   326.52   354.39   377.64   377.89
eigval :      395.44   395.62   413.42   431.86   444.34   451.74
eigval :      463.83   476.89   492.47   499.16   503.50   511.97
eigval :      561.80   567.51   593.55   595.44   605.19   608.11
eigval :      615.41   625.46   666.11   668.12   674.24   675.28
eigval :      751.24   768.82   772.94   799.91   800.19   803.13
eigval :      804.51   807.41   842.49   843.42   857.32   858.67
eigval :      860.06   895.34   896.60   898.75   899.13   910.09
eigval :      911.38   915.11   938.04   941.36   942.70   988.51
eigval :      994.61  1001.14  1008.70  1052.63  1052.73  1052.92
eigval :     1053.20  1105.19  1116.18  1116.58  1116.59  1116.92
eigval :     1125.15  1125.99  1132.81  1138.20  1152.76  1153.09
eigval :     1157.39  1157.75  1175.70  1175.76  1183.76  1190.97
eigval :     1224.69  1227.01  1227.36  1245.15  1263.38  1266.12
eigval :     1272.22  1272.67  1278.40  1315.08  1322.00  1322.72
eigval :     1328.11  1332.28  1335.05  1339.80  1393.62  1393.76
eigval :     1394.22  1394.62  1411.96  1412.10  1419.80  1424.93
eigval :     1442.57  1446.63  1462.41  1462.49  1462.61  1462.78
eigval :     1464.63  1469.62  1475.72  1476.41  1476.96  1477.21
eigval :     1519.61  1520.46  1523.78  1524.74  1569.65  1571.87
eigval :     1585.18  1590.95  2934.27  2934.41  2935.09  2935.14
eigval :     2947.12  2947.24  2947.89  2947.92  3023.69  3023.79
eigval :     3023.86  3023.91  3081.64  3081.93  3082.34  3083.03
eigval :     3083.35  3083.81  3084.86  3085.14  3094.50  3094.66
eigval :     3095.27  3095.60  3097.70  3098.02  3098.82  3099.16

   temp. (K)  partition function   enthalpy   heat capacity  entropy
                                   cal/mol     cal/K/mol   cal/K/mol   J/K/mol
 298.15  VIB  0.473E+15            18643.866    112.371    117.408
         ROT  0.849E+07              888.752      2.981     34.686
         INT  0.402E+22            19532.618    115.352    152.094
         TR   0.931E+28             1481.254      4.968     44.198
         TOT                       21013.8719   120.3201   196.2922   821.2868

       T/K    H(0)-H(T)+PV         H(T)/Eh          T*S/Eh         G(T)/Eh
   ------------------------------------------------------------------------
    298.15    0.334877E-01    0.519885E+00    0.932648E-01    0.426620E+00
   ------------------------------------------------------------------------

         :::::::::::::::::::::::::::::::::::::::::::::::::::::
         ::                  THERMODYNAMIC                  ::
         :::::::::::::::::::::::::::::::::::::::::::::::::::::
         :: total free energy         -94.305899845438 Eh   ::
         ::.................................................::
         :: total energy              -94.732519699627 Eh   ::
         :: zero point energy           0.486396897209 Eh   ::
         :: G(RRHO) w/o ZPVE           -0.059777043020 Eh   ::
         :: G(RRHO) contrib.            0.426619854189 Eh   ::
         :::::::::::::::::::::::::::::::::::::::::::::::::::::

           -------------------------------------------------
          | TOTAL ENERGY              -94.732519699627 Eh   |
          | TOTAL ENTHALPY            -94.212635065892 Eh   |
          | TOTAL FREE ENERGY         -94.305899845438 Eh   |
          | GRADIENT NORM               0.000063860431 Eh/α |
          | HOMO-LUMO GAP               1.847710507928 eV   |
           -------------------------------------------------

 * finished run on 2025/09/10 at 02:50:17.045
