   * xtb version 6.7.1 (edcfbbe) compiled by 'albert@albert-system' on 2024-07-22

   ID    Z sym.   atoms
    1    6 C      1, 3-12, 14-20, 22-28, 30-34
    2    8 O      2, 13, 21, 29
    3    1 H      35-62

          program call               : xtb data2507/toluene/TMOE/TMOE_toluene_S0_crest.xyz --gfn 2 --gbsa toluene --ohess vtight --parallel 40 --molden --ceasefiles --namespace data2507/toluene/TMOE/TMOE_toluene_S0_finalOpt
      * Solvation model:               GBSA
        Solvent                        toluene
        Solvent mass                       9.2140E+01 g/mol
          :  Hamiltonian                  GFN2-xTB          :
 * total energy  :   -94.7974986 Eh     change       -0.2403070E-08 Eh
 * total energy  :   -94.7975595 Eh     change       -0.6097967E-04 Eh
 * total energy  :   -94.7975917 Eh     change       -0.3218030E-04 Eh
 * total energy  :   -94.7975991 Eh     change       -0.7332678E-05 Eh
 * total energy  :   -94.7976063 Eh     change       -0.7194460E-05 Eh
 * total energy  :   -94.7976113 Eh     change       -0.5079116E-05 Eh
 * total energy  :   -94.7976142 Eh     change       -0.2818810E-05 Eh
 * total energy  :   -94.7976160 Eh     change       -0.1857169E-05 Eh
 * total energy  :   -94.7976175 Eh     change       -0.1458474E-05 Eh
 * total energy  :   -94.7976186 Eh     change       -0.1087634E-05 Eh
 * total energy  :   -94.7976202 Eh     change       -0.3274225E-06 Eh
 * total energy  :   -94.7976205 Eh     change       -0.2850487E-06 Eh
 * total energy  :   -94.7976207 Eh     change       -0.2190425E-06 Eh
 * total energy  :   -94.7976209 Eh     change       -0.1871888E-06 Eh
 * total energy  :   -94.7976211 Eh     change       -0.1764232E-06 Eh
 * total energy  :   -94.7976213 Eh     change       -0.1710813E-06 Eh
 * total energy  :   -94.7976214 Eh     change       -0.1629334E-06 Eh
 * total energy  :   -94.7976215 Eh     change       -0.1217899E-06 Eh
 * total energy  :   -94.7976215 Eh     change       -0.1012310E-08 Eh
   *** GEOMETRY OPTIMIZATION CONVERGED AFTER 22 ITERATIONS ***

 final structure:
================
62
 xtb: 6.7.1 (edcfbbe)
C           -5.49078374470444       -3.74549705217584       -1.31334835362916
O           -4.48490391948128       -3.95934565738188       -0.34751791616494
C           -3.42005698328416       -3.10452296859151       -0.31194131237345
C           -2.45641985575980       -3.37161931174042        0.66243957304427
C           -1.34258199274120       -2.57064594116608        0.78221599300183
C           -1.15825282187318       -1.46810730225391       -0.05398361216682
C            0.04631448926392       -0.62994086186540        0.06717648261098
C           -0.00594892731507        0.72221771061333        0.03190621143872
C           -1.27559113462639        1.46473166907820        0.09339069238289
C           -2.26071279775509        1.13853497614119        1.02007015584673
C           -3.44288294853979        1.85244501401044        1.09639535428424
C           -3.66669855191181        2.92093231313285        0.23473651563324
O           -4.79484904191523        3.69065307509433        0.21430886971107
C           -5.83412985702029        3.39126915057914        1.12014169704989
C           -2.67900999747475        3.26387880947269       -0.69056966777707
C           -1.50187706157708        2.55203715373862       -0.75245864739162
C            1.20218920230688        1.55692674722686       -0.07012901433996
C            2.21185672177600        1.26013502359770       -0.97999802570425
C            3.33756529080504        2.05564785083834       -1.09203013128357
C            3.47803848798657        3.17907586221381       -0.28438883634704
O            4.54641959706926        4.02942803240650       -0.30124052093835
C            5.61466570251192        3.75478483556920       -1.18095003867063
C            2.46285681589344        3.49437978852700        0.62078283780393
C            1.34228347858757        2.70016736290948        0.71867399110737
C            1.30941858725202       -1.36895618679111        0.22747624175645
C            1.56637953985614       -2.50289158304693       -0.53672212202101
C            2.73672830419031       -3.22589750059136       -0.38722437486267
C            3.67959882760829       -2.83106013973722        0.55492467168471
O            4.86555390237230       -3.46533121066865        0.79323621859434
C            5.17692034615374       -4.61975657386422        0.04415574578121
C            3.42242032863688       -1.70495184897162        1.34020817679668
C            2.25911114122773       -0.98758464748759        1.17739818288575
C           -2.11832442406574       -1.21739061494103       -1.02920457839966
C           -3.23653715813768       -2.02020009746895       -1.16323590030084
H           -6.22483930436510       -4.53277081459710       -1.14865950189597
H           -5.09262676911970       -3.82660718979605       -2.32951476391363
H           -5.96832072410569       -2.76941958075014       -1.18364587388208
H           -2.60678836296054       -4.21892064508141        1.31403102760865
H           -0.60639200873378       -2.78898841895935        1.54240390237096
H           -2.09662951001123        0.31811597753788        1.70283599694925
H           -4.17749752071722        1.56889784479628        1.83364342113460
H           -6.61871527311724        4.11765182320826        0.91384480992522
H           -5.50342092251761        3.49870062068204        2.15779074223130
H           -6.22287854074589        2.38056065627763        0.96226824454017
H           -2.86175512042373        4.09846392592325       -1.35014113901019
H           -0.74675775111194        2.82911837495796       -1.47394495380437
H            2.11170861319636        0.39675739470622       -1.62084984730803
H            4.09452921692410        1.79118574047482       -1.81341129580627
H            6.34517045169462        4.54338771974816       -1.00710273159862
H            6.06932645980987        2.78295484658409       -0.96547996025883
H            5.28986030218668        3.78452230138294       -2.22564619185040
H            2.57981464990298        4.37270140931710        1.23710191095118
H            0.56629457866942        2.95560618844267        1.42577799481056
H            0.84179768499636       -2.82070391921282       -1.27309063923159
H            2.89911084998761       -4.09333922180096       -1.00754475821445
H            4.44001690153831       -5.41237768358560        0.20644096685753
H            5.24559869981266       -4.39590390113871       -1.02489171324717
H            6.14880082323054       -4.94968255120388        0.40789856693040
H            4.15557695913268       -1.41640160601208        2.07793678027960
H            2.07242665148483       -0.12620416721957        1.80076739480206
H           -1.98430408243248       -0.38531122002735       -1.70441388687177
H           -3.95288568942000       -1.79242427676041       -1.93681066214192

          :  Hamiltonian                  GFN2-xTB          :
         :: gradient norm              0.000033202276 Eh/a0 ::
         :: HOMO-LUMO gap              2.541465062816 eV    ::
         :: SCC energy               -96.291090590929 Eh    ::
         :: -> dispersion             -0.076229019192 Eh    ::
         :: -> Gsolv                  -0.039600174331 Eh    ::
         :: repulsion energy           1.493469051042 Eh    ::

    * Orbital Energies and Occupations

         #    Occupation            Energy/Eh            Energy/eV
      -------------------------------------------------------------
         1        2.0000           -0.7169182             -19.5083
       ...           ...                  ...                  ...
        74        2.0000           -0.4203599             -11.4386
        75        2.0000           -0.4194212             -11.4130
        76        2.0000           -0.4163314             -11.3290
        77        2.0000           -0.4138336             -11.2610
        78        2.0000           -0.4070208             -11.0756
        79        2.0000           -0.4052244             -11.0267
        80        2.0000           -0.4046359             -11.0107
        81        2.0000           -0.4035440             -10.9810
        82        2.0000           -0.4016379             -10.9291
        83        2.0000           -0.3840553             -10.4507
        84        2.0000           -0.3783806             -10.2963
        85        2.0000           -0.3773755             -10.2689
        86        2.0000           -0.3500597              -9.5256 (HOMO)
        87                         -0.2566625              -6.9841 (LUMO)
        88                         -0.2259455              -6.1483
        89                         -0.2224950              -6.0544
        90                         -0.2219240              -6.0389
        91                         -0.2176979              -5.9239
        92                         -0.2169992              -5.9048
        93                         -0.2133332              -5.8051
        94                         -0.1988887              -5.4120
        95                         -0.1564771              -4.2580
        96                         -0.0924791              -2.5165
        97                         -0.0895483              -2.4367
       ...                                ...                  ...
       164                          0.6985023              19.0072
      -------------------------------------------------------------
                  HL-Gap            0.0933971 Eh            2.5415 eV

     #   Z          covCN         q      C6AA      α(0)
     1   6 C        3.642     0.036    20.307     6.479
     2   8 O        1.705    -0.291    18.836     5.860
     3   6 C        2.864     0.139    24.974     8.191
     4   6 C        2.918    -0.057    29.417     8.894
     5   6 C        2.924    -0.034    28.836     8.806
     6   6 C        2.976     0.004    27.923     8.668
     7   6 C        2.966    -0.007    28.181     8.708
     8   6 C        2.966    -0.006    28.168     8.706
     9   6 C        2.976     0.004    27.924     8.668
    10   6 C        2.925    -0.035    28.869     8.811
    11   6 C        2.916    -0.068    29.693     8.936
    12   6 C        2.864     0.139    24.971     8.191
    13   8 O        1.705    -0.291    18.833     5.859
    14   6 C        3.642     0.036    20.307     6.479
    15   6 C        2.918    -0.057    29.415     8.894
    16   6 C        2.925    -0.033    28.834     8.806
    17   6 C        2.976     0.004    27.927     8.668
    18   6 C        2.925    -0.035    28.867     8.811
    19   6 C        2.916    -0.068    29.690     8.935
    20   6 C        2.864     0.139    24.965     8.190
    21   8 O        1.705    -0.291    18.830     5.859
    22   6 C        3.642     0.036    20.309     6.479
    23   6 C        2.918    -0.057    29.412     8.893
    24   6 C        2.925    -0.033    28.833     8.806
    25   6 C        2.976     0.004    27.925     8.668
    26   6 C        2.926    -0.035    28.879     8.813
    27   6 C        2.915    -0.068    29.706     8.938
    28   6 C        2.864     0.139    24.971     8.191
    29   8 O        1.705    -0.291    18.840     5.860
    30   6 C        3.642     0.036    20.309     6.479
    31   6 C        2.918    -0.057    29.405     8.892
    32   6 C        2.924    -0.033    28.827     8.805
    33   6 C        2.925    -0.035    28.872     8.812
    34   6 C        2.916    -0.068    29.695     8.936
    35   1 H        0.925     0.066     2.133     2.284
    36   1 H        0.924     0.046     2.374     2.410
    37   1 H        0.924     0.045     2.378     2.412
    38   1 H        0.926     0.042     2.422     2.434
    39   1 H        0.926     0.036     2.508     2.476
    40   1 H        0.926     0.035     2.521     2.483
    41   1 H        0.926     0.039     2.468     2.457
    42   1 H        0.925     0.066     2.133     2.284
    43   1 H        0.924     0.046     2.374     2.410
    44   1 H        0.924     0.045     2.378     2.411
    45   1 H        0.926     0.042     2.420     2.433
    46   1 H        0.926     0.036     2.507     2.476
    47   1 H        0.926     0.035     2.523     2.484
    48   1 H        0.926     0.039     2.466     2.456
    49   1 H        0.925     0.066     2.133     2.284
    50   1 H        0.924     0.046     2.373     2.409
    51   1 H        0.924     0.046     2.374     2.409
    52   1 H        0.926     0.042     2.421     2.433
    53   1 H        0.926     0.036     2.508     2.476
    54   1 H        0.926     0.034     2.532     2.488
    55   1 H        0.926     0.039     2.461     2.453
    56   1 H        0.924     0.046     2.371     2.408
    57   1 H        0.924     0.046     2.372     2.408
    58   1 H        0.925     0.066     2.135     2.285
    59   1 H        0.926     0.041     2.430     2.438
    60   1 H        0.926     0.036     2.497     2.471
    61   1 H        0.926     0.035     2.521     2.483
    62   1 H        0.926     0.039     2.468     2.457

molecular dipole:
                 x           y           z       tot (Debye)
 q only:       -0.251      -0.586      -0.671
   full:       -0.319      -0.744      -0.845       2.973

 projected vibrational frequencies (cm⁻¹)
eigval :       -0.00    -0.00    -0.00     0.00     0.00     0.00
eigval :       16.52    22.67    27.99    31.48    34.38    44.30
eigval :       51.55    60.59    69.75    78.88    88.13    98.76
eigval :      102.84   120.62   128.76   149.30   163.32   169.28
eigval :      178.86   183.56   197.89   203.83   225.94   229.02
eigval :      230.42   235.18   244.96   263.38   295.05   314.06
eigval :      323.55   330.66   338.90   380.44   381.31   384.16
eigval :      385.33   393.15   420.93   441.01   452.14   460.91
eigval :      481.40   493.50   496.60   515.00   519.99   549.43
eigval :      561.75   565.29   592.75   601.45   606.94   614.86
eigval :      620.60   641.09   675.60   684.32   684.60   696.93
eigval :      752.43   765.30   787.11   805.02   805.96   806.92
eigval :      807.63   813.43   856.70   857.02   860.48   860.66
eigval :      867.55   901.40   903.02   903.91   907.26   907.87
eigval :      918.96   920.91   921.53   924.08   955.26   998.12
eigval :     1005.74  1015.79  1034.73  1054.34  1054.82  1055.19
eigval :     1056.05  1116.81  1117.15  1117.69  1117.80  1126.62
eigval :     1127.61  1129.49  1130.00  1154.81  1155.38  1155.70
eigval :     1156.05  1162.98  1185.48  1186.73  1187.83  1192.31
eigval :     1215.75  1227.48  1232.22  1246.06  1261.64  1269.27
eigval :     1270.26  1272.23  1272.52  1303.57  1305.26  1323.68
eigval :     1325.78  1328.25  1331.44  1394.67  1394.92  1395.07
eigval :     1395.40  1407.77  1408.41  1409.63  1409.77  1463.82
eigval :     1464.39  1464.54  1464.65  1473.75  1475.91  1476.44
eigval :     1476.72  1479.33  1482.14  1484.02  1484.34  1563.60
eigval :     1564.48  1564.90  1566.97  1584.91  1596.77  1598.03
eigval :     1602.39  1611.93  2933.43  2933.47  2933.55  2933.89
eigval :     2946.27  2946.34  2946.43  2946.80  3023.11  3023.38
eigval :     3023.71  3023.81  3074.75  3076.77  3077.20  3078.75
eigval :     3084.20  3084.61  3084.84  3086.53  3094.72  3095.91
eigval :     3096.27  3098.16  3101.05  3102.03  3102.15  3102.60

   temp. (K)  partition function   enthalpy   heat capacity  entropy
                                   cal/mol     cal/K/mol   cal/K/mol   J/K/mol
 298.15  VIB  0.155E+15            18476.696    111.426    115.809
         ROT  0.336E+08              888.752      2.981     37.422
         INT  0.521E+22            19365.449    114.407    153.230
         TR   0.931E+28             1481.254      4.968     44.198
         TOT                       20846.7026   119.3751   197.4283   826.0401

       T/K    H(0)-H(T)+PV         H(T)/Eh          T*S/Eh         G(T)/Eh
   ------------------------------------------------------------------------
    298.15    0.332213E-01    0.522028E+00    0.938046E-01    0.428223E+00
   ------------------------------------------------------------------------

         :::::::::::::::::::::::::::::::::::::::::::::::::::::
         ::                  THERMODYNAMIC                  ::
         :::::::::::::::::::::::::::::::::::::::::::::::::::::
         :: total free energy         -94.369398153828 Eh   ::
         ::.................................................::
         :: total energy              -94.797621541591 Eh   ::
         :: zero point energy           0.488806617974 Eh   ::
         :: G(RRHO) w/o ZPVE           -0.060583230210 Eh   ::
         :: G(RRHO) contrib.            0.428223387763 Eh   ::
         :::::::::::::::::::::::::::::::::::::::::::::::::::::

           -------------------------------------------------
          | TOTAL ENERGY              -94.797621541591 Eh   |
          | TOTAL ENTHALPY            -94.275593588410 Eh   |
          | TOTAL FREE ENERGY         -94.369398153828 Eh   |
          | GRADIENT NORM               0.000033208856 Eh/α |
          | HOMO-LUMO GAP               2.541465075942 eV   |
           -------------------------------------------------

 * finished run on 2025/09/10 at 02:45:44.792
