   * xtb version 6.7.1 (edcfbbe) compiled by 'albert@albert-system' on 2024-07-22

   ID    Z sym.   atoms
    1    6 C      1, 3-12, 14-20, 22-28, 30-34
    2    8 O      2, 13, 21, 29
    3    1 H      35-62

          program call               : xtb data2507/toluene/TMOE/TMOE.xyz --gfn 2 --gbsa toluene --ohess vtight --parallel 40 --molden --ceasefiles --namespace data2507/toluene/TMOE/TMOE_toluene_S0_preOpt
      * Solvation model:               GBSA
        Solvent                        toluene
        Solvent mass                       9.2140E+01 g/mol
          :  Hamiltonian                  GFN2-xTB          :
 * total energy  :   -94.7821647 Eh     change       -0.2393477E-08 Eh
 * total energy  :   -94.7893305 Eh     change       -0.7165818E-02 Eh
 * total energy  :   -94.7908199 Eh     change       -0.1489337E-02 Eh
 * total energy  :   -94.7912029 Eh     change       -0.3830115E-03 Eh
 * total energy  :   -94.7916036 Eh     change       -0.4007669E-03 Eh
 * total energy  :   -94.7919109 Eh     change       -0.3072523E-03 Eh
 * total energy  :   -94.7922256 Eh     change       -0.3146721E-03 Eh
 * total energy  :   -94.7926093 Eh     change       -0.3837282E-03 Eh
 * total energy  :   -94.7930436 Eh     change       -0.4342715E-03 Eh
 * total energy  :   -94.7934734 Eh     change       -0.4298537E-03 Eh
 * total energy  :   -94.7975088 Eh     change       -0.9953161E-06 Eh
 * total energy  :   -94.7975098 Eh     change       -0.9426249E-06 Eh
 * total energy  :   -94.7975106 Eh     change       -0.8713310E-06 Eh
 * total energy  :   -94.7975115 Eh     change       -0.8199198E-06 Eh
 * total energy  :   -94.7975122 Eh     change       -0.7802845E-06 Eh
 * total energy  :   -94.7975130 Eh     change       -0.7463597E-06 Eh
 * total energy  :   -94.7975137 Eh     change       -0.7249878E-06 Eh
 * total energy  :   -94.7975145 Eh     change       -0.7486651E-06 Eh
 * total energy  :   -94.7975145 Eh     change       -0.6690129E-08 Eh
   *** GEOMETRY OPTIMIZATION CONVERGED AFTER 94 ITERATIONS ***

 final structure:
================
62
 xtb: 6.7.1 (edcfbbe)
C           -5.01138253565184       -4.61139025265727        0.13765670526245
O           -4.66712869805260       -3.50026554443160        0.93619589515485
C           -3.51793430300446       -2.81993735285070        0.64881564045206
C           -2.63823277726243       -3.13628270990508       -0.38007442692998
C           -1.50287024421183       -2.36998497998270       -0.57634029886137
C           -1.22117582533461       -1.26919194994822        0.22633372273759
C            0.00001495401011       -0.47774869477945        0.00001003902810
C            0.00000022851761        0.87518814659383       -0.00000380685411
C           -1.24193478518202        1.66500133768733        0.03858759341569
C           -1.34453419311073        2.77489423650155        0.87908432998394
C           -2.49759485482255        3.52623442646279        0.92161662648807
C           -3.58554656653167        3.20096149168506        0.10931428668434
O           -4.68071520953379        4.00781161665731        0.23007169870502
C           -5.81983550185916        3.72239826137220       -0.55178020776856
C           -3.48470177487783        2.11230531717083       -0.75012758778666
C           -2.32500479183545        1.35905881411414       -0.77888023151321
C            1.24192145514929        1.66502500765997       -0.03859359223423
C            1.34450303611958        2.77491587028557       -0.87909483606251
C            2.49755041042402        3.52627648956769       -0.92162825326201
C            3.58550676240794        3.20102656710676       -0.10932292298372
O            4.68066110418734        4.00789585301222       -0.23008155487379
C            5.81978763874664        3.72250273350587        0.55176872411822
C            3.48468138937207        2.11236958733226        0.75012037317522
C            2.32499713668071        1.35910322246768        0.77887500988868
C            1.22121917855321       -1.26917282943958       -0.22629934824973
C            2.10336387587390       -0.96980567179315       -1.26582753663103
C            3.23105399085521       -1.73108242689660       -1.47521302538752
C            3.51795916871162       -2.81993591571537       -0.64881510714746
O            4.66715428164054       -3.50026079672825       -0.93620062100820
C            5.01140875286296       -4.61139126309352       -0.13767011824111
C            2.63827176057158       -3.13627337183955        0.38008942505905
C            1.50292102331824       -2.36996331202613        0.57637574398686
C           -2.10332583871575       -0.96982686895114        1.26585813950912
C           -3.23102274162874       -1.73109815939402        1.47523029356674
H           -5.15698938204476       -4.32218362567758       -0.90771360560444
H           -5.95059939469244       -4.98295996732691        0.54443494877254
H           -4.25261743029238       -5.39765415879563        0.19849121467175
H           -2.82342819353355       -3.97438986108627       -1.03346262836785
H           -0.82798683907017       -2.62453318044595       -1.38139561600761
H           -0.51123932882784        3.03781611515037        1.51471900821279
H           -2.58483235448513        4.37808700678534        1.57867838590955
H           -6.55720814734524        4.47530251069949       -0.27762593564983
H           -6.21638600252068        2.72668241399575       -0.33067813244391
H           -5.60040631735812        3.80114785315128       -1.62104070040994
H           -4.29944035769178        1.84203496758926       -1.40326781957280
H           -2.25787431628701        0.52288588185169       -1.45883448797987
H            0.51120126849316        3.03782590248207       -1.51472555366892
H            2.58477008314303        4.37813413533230       -1.57868585806195
H            6.55714664087410        4.47541923566124        0.27761157187214
H            5.60035920704277        3.80124961613771        1.62102958869212
H            6.21635531788781        2.72679364370471        0.33066704815000
H            4.29942656637127        1.84211296386423        1.40325826755182
H            2.25788580699100        0.52292523658660        1.45882533587731
H            1.89256432270540       -0.13688008775295       -1.91943798550072
H            3.91325977748566       -1.50527474047796       -2.28056829456090
H            4.25263873139726       -5.39764962822352       -0.19850570676300
H            5.95061993359046       -4.98296368018924       -0.54445870278328
H            5.15702389073320       -4.32219390635545        0.90770198907761
H            2.82347401651450       -3.97437814946542        1.03347894464011
H            0.82802536118553       -2.62453281766014        1.38141429118982
H           -1.89254269144319       -0.13688844754045        1.91945734822176
H           -3.91323367521051       -1.50529111076079        2.28058131311245

          :  Hamiltonian                  GFN2-xTB          :
         :: gradient norm              0.000065236839 Eh/a0 ::
         :: HOMO-LUMO gap              2.568224508406 eV    ::
         :: SCC energy               -96.291238257424 Eh    ::
         :: -> dispersion             -0.076286349645 Eh    ::
         :: -> Gsolv                  -0.039601288037 Eh    ::
         :: repulsion energy           1.493723793352 Eh    ::

    * Orbital Energies and Occupations

         #    Occupation            Energy/Eh            Energy/eV
      -------------------------------------------------------------
         1        2.0000           -0.7168655             -19.5069
       ...           ...                  ...                  ...
        74        2.0000           -0.4201486             -11.4328
        75        2.0000           -0.4194958             -11.4151
        76        2.0000           -0.4162929             -11.3279
        77        2.0000           -0.4138026             -11.2601
        78        2.0000           -0.4070694             -11.0769
        79        2.0000           -0.4057512             -11.0411
        80        2.0000           -0.4034424             -10.9782
        81        2.0000           -0.4034076             -10.9773
        82        2.0000           -0.4015488             -10.9267
        83        2.0000           -0.3834181             -10.4333
        84        2.0000           -0.3787892             -10.3074
        85        2.0000           -0.3770193             -10.2592
        86        2.0000           -0.3503070              -9.5323 (HOMO)
        87                         -0.2559264              -6.9641 (LUMO)
        88                         -0.2260386              -6.1508
        89                         -0.2225899              -6.0570
        90                         -0.2212987              -6.0218
        91                         -0.2173729              -5.9150
        92                         -0.2173187              -5.9135
        93                         -0.2130242              -5.7967
        94                         -0.1990064              -5.4152
        95                         -0.1567371              -4.2650
        96                         -0.0922909              -2.5114
        97                         -0.0892273              -2.4280
       ...                                ...                  ...
       164                          0.6972189              18.9723
      -------------------------------------------------------------
                  HL-Gap            0.0943805 Eh            2.5682 eV

     #   Z          covCN         q      C6AA      α(0)
     1   6 C        3.642     0.036    20.308     6.479
     2   8 O        1.705    -0.291    18.843     5.861
     3   6 C        2.864     0.139    24.974     8.192
     4   6 C        2.915    -0.069    29.707     8.938
     5   6 C        2.926    -0.035    28.883     8.813
     6   6 C        2.976     0.004    27.921     8.667
     7   6 C        2.966    -0.007    28.184     8.708
     8   6 C        2.966    -0.006    28.159     8.704
     9   6 C        2.976     0.004    27.928     8.669
    10   6 C        2.925    -0.033    28.832     8.806
    11   6 C        2.918    -0.057    29.412     8.893
    12   6 C        2.864     0.139    24.965     8.190
    13   8 O        1.705    -0.291    18.830     5.859
    14   6 C        3.642     0.036    20.309     6.479
    15   6 C        2.916    -0.068    29.690     8.935
    16   6 C        2.925    -0.035    28.867     8.811
    17   6 C        2.976     0.004    27.928     8.669
    18   6 C        2.925    -0.033    28.832     8.806
    19   6 C        2.918    -0.057    29.412     8.893
    20   6 C        2.864     0.139    24.965     8.190
    21   8 O        1.705    -0.291    18.830     5.859
    22   6 C        3.642     0.036    20.309     6.479
    23   6 C        2.916    -0.068    29.690     8.935
    24   6 C        2.925    -0.035    28.867     8.811
    25   6 C        2.976     0.004    27.921     8.667
    26   6 C        2.923    -0.033    28.826     8.805
    27   6 C        2.919    -0.057    29.405     8.892
    28   6 C        2.864     0.139    24.974     8.192
    29   8 O        1.705    -0.291    18.843     5.861
    30   6 C        3.642     0.036    20.308     6.479
    31   6 C        2.915    -0.069    29.707     8.938
    32   6 C        2.926    -0.035    28.883     8.813
    33   6 C        2.923    -0.033    28.826     8.805
    34   6 C        2.919    -0.057    29.405     8.892
    35   1 H        0.924     0.046     2.372     2.408
    36   1 H        0.925     0.066     2.135     2.285
    37   1 H        0.924     0.046     2.373     2.409
    38   1 H        0.926     0.039     2.461     2.453
    39   1 H        0.926     0.034     2.533     2.489
    40   1 H        0.926     0.036     2.506     2.475
    41   1 H        0.926     0.042     2.420     2.433
    42   1 H        0.925     0.066     2.133     2.284
    43   1 H        0.924     0.046     2.373     2.409
    44   1 H        0.924     0.046     2.374     2.409
    45   1 H        0.926     0.039     2.467     2.456
    46   1 H        0.926     0.034     2.524     2.484
    47   1 H        0.926     0.036     2.506     2.475
    48   1 H        0.926     0.042     2.420     2.433
    49   1 H        0.925     0.066     2.133     2.284
    50   1 H        0.924     0.046     2.374     2.409
    51   1 H        0.924     0.046     2.373     2.409
    52   1 H        0.926     0.039     2.467     2.456
    53   1 H        0.926     0.034     2.524     2.484
    54   1 H        0.926     0.036     2.499     2.472
    55   1 H        0.926     0.041     2.431     2.438
    56   1 H        0.924     0.046     2.373     2.409
    57   1 H        0.925     0.066     2.135     2.285
    58   1 H        0.924     0.046     2.372     2.408
    59   1 H        0.926     0.039     2.461     2.453
    60   1 H        0.926     0.034     2.533     2.489
    61   1 H        0.926     0.036     2.499     2.472
    62   1 H        0.926     0.041     2.431     2.438

molecular dipole:
                 x           y           z       tot (Debye)
 q only:       -0.000      -1.079      -0.000
   full:       -0.000      -1.372      -0.000       3.488

 projected vibrational frequencies (cm⁻¹)
eigval :       -0.00    -0.00     0.00     0.00     0.00     0.00
eigval :       17.01    20.43    27.00    31.29    32.69    41.61
eigval :       51.15    55.20    64.87    79.34    91.91    92.07
eigval :       94.60   116.27   129.31   146.21   165.17   166.21
eigval :      178.33   182.36   195.43   214.78   224.83   235.47
eigval :      237.07   239.89   244.83   263.39   288.92   316.35
eigval :      319.75   336.63   339.44   377.90   377.94   383.26
eigval :      384.05   390.22   414.87   446.53   449.20   466.50
eigval :      475.00   492.11   494.86   516.10   519.41   551.38
eigval :      560.05   564.54   593.37   599.00   605.82   617.59
eigval :      618.47   641.99   674.18   682.66   683.68   695.97
eigval :      754.50   764.88   786.65   803.81   804.01   808.30
eigval :      809.13   813.54   854.59   855.16   862.76   863.50
eigval :      868.00   900.17   900.47   901.73   904.39   906.60
eigval :      915.11   916.00   923.23   923.33   955.19   997.72
eigval :     1005.57  1015.42  1033.96  1054.37  1054.76  1055.23
eigval :     1056.08  1117.58  1117.58  1117.67  1117.67  1125.49
eigval :     1125.52  1128.36  1129.88  1154.24  1154.48  1155.78
eigval :     1156.13  1163.11  1184.18  1185.16  1185.77  1190.92
eigval :     1215.65  1227.20  1232.48  1245.56  1262.03  1269.58
eigval :     1272.23  1272.34  1273.65  1301.69  1307.07  1324.47
eigval :     1325.49  1328.73  1330.14  1394.47  1394.57  1394.61
eigval :     1394.69  1407.58  1408.17  1409.46  1409.49  1465.24
eigval :     1465.27  1465.33  1465.36  1474.58  1476.07  1476.71
eigval :     1476.79  1479.60  1482.53  1484.56  1484.83  1563.82
eigval :     1564.86  1565.13  1567.04  1587.36  1596.99  1598.28
eigval :     1602.48  1613.05  2933.73  2933.73  2934.27  2934.28
eigval :     2946.63  2946.65  2946.85  2946.86  3023.79  3023.82
eigval :     3024.58  3024.61  3071.88  3073.39  3073.90  3075.48
eigval :     3084.26  3084.33  3086.56  3086.59  3095.24  3095.53
eigval :     3097.45  3097.61  3100.30  3100.63  3100.70  3101.09

   temp. (K)  partition function   enthalpy   heat capacity  entropy
                                   cal/mol     cal/K/mol   cal/K/mol   J/K/mol
 298.15  VIB  0.243E+15            18516.933    111.212    116.242
         ROT  0.169E+08              888.752      2.981     36.053
         INT  0.411E+22            19405.686    114.192    152.295
         TR   0.931E+28             1481.254      4.968     44.198
         TOT                       20886.9396   119.1605   196.4929   822.1263

       T/K    H(0)-H(T)+PV         H(T)/Eh          T*S/Eh         G(T)/Eh
   ------------------------------------------------------------------------
    298.15    0.332855E-01    0.521944E+00    0.933601E-01    0.428583E+00
   ------------------------------------------------------------------------

         :::::::::::::::::::::::::::::::::::::::::::::::::::::
         ::                  THERMODYNAMIC                  ::
         :::::::::::::::::::::::::::::::::::::::::::::::::::::
         :: total free energy         -94.368930980698 Eh   ::
         ::.................................................::
         :: total energy              -94.797514464110 Eh   ::
         :: zero point energy           0.488658144422 Eh   ::
         :: G(RRHO) w/o ZPVE           -0.060074661010 Eh   ::
         :: G(RRHO) contrib.            0.428583483412 Eh   ::
         :::::::::::::::::::::::::::::::::::::::::::::::::::::

           -------------------------------------------------
          | TOTAL ENERGY              -94.797514464110 Eh   |
          | TOTAL ENTHALPY            -94.275570862697 Eh   |
          | TOTAL FREE ENERGY         -94.368930980698 Eh   |
          | GRADIENT NORM               0.000065236682 Eh/α |
          | HOMO-LUMO GAP               2.568224500275 eV   |
           -------------------------------------------------

 * finished run on 2025/09/10 at 02:43:02.267
