   * xtb version 6.7.1 (edcfbbe) compiled by 'albert@albert-system' on 2024-07-22

   ID    Z sym.   atoms
    1    6 C      1, 3-12, 14-20, 22-28, 30-34
    2    8 O      2, 13, 21, 29
    3    1 H      35-62

          program call               : xtb data2507/toluene/TMOE/TMOE_toluene_S0_finalOpt.xtbopt.xyz --gfn 2 --uhf 2 --gbsa toluene --ohess vtight --parallel 40 --molden --ceasefiles --namespace data2507/toluene/TMOE/TMOE_toluene_T1_preOpt
      * Solvation model:               GBSA
        Solvent                        toluene
        Solvent mass                       9.2140E+01 g/mol
          :  Hamiltonian                  GFN2-xTB          :
 * total energy  :   -94.7037169 Eh     change       -0.9772634E-08 Eh
 * total energy  :   -94.7143994 Eh     change       -0.1068256E-01 Eh
 * total energy  :   -94.7181734 Eh     change       -0.3773968E-02 Eh
 * total energy  :   -94.7195146 Eh     change       -0.1341227E-02 Eh
 * total energy  :   -94.7208293 Eh     change       -0.1314652E-02 Eh
 * total energy  :   -94.7219640 Eh     change       -0.1134682E-02 Eh
 * total energy  :   -94.7228902 Eh     change       -0.9262445E-03 Eh
 * total energy  :   -94.7235427 Eh     change       -0.6524460E-03 Eh
 * total energy  :   -94.7240309 Eh     change       -0.4882275E-03 Eh
 * total energy  :   -94.7244554 Eh     change       -0.4244813E-03 Eh
 * total energy  :   -94.7323009 Eh     change       -0.7061966E-06 Eh
 * total energy  :   -94.7323016 Eh     change       -0.7027050E-06 Eh
 * total energy  :   -94.7323023 Eh     change       -0.6975415E-06 Eh
 * total energy  :   -94.7323030 Eh     change       -0.6952961E-06 Eh
 * total energy  :   -94.7323037 Eh     change       -0.6881392E-06 Eh
 * total energy  :   -94.7323043 Eh     change       -0.6857486E-06 Eh
 * total energy  :   -94.7323050 Eh     change       -0.6805899E-06 Eh
 * total energy  :   -94.7323057 Eh     change       -0.6781309E-06 Eh
 * total energy  :   -94.7323057 Eh     change       -0.6753439E-08 Eh
   *** GEOMETRY OPTIMIZATION CONVERGED AFTER 500 ITERATIONS ***

 final structure:
================
62
 xtb: 6.7.1 (edcfbbe)
C           -5.17615107761283       -2.95797030563704       -3.07079476670696
O           -4.31991284280300       -3.51193009093838       -2.09624845432037
C           -3.27662454178367       -2.76117623657071       -1.63792325639287
C           -2.48126669317187       -3.35654294578810       -0.65115032460024
C           -1.40247364858598       -2.69599398674966       -0.12257468617108
C           -1.05821246557006       -1.39261373555507       -0.54609228428772
C            0.02304885190829       -0.66150708733704        0.03057901097339
C           -0.04005979092588        0.81211506669169        0.00973891472600
C           -1.20298642590414        1.44538984306605        0.54177705973410
C           -2.01691995434371        0.78370187590132        1.48293448409841
C           -3.16931076052304        1.35011058300864        1.97868539166478
C           -3.57697500170791        2.60919862570045        1.53933100120644
O           -4.70146436732352        3.26268522004856        1.95219525241789
C           -5.54308074328792        2.63416789930722        2.89370016272735
C           -2.79694183282833        3.27551466668332        0.58627598335859
C           -1.64280086744847        2.71469924274059        0.10350850554028
C            1.06517407025912        1.52812630885384       -0.53942739841885
C            1.93763456238968        0.91332916622891       -1.45977084737366
C            3.04073304181367        1.56208820969767       -1.96647469771359
C            3.33709557567060        2.86280229535479       -1.56042529226183
O            4.40510178702625        3.59765059088107       -1.98563342561647
C            5.31723551376019        3.00886004524890       -2.88623509419130
C            2.49582823310873        3.48683018913111       -0.63112380946478
C            1.39130019159381        2.84274132979599       -0.13674642926170
C            1.16229305215302       -1.28068005350502        0.62644535575071
C            1.61764313868978       -2.55690060093011        0.23955347404527
C            2.75362526719795       -3.11899444963902        0.77905531681150
C            3.48999801017912       -2.43083137928538        1.74214916679989
O            4.62485467622282       -2.89137616034455        2.34354791342038
C            5.10945822396334       -4.16795990091219        1.98876885746921
C            3.06255380544556       -1.15552794784496        2.13342148882752
C            1.93950281631978       -0.59333107163801        1.58595514246884
C           -1.88858090556337       -0.80413498092026       -1.52099938737608
C           -2.96467370410666       -1.47005862811564       -2.06254121716592
H           -5.92576738500802       -3.72253290693225       -3.26900301780530
H           -4.63533344488130       -2.73033325938311       -3.99446326920944
H           -5.66765348395100       -2.05266996702134       -2.70149470554078
H           -2.74924443369109       -4.34513594064352       -0.30953416927573
H           -0.83793308653090       -3.15861778810980        0.67263276367710
H           -1.71188774823287       -0.18701541836069        1.84449239019417
H           -3.74722965139589        0.80519836939248        2.70889872544518
H           -6.36494913749567        3.32894676252085        3.05973805252551
H           -5.02136874155213        2.45513893241898        3.83883108615763
H           -5.93716715320786        1.68891894292716        2.50804786496302
H           -3.13660549745074        4.23775924299601        0.23339235793975
H           -1.08830463802935        3.22921090046932       -0.66648572366792
H            1.71844053114131       -0.08939043402309       -1.79527560552788
H            3.66798015588593        1.04889271995740       -2.67877036827304
H            6.08377612854231        3.76261809628640       -3.05956269512640
H            5.77725921006467        2.11275500181934       -2.45859633797214
H            4.83460293724030        2.75613059999178       -3.83536095621432
H            2.74965002526702        4.48411034736233       -0.30441767574030
H            0.79075315704991        3.32861673458516        0.61701916780526
H            1.09413196235016       -3.08875275047526       -0.54075235160565
H            3.06838357100565       -4.09168098389790        0.43361892009119
H            4.37987785771571       -4.95046414390239        2.21861539560692
H            5.37405789146779       -4.21345726808847        0.92780259376630
H            6.00387032153078       -4.31831327537199        2.59135393581111
H            3.64290079868759       -0.62934109054142        2.87622091449788
H            1.62312758640118        0.38672055596835        1.90976504542223
H           -1.65672524965754        0.19072545426307       -1.87100413050211
H           -3.55834164690497       -0.97740183810778       -2.81686820062755

          :  Hamiltonian                  GFN2-xTB          :
         :: gradient norm              0.000067028425 Eh/a0 ::
         :: HOMO-LUMO gap              1.811942338964 eV    ::
         :: SCC energy               -96.207798627585 Eh    ::
         :: -> dispersion             -0.075433099723 Eh    ::
         :: -> Gsolv                  -0.039691776268 Eh    ::
         :: repulsion energy           1.475492914530 Eh    ::

    * Orbital Energies and Occupations

         #    Occupation            Energy/Eh            Energy/eV
      -------------------------------------------------------------
         1        2.0000           -0.7179185             -19.5356
       ...           ...                  ...                  ...
        75        2.0000           -0.4179306             -11.3725
        76        2.0000           -0.4140137             -11.2659
        77        2.0000           -0.4095105             -11.1433
        78        2.0000           -0.4053810             -11.0310
        79        2.0000           -0.4042340             -10.9998
        80        2.0000           -0.4037138             -10.9856
        81        2.0000           -0.4031409             -10.9700
        82        2.0000           -0.3999997             -10.8845
        83        2.0000           -0.3933187             -10.7027
        84        2.0000           -0.3759348             -10.2297
        85        2.0000           -0.3751812             -10.2092
        86        1.0000           -0.3243117              -8.8250
        87        1.0000           -0.2881258              -7.8403 (HOMO)
        88                         -0.2215381              -6.0284 (LUMO)
        89                         -0.2209387              -6.0120
        90                         -0.2191954              -5.9646
        91                         -0.2175854              -5.9208
        92                         -0.2172472              -5.9116
        93                         -0.2142253              -5.8294
        94                         -0.1863469              -5.0708
        95                         -0.1588012              -4.3212
        96                         -0.0940381              -2.5589
        97                         -0.0892697              -2.4292
        98                         -0.0784323              -2.1343
       ...                                ...                  ...
       164                          0.6904481              18.7880
      -------------------------------------------------------------
                  HL-Gap            0.0665877 Eh            1.8119 eV

     #   Z          covCN         q      C6AA      α(0)
     1   6 C        3.642     0.036    20.314     6.480
     2   8 O        1.705    -0.286    18.751     5.847
     3   6 C        2.863     0.136    25.027     8.200
     4   6 C        2.915    -0.056    29.393     8.890
     5   6 C        2.921    -0.038    28.956     8.824
     6   6 C        2.969     0.005    27.906     8.665
     7   6 C        2.969    -0.013    28.337     8.732
     8   6 C        2.969    -0.013    28.342     8.732
     9   6 C        2.969     0.005    27.904     8.665
    10   6 C        2.925    -0.038    28.948     8.823
    11   6 C        2.912    -0.066    29.652     8.929
    12   6 C        2.863     0.136    25.024     8.200
    13   8 O        1.705    -0.286    18.750     5.846
    14   6 C        3.642     0.036    20.314     6.480
    15   6 C        2.915    -0.056    29.390     8.890
    16   6 C        2.921    -0.038    28.953     8.824
    17   6 C        2.969     0.005    27.904     8.665
    18   6 C        2.925    -0.038    28.951     8.824
    19   6 C        2.912    -0.066    29.651     8.929
    20   6 C        2.863     0.136    25.019     8.199
    21   8 O        1.705    -0.286    18.746     5.846
    22   6 C        3.642     0.036    20.314     6.480
    23   6 C        2.915    -0.056    29.385     8.889
    24   6 C        2.921    -0.038    28.950     8.823
    25   6 C        2.969     0.005    27.904     8.665
    26   6 C        2.923    -0.040    28.997     8.831
    27   6 C        2.912    -0.067    29.673     8.932
    28   6 C        2.863     0.136    25.021     8.199
    29   8 O        1.705    -0.286    18.757     5.847
    30   6 C        3.642     0.036    20.317     6.481
    31   6 C        2.915    -0.055    29.371     8.887
    32   6 C        2.923    -0.036    28.903     8.816
    33   6 C        2.925    -0.038    28.948     8.823
    34   6 C        2.912    -0.066    29.650     8.929
    35   1 H        0.925     0.066     2.126     2.280
    36   1 H        0.924     0.047     2.357     2.401
    37   1 H        0.924     0.047     2.363     2.404
    38   1 H        0.926     0.041     2.429     2.437
    39   1 H        0.926     0.041     2.433     2.439
    40   1 H        0.926     0.034     2.532     2.488
    41   1 H        0.926     0.037     2.491     2.468
    42   1 H        0.925     0.066     2.125     2.280
    43   1 H        0.924     0.047     2.356     2.400
    44   1 H        0.924     0.047     2.362     2.403
    45   1 H        0.926     0.042     2.429     2.437
    46   1 H        0.926     0.041     2.429     2.437
    47   1 H        0.926     0.034     2.533     2.489
    48   1 H        0.926     0.037     2.491     2.468
    49   1 H        0.925     0.066     2.125     2.280
    50   1 H        0.924     0.047     2.360     2.402
    51   1 H        0.924     0.047     2.355     2.400
    52   1 H        0.926     0.042     2.428     2.437
    53   1 H        0.926     0.042     2.428     2.437
    54   1 H        0.926     0.040     2.451     2.448
    55   1 H        0.926     0.039     2.465     2.455
    56   1 H        0.924     0.048     2.350     2.398
    57   1 H        0.924     0.047     2.353     2.399
    58   1 H        0.925     0.066     2.127     2.281
    59   1 H        0.926     0.040     2.453     2.449
    60   1 H        0.926     0.036     2.509     2.477
    61   1 H        0.926     0.034     2.531     2.488
    62   1 H        0.926     0.037     2.492     2.468

molecular dipole:
                 x           y           z       tot (Debye)
 q only:       -0.106      -0.776      -0.518
   full:       -0.136      -0.974      -0.650       2.996

 projected vibrational frequencies (cm⁻¹)
eigval :       -0.00    -0.00    -0.00     0.00     0.00     0.00
eigval :        9.16    19.46    27.09    30.21    34.38    43.02
eigval :       51.98    67.17    77.34    80.19    87.89    90.18
eigval :      101.42   118.34   136.85   156.80   164.86   168.81
eigval :      192.62   195.79   203.60   210.68   220.57   225.41
eigval :      229.35   234.94   257.79   274.18   294.46   304.51
eigval :      320.53   325.61   327.88   352.35   376.81   377.20
eigval :      394.37   396.24   412.68   427.24   448.06   453.72
eigval :      465.31   475.22   492.98   498.33   505.51   514.26
eigval :      560.16   567.39   593.32   597.09   603.59   609.71
eigval :      612.26   623.84   666.13   668.00   674.42   675.02
eigval :      753.76   767.71   772.94   799.87   800.39   803.90
eigval :      805.08   807.99   842.88   843.50   855.37   858.34
eigval :      860.11   894.72   896.00   897.58   902.48   910.41
eigval :      911.81   914.32   938.91   939.19   940.54   988.62
eigval :      995.13  1000.94  1008.54  1052.21  1052.91  1053.15
eigval :     1053.37  1106.45  1115.33  1116.07  1117.26  1117.87
eigval :     1125.91  1126.91  1132.26  1137.64  1153.65  1154.07
eigval :     1155.70  1159.00  1177.24  1177.87  1185.92  1192.58
eigval :     1224.27  1227.34  1227.72  1244.38  1263.98  1266.25
eigval :     1272.52  1273.63  1278.76  1314.81  1322.41  1322.86
eigval :     1327.55  1332.98  1336.96  1340.93  1393.36  1394.52
eigval :     1395.39  1396.15  1411.61  1412.37  1419.62  1424.66
eigval :     1442.00  1446.16  1463.44  1463.58  1463.64  1463.86
eigval :     1466.40  1469.31  1476.11  1477.16  1477.80  1478.06
eigval :     1519.42  1520.54  1522.26  1523.78  1569.52  1571.84
eigval :     1584.99  1591.64  2934.13  2934.78  2935.17  2935.49
eigval :     2946.66  2947.48  2948.02  2948.26  3023.26  3023.68
eigval :     3024.41  3024.62  3081.52  3082.36  3082.53  3083.57
eigval :     3083.88  3084.27  3084.74  3085.60  3094.32  3094.83
eigval :     3095.07  3096.00  3097.98  3098.35  3099.33  3099.84

   temp. (K)  partition function   enthalpy   heat capacity  entropy
                                   cal/mol     cal/K/mol   cal/K/mol   J/K/mol
 298.15  VIB  0.300E+15            18587.120    112.387    116.713
         ROT  0.340E+08              888.752      2.981     37.442
         INT  0.102E+23            19475.873    115.368    154.155
         TR   0.931E+28             1481.254      4.968     44.198
         TOT                       20957.1267   120.3365   198.3527   829.9075

       T/K    H(0)-H(T)+PV         H(T)/Eh          T*S/Eh         G(T)/Eh
   ------------------------------------------------------------------------
    298.15    0.333973E-01    0.519981E+00    0.942437E-01    0.425737E+00
   ------------------------------------------------------------------------

         :::::::::::::::::::::::::::::::::::::::::::::::::::::
         ::                  THERMODYNAMIC                  ::
         :::::::::::::::::::::::::::::::::::::::::::::::::::::
         :: total free energy         -94.306568817781 Eh   ::
         ::.................................................::
         :: total energy              -94.732305712030 Eh   ::
         :: zero point energy           0.486583336956 Eh   ::
         :: G(RRHO) w/o ZPVE           -0.060846442707 Eh   ::
         :: G(RRHO) contrib.            0.425736894249 Eh   ::
         :::::::::::::::::::::::::::::::::::::::::::::::::::::

           -------------------------------------------------
          | TOTAL ENERGY              -94.732305712030 Eh   |
          | TOTAL ENTHALPY            -94.212325067861 Eh   |
          | TOTAL FREE ENERGY         -94.306568817781 Eh   |
          | GRADIENT NORM               0.000067028421 Eh/α |
          | HOMO-LUMO GAP               1.811942526451 eV   |
           -------------------------------------------------

 * finished run on 2025/09/10 at 02:46:03.348
