   * xtb version 6.7.1 (edcfbbe) compiled by 'albert@albert-system' on 2024-07-22

   ID    Z sym.   atoms
    1    6 C      1-10, 12, 14-17, 19-22, 24-33, 35-39
    2    7 N      11, 13, 23, 34
    3   16 S      18
    4    1 H      40-59

          program call               : xtb data2507/toluene/NDN/NDN.xyz --gfn 2 --gbsa toluene --ohess vtight --parallel 40 --molden --ceasefiles --namespace data2507/toluene/NDN/NDN_toluene_S0_preOpt
      * Solvation model:               GBSA
        Solvent                        toluene
        Solvent mass                       9.2140E+01 g/mol
          :  Hamiltonian                  GFN2-xTB          :
 * total energy  :   -98.0665713 Eh     change       -0.5012453E-09 Eh
 * total energy  :   -98.0823517 Eh     change       -0.1578039E-01 Eh
 * total energy  :   -98.0862591 Eh     change       -0.3907378E-02 Eh
 * total energy  :   -98.0869868 Eh     change       -0.7276339E-03 Eh
 * total energy  :   -98.0874674 Eh     change       -0.4806544E-03 Eh
 * total energy  :   -98.0876433 Eh     change       -0.1758872E-03 Eh
 * total energy  :   -98.0877744 Eh     change       -0.1310924E-03 Eh
 * total energy  :   -98.0878570 Eh     change       -0.8256859E-04 Eh
 * total energy  :   -98.0879206 Eh     change       -0.6361951E-04 Eh
 * total energy  :   -98.0879780 Eh     change       -0.5741248E-04 Eh
 * total energy  :   -98.0885829 Eh     change       -0.3089592E-06 Eh
 * total energy  :   -98.0885831 Eh     change       -0.2285461E-06 Eh
 * total energy  :   -98.0885833 Eh     change       -0.1622463E-06 Eh
 * total energy  :   -98.0885834 Eh     change       -0.1383059E-06 Eh
 * total energy  :   -98.0885835 Eh     change       -0.1484870E-06 Eh
 * total energy  :   -98.0885837 Eh     change       -0.1969338E-06 Eh
 * total energy  :   -98.0885840 Eh     change       -0.2475362E-06 Eh
 * total energy  :   -98.0885843 Eh     change       -0.2802530E-06 Eh
 * total energy  :   -98.0885843 Eh     change       -0.1922700E-08 Eh
   *** GEOMETRY OPTIMIZATION CONVERGED AFTER 68 ITERATIONS ***

 final structure:
================
59
 xtb: 6.7.1 (edcfbbe)
C            3.86094872584388       -3.30765807125748        2.36519679682409
C            2.80332620769339       -2.43428977892660        2.61003172510319
C            2.71826336323001       -1.20549579579343        1.98206716162410
C            3.71969313726826       -0.86333274340799        1.08412107707023
C            4.81345431499673       -1.73178187583140        0.85558275629220
C            4.87698048206861       -2.96304063112903        1.49646449053121
C            5.68640400003745       -1.05275772919728       -0.05771832739796
C            6.89521467411021       -1.33596386464400       -0.67360844848097
C            7.42149819780658       -0.36946276032028       -1.51753088638742
C            6.73104576771896        0.82236992104237       -1.71494328098178
N            5.57559910643741        1.12346220069590       -1.14133272879306
C            5.07856021853841        0.20115879922261       -0.33264349074894
N            3.89025812504082        0.29867668491640        0.34821773162448
C            2.99355675877682        1.37665179187778        0.26188746983547
C            3.48792905014980        2.68457786819495        0.30307005130750
C            2.63269495560185        3.76237973173230        0.20885453590769
C            1.27216435818977        3.52598457718813        0.08727172518252
S            0.02295243832100        4.74430145799884       -0.04388812123499
C           -1.20692573278053        3.50511873391524       -0.16179980593122
C           -2.56719544697335        3.71859658529272       -0.31925428769063
C           -3.40627023814933        2.62620919852801       -0.39780647992328
C           -2.89672704828722        1.32654982735842       -0.29800330624376
N           -3.76552613916214        0.22556563405287       -0.37330079209113
C           -5.01303569241839        0.10802150277054        0.22002280536782
C           -5.65121884044900        0.95129481510229        1.11892587020014
C           -6.89941216404975        0.57922141485690        1.58264897106753
C           -7.50463229141329       -0.60861054020621        1.17760363189066
C           -6.86315637671019       -1.46923733048908        0.30947984433375
C           -5.60723284857401       -1.11606318369677       -0.16869454997462
C           -4.66489722048972       -1.76887246903040       -1.03077343869060
C           -4.62328773984870       -2.96155076449978       -1.73533302754476
C           -3.47830524942425       -3.22602001740221       -2.47189236473832
C           -2.43597549227863       -2.30439708710214       -2.47972681052664
N           -2.44529785683870       -1.15638864258147       -1.81852273789897
C           -3.53848829723998       -0.90796857192512       -1.11470339297614
C           -1.53417618491209        1.11466236945658       -0.15555130503047
C           -0.67515401391832        2.20545461999009       -0.09600643406181
C            0.75889663344958        2.21856657692766        0.04269842188072
C            1.63457351605608        1.14137416360583        0.11787911374415
H            3.88863364169655       -4.26035206574571        2.87272792367293
H            2.03306560635918       -2.72133253905815        3.31053987645433
H            1.90487928221634       -0.53087205211605        2.19968956618817
H            5.70814171489992       -3.62886625403147        1.31967658105264
H            7.40732377953371       -2.27187089761939       -0.50369464257722
H            8.36032598231665       -0.53234827569428       -2.02330929799844
H            7.12471380556314        1.58752265711724       -2.37110598125275
H            4.55032558979338        2.83983823954885        0.39511988723866
H            3.01227574266185        4.77165639832880        0.23454004166304
H           -2.95880423105189        4.72108751922229       -0.39159369909847
H           -4.46284906996335        2.77277938505221       -0.55851875123150
H           -5.18558597374007        1.86193764178722        1.46194746454458
H           -7.41443646461573        1.22319914032455        2.28001897283619
H           -8.48237596570015       -0.86143202563218        1.55964476840779
H           -7.31938562073366       -2.40082958846210        0.01041654347894
H           -5.44903917390167       -3.65760914276955       -1.71224930244876
H           -3.38733133478884       -4.13930171921910       -3.03879172087871
H           -1.53436564894392       -2.49397425014895       -3.04753031151802
H           -1.14957241938769        0.10947395831282       -0.10746040637757
H            1.25696360035925        0.13398825352058        0.04094232540292

          :  Hamiltonian                  GFN2-xTB          :
         :: gradient norm              0.000032842754 Eh/a0 ::
         :: HOMO-LUMO gap              2.778070532146 eV    ::
         :: SCC energy               -99.834750660887 Eh    ::
         :: -> dispersion             -0.084406987966 Eh    ::
         :: -> Gsolv                  -0.042205611445 Eh    ::
         :: repulsion energy           1.746166387070 Eh    ::

    * Orbital Energies and Occupations

         #    Occupation            Energy/Eh            Energy/eV
      -------------------------------------------------------------
         1        2.0000           -0.7297175             -19.8566
       ...           ...                  ...                  ...
        79        2.0000           -0.4273053             -11.6276
        80        2.0000           -0.4263001             -11.6002
        81        2.0000           -0.4243038             -11.5459
        82        2.0000           -0.4211067             -11.4589
        83        2.0000           -0.4187012             -11.3934
        84        2.0000           -0.3983616             -10.8400
        85        2.0000           -0.3918233             -10.6621
        86        2.0000           -0.3909786             -10.6391
        87        2.0000           -0.3889923             -10.5850
        88        2.0000           -0.3762450             -10.2381
        89        2.0000           -0.3756916             -10.2231
        90        2.0000           -0.3748452             -10.2001
        91        2.0000           -0.3668212              -9.9817 (HOMO)
        92                         -0.2647290              -7.2036 (LUMO)
        93                         -0.2638910              -7.1808
        94                         -0.2630142              -7.1570
        95                         -0.2467916              -6.7155
        96                         -0.2411109              -6.5610
        97                         -0.2361486              -6.4259
        98                         -0.2345522              -6.3825
        99                         -0.2112471              -5.7483
       100                         -0.2106828              -5.7330
       101                         -0.2017452              -5.4898
       102                         -0.2010622              -5.4712
       ...                                ...                  ...
       181                          0.7372454              20.0615
      -------------------------------------------------------------
                  HL-Gap            0.1020922 Eh            2.7781 eV

     #   Z          covCN         q      C6AA      α(0)
     1   6 C        2.920    -0.040    28.984     8.829
     2   6 C        2.924    -0.032    28.796     8.800
     3   6 C        2.910    -0.049    29.228     8.865
     4   6 C        3.080     0.047    26.857     8.496
     5   6 C        3.065    -0.019    28.426     8.743
     6   6 C        2.912    -0.033    28.816     8.802
     7   6 C        3.065    -0.031    28.699     8.785
     8   6 C        2.919    -0.020    28.497     8.754
     9   6 C        2.917    -0.055    29.370     8.887
    10   6 C        2.930     0.057    26.728     8.478
    11   7 N        1.832    -0.275    27.994     7.840
    12   6 C        3.090     0.141    24.824     8.167
    13   7 N        2.800    -0.051    22.227     7.002
    14   6 C        2.911     0.064    26.558     8.450
    15   6 C        2.925    -0.039    28.969     8.827
    16   6 C        2.934    -0.036    28.899     8.816
    17   6 C        3.002     0.035    27.195     8.554
    18  16 S        2.209    -0.081   144.446    20.228
    19   6 C        3.002     0.035    27.202     8.556
    20   6 C        2.934    -0.038    28.942     8.823
    21   6 C        2.925    -0.045    29.117     8.849
    22   6 C        2.911     0.063    26.580     8.454
    23   7 N        2.799    -0.051    22.225     7.002
    24   6 C        3.079     0.047    26.861     8.497
    25   6 C        2.910    -0.049    29.227     8.865
    26   6 C        2.923    -0.032    28.788     8.799
    27   6 C        2.920    -0.039    28.976     8.827
    28   6 C        2.912    -0.033    28.813     8.802
    29   6 C        3.065    -0.019    28.425     8.743
    30   6 C        3.065    -0.031    28.694     8.784
    31   6 C        2.919    -0.019    28.494     8.754
    32   6 C        2.917    -0.055    29.368     8.887
    33   6 C        2.929     0.057    26.728     8.478
    34   7 N        1.832    -0.276    28.021     7.844
    35   6 C        3.090     0.141    24.831     8.168
    36   6 C        2.920    -0.043    29.058     8.840
    37   6 C        3.104     0.000    27.886     8.653
    38   6 C        3.105    -0.001    27.904     8.655
    39   6 C        2.920    -0.047    29.172     8.857
    40   1 H        0.926     0.036     2.499     2.472
    41   1 H        0.926     0.038     2.471     2.458
    42   1 H        0.926     0.038     2.477     2.461
    43   1 H        0.926     0.037     2.486     2.466
    44   1 H        0.926     0.039     2.462     2.454
    45   1 H        0.926     0.037     2.488     2.467
    46   1 H        0.925     0.035     2.518     2.481
    47   1 H        0.926     0.058     2.221     2.330
    48   1 H        0.926     0.054     2.271     2.357
    49   1 H        0.926     0.054     2.274     2.358
    50   1 H        0.926     0.053     2.284     2.364
    51   1 H        0.926     0.040     2.452     2.449
    52   1 H        0.926     0.040     2.454     2.450
    53   1 H        0.926     0.037     2.494     2.470
    54   1 H        0.926     0.037     2.488     2.467
    55   1 H        0.926     0.039     2.459     2.452
    56   1 H        0.926     0.037     2.492     2.469
    57   1 H        0.925     0.033     2.537     2.491
    58   1 H        0.926     0.057     2.231     2.336
    59   1 H        0.926     0.052     2.294     2.369

molecular dipole:
                 x           y           z       tot (Debye)
 q only:       -0.636      -0.030       0.645
   full:       -0.634      -0.776       0.578       2.939

 projected vibrational frequencies (cm⁻¹)
eigval :       -0.00    -0.00    -0.00     0.00     0.00     0.00
eigval :       12.91    15.36    23.19    33.51    46.37    50.39
eigval :       85.65   101.37   102.26   110.91   119.82   136.63
eigval :      140.05   156.26   169.90   175.02   224.92   238.18
eigval :      271.23   274.15   278.08   279.33   282.81   316.33
eigval :      325.15   366.11   383.67   392.34   395.41   398.85
eigval :      418.29   423.60   424.84   434.79   436.65   441.10
eigval :      456.95   506.18   515.22   517.26   523.61   532.76
eigval :      537.97   546.53   547.80   550.02   579.36   590.04
eigval :      594.89   597.41   626.33   643.93   663.45   666.06
eigval :      669.28   687.40   688.14   691.96   717.73   723.80
eigval :      724.45   740.15   761.36   769.36   773.30   774.21
eigval :      791.92   793.58   816.28   818.13   822.94   858.31
eigval :      868.12   873.67   886.09   901.52   902.24   902.69
eigval :      904.64   906.23   908.20   910.03   911.03   914.16
eigval :      916.14   925.25   926.51   930.28  1000.85  1011.31
eigval :     1019.21  1019.82  1049.20  1070.37  1071.35  1086.05
eigval :     1087.68  1090.37  1115.62  1120.45  1147.73  1149.15
eigval :     1160.18  1161.92  1169.79  1175.62  1178.59  1182.34
eigval :     1216.34  1217.11  1220.90  1223.26  1228.23  1242.89
eigval :     1269.53  1282.95  1285.49  1295.66  1297.48  1331.30
eigval :     1333.73  1336.35  1339.38  1341.82  1342.44  1353.81
eigval :     1355.13  1389.33  1396.00  1403.61  1414.57  1420.37
eigval :     1440.70  1455.35  1461.88  1464.68  1473.75  1480.43
eigval :     1480.81  1548.49  1550.50  1560.44  1561.68  1571.38
eigval :     1571.56  1581.51  1583.94  1591.79  1591.94  1610.60
eigval :     1610.78  3055.35  3057.00  3073.39  3074.74  3078.07
eigval :     3079.04  3083.41  3083.53  3092.09  3092.60  3096.18
eigval :     3096.22  3096.53  3099.07  3099.37  3100.46  3103.16
eigval :     3107.27  3119.25  3119.53

   temp. (K)  partition function   enthalpy   heat capacity  entropy
                                   cal/mol     cal/K/mol   cal/K/mol   J/K/mol
 298.15  VIB  0.638E+12            16374.205    108.596     98.999
         ROT  0.500E+08              888.752      2.981     38.210
         INT  0.319E+20            17262.957    111.577    137.209
         TR   0.114E+29             1481.254      4.968     44.593
         TOT                       18744.2114   116.5450   181.8018   760.6586

       T/K    H(0)-H(T)+PV         H(T)/Eh          T*S/Eh         G(T)/Eh
   ------------------------------------------------------------------------
    298.15    0.298708E-01    0.465899E+00    0.863799E-01    0.379519E+00
   ------------------------------------------------------------------------

         :::::::::::::::::::::::::::::::::::::::::::::::::::::
         ::                  THERMODYNAMIC                  ::
         :::::::::::::::::::::::::::::::::::::::::::::::::::::
         :: total free energy         -97.709065471219 Eh   ::
         ::.................................................::
         :: total energy              -98.088584272561 Eh   ::
         :: zero point energy           0.436027883966 Eh   ::
         :: G(RRHO) w/o ZPVE           -0.056509082624 Eh   ::
         :: G(RRHO) contrib.            0.379518801342 Eh   ::
         :::::::::::::::::::::::::::::::::::::::::::::::::::::

           -------------------------------------------------
          | TOTAL ENERGY              -98.088584272561 Eh   |
          | TOTAL ENTHALPY            -97.622685586379 Eh   |
          | TOTAL FREE ENERGY         -97.709065471219 Eh   |
          | GRADIENT NORM               0.000032846010 Eh/α |
          | HOMO-LUMO GAP               2.778070297733 eV   |
           -------------------------------------------------

 * finished run on 2025/07/16 at 19:07:49.969
