   * xtb version 6.7.1 (edcfbbe) compiled by 'albert@albert-system' on 2024-07-22

   ID    Z sym.   atoms
    1    6 C      1-10, 12, 14-17, 19-22, 24-33, 35-39
    2    7 N      11, 13, 23, 34
    3   16 S      18
    4    1 H      40-59

          program call               : xtb data2507/toluene/NDN/NDN_toluene_T1_crest.xyz --gfn 2 --uhf 2 --gbsa toluene --ohess vtight --parallel 40 --molden --ceasefiles --namespace data2507/toluene/NDN/NDN_toluene_T1_finalOpt
      * Solvation model:               GBSA
        Solvent                        toluene
        Solvent mass                       9.2140E+01 g/mol
          :  Hamiltonian                  GFN2-xTB          :
 * total energy  :   -97.9867990 Eh     change       -0.7921273E-09 Eh
 * total energy  :   -97.9868420 Eh     change       -0.4301232E-04 Eh
 * total energy  :   -97.9868641 Eh     change       -0.2202222E-04 Eh
 * total energy  :   -97.9868744 Eh     change       -0.1036401E-04 Eh
 * total energy  :   -97.9868874 Eh     change       -0.1295183E-04 Eh
 * total energy  :   -97.9869016 Eh     change       -0.1424400E-04 Eh
 * total energy  :   -97.9869145 Eh     change       -0.1282069E-04 Eh
 * total energy  :   -97.9869263 Eh     change       -0.1181951E-04 Eh
 * total energy  :   -97.9869385 Eh     change       -0.1225036E-04 Eh
 * total energy  :   -97.9869517 Eh     change       -0.1319840E-04 Eh
 * total energy  :   -97.9869778 Eh     change       -0.3074565E-05 Eh
 * total energy  :   -97.9869803 Eh     change       -0.2581678E-05 Eh
 * total energy  :   -97.9869826 Eh     change       -0.2291978E-05 Eh
 * total energy  :   -97.9869845 Eh     change       -0.1889497E-05 Eh
 * total energy  :   -97.9869862 Eh     change       -0.1709342E-05 Eh
 * total energy  :   -97.9869878 Eh     change       -0.1581934E-05 Eh
 * total energy  :   -97.9869892 Eh     change       -0.1330484E-05 Eh
 * total energy  :   -97.9869900 Eh     change       -0.8435836E-06 Eh
 * total energy  :   -97.9869900 Eh     change       -0.7609913E-08 Eh
   *** GEOMETRY OPTIMIZATION CONVERGED AFTER 22 ITERATIONS ***

 final structure:
================
59
 xtb: 6.7.1 (edcfbbe)
C            7.54475551564050       -0.40395006103607       -1.88019590032480
C            6.90753042102740        0.82943688050040       -1.97883981318852
C            5.66082107740415        1.04583833320557       -1.40630273566754
C            5.07162887591290        0.00093636062770       -0.71387269940633
C            5.69514030648714       -1.27321670927977       -0.64969980296718
C            6.94440695100630       -1.46758377231903       -1.22999708031514
C            4.78648134884211       -2.14064971660857        0.03356213816756
C            4.78780830055034       -3.48140155196334        0.42011294667392
C            3.66310897362522       -3.94654354059856        1.08628618336007
C            2.60186228153246       -3.08730844361093        1.34569573119553
N            2.57495486507421       -1.80140765019432        0.98750086350893
C            3.64329890221851       -1.36343599227658        0.34794926864798
N            3.83476541985548       -0.06368643110711       -0.08391295358207
C            2.96426452437218        0.99264184817253        0.16103766622287
C            3.47417772276207        2.26436853506721        0.48512135587166
C            2.60637691011808        3.31762926980853        0.73821892250271
C            1.24624604913541        3.09710103620289        0.66718948695951
S           -0.00612153088498        4.28221287149020        0.95003260658524
C           -1.25817176674346        3.09063526882980        0.69088291665250
C           -2.61861794882919        3.31287405189914        0.75534232393618
C           -3.48594125444970        2.25337755850209        0.52744388332287
C           -2.97601200508871        0.97655608612054        0.24031555367712
N           -3.85521941970979       -0.08101635899173        0.03052194009440
C           -3.66503186779066       -1.40293095204224        0.41461071216662
C           -2.68658255911889       -1.95960109405278        1.22210083693352
C           -2.75284061779921       -3.32256395199555        1.48058121434435
C           -3.77734687040364       -4.10919320872651        0.96282155194217
C           -4.78412216478749       -3.55408248578528        0.19275460488264
C           -4.73779983773427       -2.19071153632036       -0.07910758422810
C           -5.61459335680933       -1.29983284510743       -0.77475172360416
C           -6.81303858396878       -1.42647268743233       -1.47694492799403
C           -7.35247757821354       -0.26903090540340       -2.01961227637028
C           -6.69932758387057        0.94717922898316       -1.85506162059516
N           -5.55588390658888        1.09593715373213       -1.18430346341975
C           -5.04566099112700       -0.00521703906879       -0.66663936580435
C           -1.60233023949667        0.75973810504827        0.14492951316107
C           -0.71730458658840        1.81466696785730        0.37666795370635
C            0.70657547535189        1.81734013740925        0.36005074542265
C            1.59150098771196        0.76758162499369        0.10867687229189
H            8.51638604252500       -0.53486519170225       -2.33313173184339
H            7.38598094636507        1.63378627978450       -2.51645602700049
H            5.16507360395021        1.99646245516359       -1.52266443499300
H            7.42675950002383       -2.43169095137841       -1.17820806330166
H            5.62768524581067       -4.12605513593433        0.21051010842551
H            3.60359700869575       -4.97512124442922        1.40773274190466
H            1.71858249088932       -3.43165600057186        1.86500468481850
H            4.53610875544187        2.40594694995845        0.59356230692649
H            2.99183591833129        4.28899368342007        1.00554569202398
H           -3.00450492578428        4.29096534603528        0.99557898597939
H           -4.55076547501129        2.39821019478731        0.57552530749463
H           -1.90359489712214       -1.35995184873696        1.65903349908422
H           -1.99713649123013       -3.77623756847511        2.10334565451831
H           -3.79353011882734       -5.16690866073619        1.18046773822445
H           -5.59365571046746       -4.15967929412006       -0.18490441873458
H           -7.29679724864622       -2.38413547442094       -1.59447753168530
H           -8.28005973076455       -0.30274792605975       -2.57018556174763
H           -7.10342130174873        1.85968857959288       -2.27050960721308
H           -1.21931017428930       -0.20380739606441       -0.14896194343404
H            1.22007111203403       -0.21401311494119       -0.13090256321190

          :  Hamiltonian                  GFN2-xTB          :
         :: gradient norm              0.000065404422 Eh/a0 ::
         :: HOMO-LUMO gap              0.033232719941 eV    ::
         :: SCC energy               -99.713880845740 Eh    ::
         :: -> dispersion             -0.085209840706 Eh    ::
         :: -> Gsolv                  -0.042165873782 Eh    ::
         :: repulsion energy           1.726890843738 Eh    ::

    * Orbital Energies and Occupations

         #    Occupation            Energy/Eh            Energy/eV
      -------------------------------------------------------------
         1        2.0000           -0.7383638             -20.0919
       ...           ...                  ...                  ...
        80        2.0000           -0.4265567             -11.6072
        81        2.0000           -0.4240446             -11.5388
        82        2.0000           -0.4210393             -11.4571
        83        2.0000           -0.4187001             -11.3934
        84        2.0000           -0.3947448             -10.7416
        85        2.0000           -0.3930948             -10.6967
        86        2.0000           -0.3894194             -10.5966
        87        2.0000           -0.3891692             -10.5898
        88        1.9942           -0.3763575             -10.2412
        89        1.9824           -0.3752892             -10.2121
        90        1.9759           -0.3749838             -10.2038
        91        1.0475           -0.3686194             -10.0306
        92        0.5646           -0.2644117              -7.1950 (HOMO)
        93        0.2640           -0.2631905              -7.1618 (LUMO)
        94        0.1714           -0.2626678              -7.1476
        95                         -0.2463669              -6.7040
        96                         -0.2409712              -6.5572
        97                         -0.2363971              -6.4327
        98                         -0.2352149              -6.4005
        99                         -0.2124471              -5.7810
       100                         -0.2098087              -5.7092
       101                         -0.2021611              -5.5011
       102                         -0.2003582              -5.4520
       103                         -0.2002536              -5.4492
       ...                                ...                  ...
       181                          0.7340117              19.9735
      -------------------------------------------------------------
                  HL-Gap            0.0012212 Eh            0.0332 eV

     #   Z          covCN         q      C6AA      α(0)
     1   6 C        2.918    -0.033    28.824     8.804
     2   6 C        2.922    -0.039    28.958     8.825
     3   6 C        2.909    -0.045    29.112     8.847
     4   6 C        3.067     0.043    26.963     8.514
     5   6 C        3.063    -0.020    28.434     8.744
     6   6 C        2.911    -0.035    28.870     8.811
     7   6 C        3.060    -0.032    28.738     8.791
     8   6 C        2.917    -0.031    28.783     8.798
     9   6 C        2.915    -0.048    29.202     8.861
    10   6 C        2.924     0.045    26.995     8.520
    11   7 N        1.832    -0.279    28.081     7.853
    12   6 C        3.077     0.141    24.864     8.175
    13   7 N        2.799    -0.030    21.819     6.938
    14   6 C        2.908     0.070    26.440     8.431
    15   6 C        2.921    -0.065    29.612     8.924
    16   6 C        2.932    -0.037    28.930     8.821
    17   6 C        2.997     0.024    27.462     8.596
    18  16 S        2.214     0.003   140.951    19.982
    19   6 C        2.997     0.025    27.443     8.593
    20   6 C        2.933    -0.035    28.883     8.814
    21   6 C        2.922    -0.058    29.441     8.898
    22   6 C        2.908     0.071    26.422     8.429
    23   7 N        2.799    -0.029    21.806     6.936
    24   6 C        3.068     0.043    26.957     8.514
    25   6 C        2.909    -0.044    29.097     8.845
    26   6 C        2.922    -0.038    28.933     8.821
    27   6 C        2.918    -0.033    28.824     8.804
    28   6 C        2.911    -0.035    28.862     8.809
    29   6 C        3.063    -0.019    28.422     8.742
    30   6 C        3.060    -0.031    28.720     8.788
    31   6 C        2.917    -0.031    28.762     8.794
    32   6 C        2.915    -0.048    29.193     8.860
    33   6 C        2.924     0.045    26.981     8.518
    34   7 N        1.832    -0.273    27.931     7.832
    35   6 C        3.076     0.141    24.862     8.175
    36   6 C        2.917    -0.052    29.292     8.875
    37   6 C        3.099    -0.009    28.109     8.688
    38   6 C        3.098    -0.008    28.107     8.688
    39   6 C        2.917    -0.047    29.173     8.857
    40   1 H        0.926     0.038     2.472     2.458
    41   1 H        0.926     0.039     2.460     2.453
    42   1 H        0.926     0.043     2.403     2.424
    43   1 H        0.926     0.037     2.490     2.468
    44   1 H        0.926     0.034     2.528     2.487
    45   1 H        0.926     0.035     2.519     2.482
    46   1 H        0.926     0.030     2.581     2.512
    47   1 H        0.926     0.047     2.363     2.404
    48   1 H        0.926     0.051     2.309     2.376
    49   1 H        0.926     0.052     2.297     2.370
    50   1 H        0.926     0.056     2.246     2.344
    51   1 H        0.926     0.044     2.398     2.422
    52   1 H        0.926     0.038     2.471     2.458
    53   1 H        0.926     0.039     2.467     2.456
    54   1 H        0.926     0.038     2.475     2.460
    55   1 H        0.926     0.036     2.503     2.474
    56   1 H        0.926     0.036     2.496     2.471
    57   1 H        0.926     0.033     2.547     2.496
    58   1 H        0.926     0.050     2.320     2.382
    59   1 H        0.926     0.058     2.222     2.331

molecular dipole:
                 x           y           z       tot (Debye)
 q only:        0.592       0.398       0.066
   full:        0.632      -0.310      -0.080       1.801

 projected vibrational frequencies (cm⁻¹)
eigval :       -0.00    -0.00    -0.00     0.00     0.00     0.00
eigval :       17.10    20.38    26.11    36.91    46.05    51.97
eigval :       84.58    99.94   109.35   110.29   120.63   132.82
eigval :      138.63   156.79   172.45   176.69   211.85   239.42
eigval :      267.21   268.93   269.86   272.95   281.63   301.61
eigval :      323.78   353.16   370.29   377.54   379.30   380.97
eigval :      405.34   419.98   421.52   429.58   432.47   437.94
eigval :      453.50   501.70   507.47   507.95   517.67   525.04
eigval :      525.44   531.97   535.43   552.02   563.97   578.08
eigval :      580.13   602.25   606.11   635.54   648.89   657.74
eigval :      658.40   659.51   675.45   676.70   706.07   706.36
eigval :      708.14   733.75   751.37   759.24   760.38   761.68
eigval :      770.52   771.51   780.80   789.30   805.04   813.10
eigval :      830.23   854.97   855.68   859.31   862.08   869.88
eigval :      874.33   891.58   896.19   898.76   899.46   903.12
eigval :      905.63   908.61   910.24   913.88   982.14   985.57
eigval :     1010.05  1011.76  1032.33  1042.14  1064.85  1068.68
eigval :     1079.13  1083.78  1103.43  1105.81  1133.60  1137.30
eigval :     1144.79  1149.81  1157.54  1161.35  1170.07  1170.53
eigval :     1193.53  1198.78  1208.52  1218.38  1221.82  1224.01
eigval :     1251.96  1256.21  1266.22  1271.04  1276.47  1284.62
eigval :     1304.84  1313.48  1322.00  1324.10  1332.23  1337.25
eigval :     1357.14  1362.87  1367.14  1373.18  1386.89  1395.03
eigval :     1400.92  1405.51  1426.28  1429.58  1436.43  1441.82
eigval :     1449.01  1460.86  1461.07  1479.95  1486.12  1493.70
eigval :     1497.24  1521.54  1534.67  1545.46  1559.05  1559.84
eigval :     1593.38  3065.23  3066.05  3078.28  3078.73  3079.55
eigval :     3080.16  3088.31  3088.35  3092.58  3093.33  3094.10
eigval :     3094.48  3095.43  3098.13  3101.14  3103.32  3109.20
eigval :     3119.44  3125.76  3137.01

   temp. (K)  partition function   enthalpy   heat capacity  entropy
                                   cal/mol     cal/K/mol   cal/K/mol   J/K/mol
 298.15  VIB  0.404E+12            16682.154    111.219    100.118
         ROT  0.497E+08              888.752      2.981     38.197
         INT  0.201E+20            17570.907    114.200    138.314
         TR   0.114E+29             1481.254      4.968     44.593
         TOT                       19052.1605   119.1677   182.9068   765.2822

       T/K    H(0)-H(T)+PV         H(T)/Eh          T*S/Eh         G(T)/Eh
   ------------------------------------------------------------------------
    298.15    0.303616E-01    0.460278E+00    0.869049E-01    0.373373E+00
   ------------------------------------------------------------------------

         :::::::::::::::::::::::::::::::::::::::::::::::::::::
         ::                  THERMODYNAMIC                  ::
         :::::::::::::::::::::::::::::::::::::::::::::::::::::
         :: total free energy         -97.613616822216 Eh   ::
         ::.................................................::
         :: total energy              -97.986990000390 Eh   ::
         :: zero point energy           0.429916563540 Eh   ::
         :: G(RRHO) w/o ZPVE           -0.056543385366 Eh   ::
         :: G(RRHO) contrib.            0.373373178175 Eh   ::
         :::::::::::::::::::::::::::::::::::::::::::::::::::::

           -------------------------------------------------
          | TOTAL ENERGY              -97.986990000390 Eh   |
          | TOTAL ENTHALPY            -97.526711886537 Eh   |
          | TOTAL FREE ENERGY         -97.613616822216 Eh   |
          | GRADIENT NORM               0.000064995506 Eh/α |
          | HOMO-LUMO GAP               0.033230859618 eV   |
           -------------------------------------------------

 * finished run on 2025/07/16 at 19:15:03.001
