   * xtb version 6.7.1 (edcfbbe) compiled by 'albert@albert-system' on 2024-07-22

   ID    Z sym.   atoms
    1    6 C      1-10, 12, 14-17, 19-22, 24-33, 35-39
    2    7 N      11, 13, 23, 34
    3   16 S      18
    4    1 H      40-59

          program call               : xtb data2507/toluene/NDN/NDN_toluene_S0_finalOpt.xtbopt.xyz --gfn 2 --uhf 2 --gbsa toluene --ohess vtight --parallel 40 --molden --ceasefiles --namespace data2507/toluene/NDN/NDN_toluene_T1_preOpt
      * Solvation model:               GBSA
        Solvent                        toluene
        Solvent mass                       9.2140E+01 g/mol
          :  Hamiltonian                  GFN2-xTB          :
 * total energy  :   -97.9849231 Eh     change        0.3324686E-08 Eh
 * total energy  :   -97.9864523 Eh     change       -0.1529236E-02 Eh
 * total energy  :   -97.9868461 Eh     change       -0.3937319E-03 Eh
 * total energy  :   -97.9868924 Eh     change       -0.4632256E-04 Eh
 * total energy  :   -97.9869263 Eh     change       -0.3387511E-04 Eh
 * total energy  :   -97.9869404 Eh     change       -0.1410339E-04 Eh
 * total energy  :   -97.9869543 Eh     change       -0.1392744E-04 Eh
 * total energy  :   -97.9869673 Eh     change       -0.1304332E-04 Eh
 * total energy  :   -97.9869745 Eh     change       -0.7145445E-05 Eh
 * total energy  :   -97.9869829 Eh     change       -0.8454879E-05 Eh
 * total energy  :   -97.9869918 Eh     change       -0.9169449E-06 Eh
 * total energy  :   -97.9869927 Eh     change       -0.8462277E-06 Eh
 * total energy  :   -97.9869936 Eh     change       -0.9690077E-06 Eh
 * total energy  :   -97.9869946 Eh     change       -0.9750151E-06 Eh
 * total energy  :   -97.9869956 Eh     change       -0.9719613E-06 Eh
 * total energy  :   -97.9869964 Eh     change       -0.8613693E-06 Eh
 * total energy  :   -97.9869971 Eh     change       -0.6741720E-06 Eh
 * total energy  :   -97.9869977 Eh     change       -0.5944918E-06 Eh
 * total energy  :   -97.9869977 Eh     change       -0.5393488E-08 Eh
   *** GEOMETRY OPTIMIZATION CONVERGED AFTER 22 ITERATIONS ***

 final structure:
================
59
 xtb: 6.7.1 (edcfbbe)
C            7.48200870405770       -0.40791040239326       -1.97560890487973
C            6.84934662498207        0.82981715881557       -2.04526286718952
C            5.62202354587646        1.04868383675558       -1.43318442609891
C            5.04767254835204        0.00088367522411       -0.73279611113787
C            5.66659127886654       -1.27658500604104       -0.69482960080931
C            6.89653470622089       -1.47307195642711       -1.31428529079174
C            4.77255548420193       -2.14490873645102        0.00663921187684
C            4.77733604245851       -3.48818692748008        0.38421828168086
C            3.66647281821905       -3.95335946235627        1.07341120399838
C            2.61511990107516       -3.09179321216628        1.36395052676626
N            2.58605525326374       -1.80303992759004        1.01661413955891
C            3.64096318913043       -1.36512827875454        0.35506466273448
N            3.82758243873097       -0.06336398071567       -0.07163955076172
C            2.96103065487441        0.99218470899519        0.19042232163463
C            3.47448252448808        2.26203713304996        0.51584262528093
C            2.60913337097906        3.31457357345650        0.78145445123958
C            1.24831180128527        3.09563980200585        0.71802326813819
S           -0.00283304378593        4.28123759215563        1.00599785177654
C           -1.25724286754171        3.09348717683265        0.73786707397483
C           -2.61758952095276        3.31915000707837        0.79122829608155
C           -3.48578291429743        2.26279942571161        0.55029587146757
C           -2.97624251527618        0.98538720785163        0.26660584873412
N           -3.85484621570659       -0.07031332994565        0.04303147319712
C           -3.67565459183821       -1.39025521704310        0.43745669491954
C           -2.71788877238195       -1.94275146431491        1.27210566287230
C           -2.79202335742854       -3.30405148188986        1.53672992921688
C           -3.80450353420991       -4.09238261300012        0.99809469591944
C           -4.78973345258262       -3.54145709522693        0.19761520676251
C           -4.73486351475618       -2.17987636788620       -0.08161080437214
C           -5.58974058344324       -1.29210879328535       -0.80808272186899
C           -6.76259074095336       -1.42237332248737       -1.55138690639183
C           -7.28188556289287       -0.26787930305928       -2.11956060090250
C           -6.63545181683296        0.94944711760970       -1.93775388138200
N           -5.51616954889353        1.10189578722550       -1.22821156590388
C           -5.02381721753881        0.00303398966818       -0.68894264158807
C           -1.60278860238182        0.76401231104575        0.18581091848042
C           -0.71739454965833        1.81707777549486        0.42411539012780
C            0.70605304782489        1.81751117125256        0.40881591521354
C            1.58814273296902        0.76758187135454        0.14921261641489
H            8.43795648999597       -0.54101349963385       -2.46015310045983
H            7.31559221071656        1.63542119813502       -2.59164368915620
H            5.12806279343189        2.00280145820927       -1.52643867285738
H            7.37489990486870       -2.44009837391513       -1.28444799732074
H            5.60894747283350       -4.13506903921009        0.15002479265932
H            3.61022236734246       -4.98390711566211        1.38906078040950
H            1.74231043309771       -3.43630105035316        1.90069315075562
H            4.53765810180506        2.40266747588902        0.61354252365600
H            2.99738356620448        4.28444375102129        1.05019511839013
H           -3.00319286986722        4.29751063234746        1.03081878405497
H           -4.55080526841548        2.41053640199307        0.58586553122024
H           -1.94509111717875       -1.34054617815105        1.72355013690908
H           -2.05264410025738       -3.75490217102517        2.18084570612460
H           -3.82788158338400       -5.14863416512442        1.22211668908214
H           -5.58936093200867       -4.14886310445850       -0.19785228695575
H           -7.24158969298790       -2.38079983081173       -1.68164963699410
H           -8.18867095859248       -0.30481228611160       -2.70353847408383
H           -7.02497508704364        1.85964520172198       -2.37176212185598
H           -1.22006812626990       -0.20124457905378       -0.10310357119916
H            1.21413476374410       -0.21265607291991       -0.09199515713119

          :  Hamiltonian                  GFN2-xTB          :
         :: gradient norm              0.000076646266 Eh/a0 ::
         :: HOMO-LUMO gap              0.033962372430 eV    ::
         :: SCC energy               -99.714089077911 Eh    ::
         :: -> dispersion             -0.085136945319 Eh    ::
         :: -> Gsolv                  -0.042218445455 Eh    ::
         :: repulsion energy           1.727091360904 Eh    ::

    * Orbital Energies and Occupations

         #    Occupation            Energy/Eh            Energy/eV
      -------------------------------------------------------------
         1        2.0000           -0.7383139             -20.0905
       ...           ...                  ...                  ...
        80        2.0000           -0.4266445             -11.6096
        81        2.0000           -0.4240606             -11.5393
        82        2.0000           -0.4210788             -11.4581
        83        2.0000           -0.4187484             -11.3947
        84        2.0000           -0.3946523             -10.7390
        85        2.0000           -0.3930577             -10.6956
        86        2.0000           -0.3894828             -10.5984
        87        2.0000           -0.3892295             -10.5915
        88        1.9940           -0.3764283             -10.2431
        89        1.9816           -0.3753483             -10.2137
        90        1.9765           -0.3751103             -10.2073
        91        1.0478           -0.3687266             -10.0336
        92        0.5686           -0.2644567              -7.1962 (HOMO)
        93        0.2616           -0.2632086              -7.1623 (LUMO)
        94        0.1698           -0.2626870              -7.1481
        95                         -0.2463183              -6.7027
        96                         -0.2409163              -6.5557
        97                         -0.2364482              -6.4341
        98                         -0.2352276              -6.4009
        99                         -0.2124240              -5.7804
       100                         -0.2098483              -5.7103
       101                         -0.2022553              -5.5036
       102                         -0.2004149              -5.4536
       103                         -0.2003178              -5.4509
       ...                                ...                  ...
       181                          0.7339658              19.9722
      -------------------------------------------------------------
                  HL-Gap            0.0012481 Eh            0.0340 eV

     #   Z          covCN         q      C6AA      α(0)
     1   6 C        2.918    -0.033    28.824     8.804
     2   6 C        2.922    -0.038    28.956     8.824
     3   6 C        2.909    -0.045    29.112     8.847
     4   6 C        3.067     0.043    26.961     8.514
     5   6 C        3.063    -0.020    28.434     8.744
     6   6 C        2.911    -0.035    28.868     8.810
     7   6 C        3.060    -0.032    28.738     8.791
     8   6 C        2.917    -0.031    28.783     8.798
     9   6 C        2.915    -0.048    29.202     8.861
    10   6 C        2.924     0.045    26.994     8.520
    11   7 N        1.832    -0.279    28.075     7.852
    12   6 C        3.077     0.141    24.863     8.175
    13   7 N        2.799    -0.030    21.817     6.937
    14   6 C        2.908     0.070    26.440     8.431
    15   6 C        2.921    -0.065    29.609     8.923
    16   6 C        2.932    -0.037    28.929     8.821
    17   6 C        2.996     0.024    27.461     8.596
    18  16 S        2.214     0.002   140.956    19.982
    19   6 C        2.996     0.025    27.442     8.593
    20   6 C        2.933    -0.035    28.882     8.814
    21   6 C        2.922    -0.058    29.435     8.897
    22   6 C        2.909     0.071    26.423     8.429
    23   7 N        2.800    -0.029    21.812     6.937
    24   6 C        3.069     0.044    26.954     8.513
    25   6 C        2.909    -0.044    29.096     8.845
    26   6 C        2.922    -0.037    28.932     8.821
    27   6 C        2.918    -0.033    28.825     8.804
    28   6 C        2.911    -0.035    28.861     8.809
    29   6 C        3.063    -0.019    28.423     8.743
    30   6 C        3.061    -0.031    28.719     8.788
    31   6 C        2.917    -0.030    28.761     8.794
    32   6 C        2.915    -0.048    29.194     8.860
    33   6 C        2.924     0.046    26.978     8.518
    34   7 N        1.832    -0.273    27.929     7.831
    35   6 C        3.076     0.141    24.858     8.174
    36   6 C        2.917    -0.052    29.290     8.875
    37   6 C        3.100    -0.009    28.110     8.688
    38   6 C        3.098    -0.008    28.107     8.688
    39   6 C        2.918    -0.047    29.169     8.856
    40   1 H        0.926     0.038     2.471     2.458
    41   1 H        0.926     0.039     2.459     2.452
    42   1 H        0.926     0.043     2.404     2.424
    43   1 H        0.926     0.037     2.489     2.467
    44   1 H        0.926     0.034     2.527     2.486
    45   1 H        0.926     0.035     2.518     2.482
    46   1 H        0.926     0.031     2.579     2.511
    47   1 H        0.926     0.046     2.364     2.404
    48   1 H        0.926     0.051     2.309     2.376
    49   1 H        0.926     0.052     2.297     2.370
    50   1 H        0.926     0.055     2.255     2.348
    51   1 H        0.926     0.044     2.402     2.424
    52   1 H        0.926     0.038     2.470     2.458
    53   1 H        0.926     0.039     2.466     2.456
    54   1 H        0.926     0.038     2.474     2.460
    55   1 H        0.926     0.036     2.502     2.474
    56   1 H        0.926     0.037     2.496     2.470
    57   1 H        0.926     0.033     2.546     2.495
    58   1 H        0.926     0.050     2.326     2.385
    59   1 H        0.926     0.058     2.228     2.334

molecular dipole:
                 x           y           z       tot (Debye)
 q only:        0.585       0.391       0.068
   full:        0.624      -0.318      -0.094       1.796

 projected vibrational frequencies (cm⁻¹)
eigval :       -0.00    -0.00    -0.00    -0.00     0.00     0.00
eigval :       17.94    20.72    27.10    36.04    46.56    51.96
eigval :       85.88    99.00   109.07   109.80   120.76   133.22
eigval :      139.12   155.92   173.05   176.49   210.94   239.09
eigval :      267.22   268.84   270.13   273.34   281.69   301.52
eigval :      323.52   353.37   369.45   377.95   379.20   380.39
eigval :      404.16   419.87   421.35   429.12   432.29   437.76
eigval :      453.44   501.71   507.73   507.87   517.66   525.76
eigval :      526.15   531.88   535.75   552.00   563.42   578.16
eigval :      579.97   601.91   606.30   635.71   648.88   657.48
eigval :      658.48   659.48   675.44   676.88   705.15   706.19
eigval :      707.73   733.74   751.54   759.62   761.89   763.26
eigval :      769.74   770.45   779.60   788.06   805.19   813.25
eigval :      830.20   853.62   856.87   859.02   864.52   869.67
eigval :      873.03   891.51   895.73   899.21   899.96   903.24
eigval :      905.63   910.66   911.16   913.97   982.37   986.19
eigval :     1009.95  1011.95  1032.07  1042.39  1065.34  1068.64
eigval :     1079.14  1083.80  1103.88  1105.85  1133.96  1138.01
eigval :     1144.82  1149.54  1157.51  1161.29  1170.08  1171.26
eigval :     1193.96  1199.36  1208.91  1218.77  1221.83  1224.65
eigval :     1252.60  1256.88  1266.53  1271.18  1275.77  1284.95
eigval :     1304.97  1313.38  1322.00  1324.03  1332.37  1337.86
eigval :     1357.41  1362.88  1367.12  1372.84  1386.81  1395.59
eigval :     1401.37  1406.14  1426.70  1430.29  1436.51  1442.16
eigval :     1449.51  1460.72  1461.22  1480.04  1486.65  1493.84
eigval :     1497.42  1521.21  1534.60  1545.53  1559.05  1560.15
eigval :     1593.66  3065.02  3065.57  3078.57  3079.28  3079.88
eigval :     3080.46  3088.20  3088.36  3092.62  3093.66  3094.15
eigval :     3094.65  3095.44  3098.12  3101.35  3102.70  3108.12
eigval :     3119.05  3125.35  3135.61

   temp. (K)  partition function   enthalpy   heat capacity  entropy
                                   cal/mol     cal/K/mol   cal/K/mol   J/K/mol
 298.15  VIB  0.372E+12            16681.210    111.227    100.056
         ROT  0.497E+08              888.752      2.981     38.198
         INT  0.185E+20            17569.962    114.208    138.254
         TR   0.114E+29             1481.254      4.968     44.593
         TOT                       19051.2164   119.1759   182.8461   765.0282

       T/K    H(0)-H(T)+PV         H(T)/Eh          T*S/Eh         G(T)/Eh
   ------------------------------------------------------------------------
    298.15    0.303600E-01    0.460302E+00    0.868761E-01    0.373426E+00
   ------------------------------------------------------------------------

         :::::::::::::::::::::::::::::::::::::::::::::::::::::
         ::                  THERMODYNAMIC                  ::
         :::::::::::::::::::::::::::::::::::::::::::::::::::::
         :: total free energy         -97.613571359219 Eh   ::
         ::.................................................::
         :: total energy              -97.986997717787 Eh   ::
         :: zero point energy           0.429942410956 Eh   ::
         :: G(RRHO) w/o ZPVE           -0.056516052388 Eh   ::
         :: G(RRHO) contrib.            0.373426358568 Eh   ::
         :::::::::::::::::::::::::::::::::::::::::::::::::::::

           -------------------------------------------------
          | TOTAL ENERGY              -97.986997717787 Eh   |
          | TOTAL ENTHALPY            -97.526695261018 Eh   |
          | TOTAL FREE ENERGY         -97.613571359219 Eh   |
          | GRADIENT NORM               0.000082566114 Eh/α |
          | HOMO-LUMO GAP               0.033962861287 eV   |
           -------------------------------------------------

 * finished run on 2025/07/16 at 19:10:40.782
