   * xtb version 6.7.1 (edcfbbe) compiled by 'albert@albert-system' on 2024-07-22

   ID    Z sym.   atoms
    1    6 C      1-10, 12, 14-17, 19-22, 24-33, 35-39
    2    7 N      11, 13, 23, 34
    3   16 S      18
    4    1 H      40-59

          program call               : xtb data2507/toluene/NDN/NDN_toluene_S0_crest.xyz --gfn 2 --gbsa toluene --ohess vtight --parallel 40 --molden --ceasefiles --namespace data2507/toluene/NDN/NDN_toluene_S0_finalOpt
      * Solvation model:               GBSA
        Solvent                        toluene
        Solvent mass                       9.2140E+01 g/mol
          :  Hamiltonian                  GFN2-xTB          :
 * total energy  :   -98.0890068 Eh     change       -0.4905871E-09 Eh
 * total energy  :   -98.0890417 Eh     change       -0.3491086E-04 Eh
 * total energy  :   -98.0890577 Eh     change       -0.1606284E-04 Eh
 * total energy  :   -98.0890643 Eh     change       -0.6528415E-05 Eh
 * total energy  :   -98.0890716 Eh     change       -0.7328454E-05 Eh
 * total energy  :   -98.0890756 Eh     change       -0.4029413E-05 Eh
 * total energy  :   -98.0890793 Eh     change       -0.3652517E-05 Eh
 * total energy  :   -98.0890828 Eh     change       -0.3477806E-05 Eh
 * total energy  :   -98.0890857 Eh     change       -0.2976102E-05 Eh
 * total energy  :   -98.0890883 Eh     change       -0.2585553E-05 Eh
 * total energy  :   -98.0891188 Eh     change       -0.5431737E-06 Eh
 * total energy  :   -98.0891192 Eh     change       -0.4327620E-06 Eh
 * total energy  :   -98.0891195 Eh     change       -0.3234800E-06 Eh
 * total energy  :   -98.0891198 Eh     change       -0.2558502E-06 Eh
 * total energy  :   -98.0891200 Eh     change       -0.2228902E-06 Eh
 * total energy  :   -98.0891202 Eh     change       -0.2082541E-06 Eh
 * total energy  :   -98.0891205 Eh     change       -0.2306031E-06 Eh
 * total energy  :   -98.0891207 Eh     change       -0.2202371E-06 Eh
 * total energy  :   -98.0891207 Eh     change       -0.1439787E-08 Eh
   *** GEOMETRY OPTIMIZATION CONVERGED AFTER 44 ITERATIONS ***

 final structure:
================
59
 xtb: 6.7.1 (edcfbbe)
C            7.45053645397289       -0.41996081739141       -2.02857580765970
C            6.81757313195445        0.81998342124926       -2.08425239450223
C            5.60575537096969        1.04368319311487       -1.45737403819118
C            5.03351090717082       -0.00686421961105       -0.75368868750510
C            5.65359975835201       -1.27862680890843       -0.72347756350565
C            6.87229219094480       -1.48016774467425       -1.35970933216467
C            4.77279659158274       -2.14245991408821        0.00829052853456
C            4.77858693629629       -3.47479915405958        0.38978417594801
C            3.68568237165279       -3.93610187686449        1.10828971096538
C            2.64800843587749       -3.06314882058217        1.41918286777367
N            2.61374247245645       -1.78517185787317        1.07189710574702
C            3.65556085623643       -1.34911848153147        0.38124858109632
N            3.83137531146682       -0.06207172335309       -0.06551641282508
C            2.95563480298251        1.00417737815163        0.19547687710124
C            3.46132304288209        2.25371383477197        0.57192506622514
C            2.60971750912778        3.30650162474785        0.83826583664850
C            1.24229466884110        3.09812913805178        0.75089289649299
S           -0.00658207277888        4.28284970399137        1.06833868822909
C           -1.25091142595254        3.09145425017187        0.75783453814859
C           -2.61978105937000        3.29916119677991        0.82791970603495
C           -3.46641926950570        2.23907560528159        0.57865237109464
C           -2.95469861106756        0.98037734940417        0.24544706840046
N           -3.83748802483737       -0.08524887088847        0.00555613265382
C           -3.68133069147389       -1.39700874730679        0.42779346709864
C           -2.71975722116422       -1.95394427060785        1.25976019816078
C           -2.81347322832696       -3.30346008798293        1.54519172838760
C           -3.84064704655756       -4.09026000489507        1.02849017533377
C           -4.81889908670624       -3.53841494426077        0.22597154904460
C           -4.74660261863951       -2.18314830122356       -0.07214453304830
C           -5.58753812723457       -1.29673282635582       -0.82334339616737
C           -6.76026421152958       -1.41925906239822       -1.55152186708487
C           -7.26423376198120       -0.27127607691385       -2.14441785291921
C           -6.58812396621017        0.93544567756522       -1.99349090813715
N           -5.46656158120387        1.08543979023708       -1.30470152181474
C           -4.99069095052195       -0.01089304187369       -0.73591652704488
C           -1.58613731426617        0.78321582119338        0.14117716931283
C           -0.72136055183281        1.83680743909268        0.41238140952719
C            0.71868901430622        1.84101768949163        0.40308240663243
C            1.58757010750254        0.79627846490449        0.11445565494144
H            8.39868834452317       -0.55295420671019       -2.52776982740531
H            7.28135310154413        1.62501081360183       -2.63484467582127
H            5.11588983111060        2.00184289035501       -1.53253503091615
H            7.34850946049472       -2.44869227362386       -1.33395379798533
H            5.60018493437225       -4.12868238763840        0.13624008383794
H            3.63209898742990       -4.96482311847552        1.42853984712752
H            1.78675091341722       -3.40459577477864        1.97838470060168
H            4.52647879492303        2.38764534351840        0.67728421654678
H            2.99884704563003        4.27050834135073        1.12627060420992
H           -3.01338278424147        4.27019908333035        1.08409565839637
H           -4.53451962065601        2.37297060845287        0.62848756662478
H           -1.92983854276107       -1.35624773531589        1.68725435848322
H           -2.07412628954532       -3.75654245842520        2.18894034803616
H           -3.87538791687842       -5.14180348146683        1.27156279850160
H           -5.62833533840381       -4.14014715281618       -0.15900125661536
H           -7.26163385086978       -2.37064745294436       -1.65410709058066
H           -8.17472457711963       -0.30437995689220       -2.72205904436958
H           -6.96527835447577        1.84151898522176       -2.44933706653427
H           -1.19019908480497       -0.17412224888905       -0.15818020552089
H            1.20725815899664       -0.17538246241109       -0.15287309928130

          :  Hamiltonian                  GFN2-xTB          :
         :: gradient norm              0.000031529458 Eh/a0 ::
         :: HOMO-LUMO gap              2.770390777676 eV    ::
         :: SCC energy               -99.835474943198 Eh    ::
         :: -> dispersion             -0.084983464981 Eh    ::
         :: -> Gsolv                  -0.042065517638 Eh    ::
         :: repulsion energy           1.746354262571 Eh    ::

    * Orbital Energies and Occupations

         #    Occupation            Energy/Eh            Energy/eV
      -------------------------------------------------------------
         1        2.0000           -0.7294801             -19.8502
       ...           ...                  ...                  ...
        79        2.0000           -0.4271276             -11.6227
        80        2.0000           -0.4260661             -11.5938
        81        2.0000           -0.4245120             -11.5516
        82        2.0000           -0.4209139             -11.4537
        83        2.0000           -0.4185221             -11.3886
        84        2.0000           -0.3982097             -10.8358
        85        2.0000           -0.3918210             -10.6620
        86        2.0000           -0.3908520             -10.6356
        87        2.0000           -0.3887950             -10.5796
        88        2.0000           -0.3765198             -10.2456
        89        2.0000           -0.3759272             -10.2295
        90        2.0000           -0.3749337             -10.2025
        91        2.0000           -0.3664011              -9.9703 (HOMO)
        92                         -0.2645911              -7.1999 (LUMO)
        93                         -0.2639054              -7.1812
        94                         -0.2629182              -7.1544
        95                         -0.2467643              -6.7148
        96                         -0.2411618              -6.5623
        97                         -0.2360702              -6.4238
        98                         -0.2343651              -6.3774
        99                         -0.2114655              -5.7543
       100                         -0.2101723              -5.7191
       101                         -0.2016478              -5.4871
       102                         -0.2010013              -5.4695
       ...                                ...                  ...
       181                          0.7372300              20.0610
      -------------------------------------------------------------
                  HL-Gap            0.1018100 Eh            2.7704 eV

     #   Z          covCN         q      C6AA      α(0)
     1   6 C        2.920    -0.039    28.976     8.827
     2   6 C        2.923    -0.032    28.788     8.799
     3   6 C        2.910    -0.049    29.228     8.865
     4   6 C        3.079     0.047    26.861     8.497
     5   6 C        3.065    -0.019    28.427     8.743
     6   6 C        2.912    -0.033    28.814     8.802
     7   6 C        3.065    -0.030    28.693     8.784
     8   6 C        2.919    -0.019    28.495     8.754
     9   6 C        2.917    -0.055    29.369     8.887
    10   6 C        2.929     0.057    26.729     8.479
    11   7 N        1.832    -0.276    28.008     7.843
    12   6 C        3.090     0.141    24.837     8.169
    13   7 N        2.799    -0.051    22.222     7.001
    14   6 C        2.911     0.063    26.582     8.454
    15   6 C        2.925    -0.045    29.123     8.850
    16   6 C        2.934    -0.038    28.943     8.823
    17   6 C        3.002     0.035    27.204     8.556
    18  16 S        2.209    -0.082   144.485    20.231
    19   6 C        3.001     0.035    27.198     8.555
    20   6 C        2.934    -0.036    28.900     8.817
    21   6 C        2.925    -0.039    28.981     8.828
    22   6 C        2.911     0.064    26.559     8.451
    23   7 N        2.799    -0.051    22.225     7.002
    24   6 C        3.079     0.047    26.861     8.497
    25   6 C        2.910    -0.049    29.221     8.864
    26   6 C        2.924    -0.031    28.786     8.798
    27   6 C        2.920    -0.040    28.983     8.828
    28   6 C        2.912    -0.033    28.820     8.803
    29   6 C        3.065    -0.019    28.427     8.743
    30   6 C        3.065    -0.031    28.698     8.785
    31   6 C        2.919    -0.020    28.498     8.754
    32   6 C        2.917    -0.055    29.370     8.887
    33   6 C        2.929     0.057    26.731     8.479
    34   7 N        1.832    -0.275    27.995     7.841
    35   6 C        3.089     0.141    24.831     8.168
    36   6 C        2.920    -0.048    29.183     8.859
    37   6 C        3.106    -0.001    27.903     8.655
    38   6 C        3.105     0.000    27.885     8.653
    39   6 C        2.921    -0.043    29.067     8.841
    40   1 H        0.926     0.037     2.495     2.470
    41   1 H        0.926     0.039     2.456     2.451
    42   1 H        0.926     0.040     2.452     2.449
    43   1 H        0.926     0.037     2.489     2.467
    44   1 H        0.926     0.039     2.462     2.454
    45   1 H        0.926     0.037     2.489     2.467
    46   1 H        0.925     0.034     2.524     2.485
    47   1 H        0.926     0.053     2.285     2.364
    48   1 H        0.926     0.053     2.277     2.360
    49   1 H        0.926     0.054     2.274     2.358
    50   1 H        0.926     0.059     2.214     2.327
    51   1 H        0.926     0.040     2.449     2.447
    52   1 H        0.926     0.038     2.474     2.460
    53   1 H        0.926     0.036     2.500     2.473
    54   1 H        0.926     0.037     2.488     2.466
    55   1 H        0.926     0.039     2.463     2.454
    56   1 H        0.926     0.037     2.490     2.467
    57   1 H        0.925     0.035     2.519     2.482
    58   1 H        0.926     0.052     2.294     2.368
    59   1 H        0.926     0.058     2.226     2.333

molecular dipole:
                 x           y           z       tot (Debye)
 q only:        0.598      -0.054      -0.004
   full:        0.615      -0.782      -0.173       2.567

 projected vibrational frequencies (cm⁻¹)
eigval :       -0.00    -0.00     0.00     0.00     0.00     0.00
eigval :       13.45    17.29    24.86    34.20    46.10    49.74
eigval :       87.13    97.49   108.68   109.86   120.38   135.51
eigval :      139.44   158.94   172.35   175.32   218.38   245.03
eigval :      269.94   274.53   278.74   279.15   282.57   309.67
eigval :      333.87   362.10   384.87   391.90   395.97   398.67
eigval :      421.43   423.97   424.94   432.91   436.73   441.71
eigval :      456.50   507.80   515.12   517.86   523.30   532.27
eigval :      544.14   545.09   547.79   549.16   573.33   590.90
eigval :      593.22   612.86   617.12   646.30   664.17   667.92
eigval :      669.09   687.55   688.22   690.63   717.72   723.25
eigval :      724.13   740.02   761.31   769.29   774.00   775.26
eigval :      792.10   796.94   815.07   816.16   821.83   852.62
eigval :      867.77   874.89   887.66   899.62   900.18   900.68
eigval :      903.24   906.98   909.40   910.99   913.85   914.16
eigval :      916.35   925.13   927.53   930.37  1000.97  1011.14
eigval :     1019.15  1020.00  1049.05  1071.67  1072.00  1087.22
eigval :     1089.21  1091.60  1116.12  1120.98  1148.89  1149.38
eigval :     1159.81  1161.48  1170.18  1176.39  1178.94  1183.58
eigval :     1216.72  1218.15  1221.57  1223.90  1228.90  1243.47
eigval :     1270.00  1284.28  1286.11  1295.67  1298.01  1332.06
eigval :     1334.28  1336.99  1339.56  1342.36  1343.59  1354.06
eigval :     1354.83  1389.55  1396.21  1403.65  1414.88  1420.60
eigval :     1440.86  1455.62  1461.84  1464.78  1474.34  1480.76
eigval :     1481.12  1548.87  1550.82  1560.38  1561.74  1571.44
eigval :     1571.77  1582.47  1584.90  1591.64  1591.96  1610.61
eigval :     1610.81  3055.61  3056.00  3073.35  3074.84  3077.35
eigval :     3078.88  3083.57  3084.17  3092.14  3093.09  3095.94
eigval :     3096.65  3096.91  3099.19  3100.05  3100.30  3105.19
eigval :     3106.83  3119.66  3120.38

   temp. (K)  partition function   enthalpy   heat capacity  entropy
                                   cal/mol     cal/K/mol   cal/K/mol   J/K/mol
 298.15  VIB  0.492E+12            16357.288    108.579     98.697
         ROT  0.497E+08              888.752      2.981     38.200
         INT  0.245E+20            17246.041    111.560    136.897
         TR   0.114E+29             1481.254      4.968     44.593
         TOT                       18727.2944   116.5278   181.4897   759.3531

       T/K    H(0)-H(T)+PV         H(T)/Eh          T*S/Eh         G(T)/Eh
   ------------------------------------------------------------------------
    298.15    0.298438E-01    0.465978E+00    0.862316E-01    0.379746E+00
   ------------------------------------------------------------------------

         :::::::::::::::::::::::::::::::::::::::::::::::::::::
         ::                  THERMODYNAMIC                  ::
         :::::::::::::::::::::::::::::::::::::::::::::::::::::
         :: total free energy         -97.709374547047 Eh   ::
         ::.................................................::
         :: total energy              -98.089120682714 Eh   ::
         :: zero point energy           0.436133927868 Eh   ::
         :: G(RRHO) w/o ZPVE           -0.056387792200 Eh   ::
         :: G(RRHO) contrib.            0.379746135668 Eh   ::
         :::::::::::::::::::::::::::::::::::::::::::::::::::::

           -------------------------------------------------
          | TOTAL ENERGY              -98.089120682714 Eh   |
          | TOTAL ENTHALPY            -97.623142911535 Eh   |
          | TOTAL FREE ENERGY         -97.709374547047 Eh   |
          | GRADIENT NORM               0.000031528373 Eh/α |
          | HOMO-LUMO GAP               2.770390801714 eV   |
           -------------------------------------------------

 * finished run on 2025/07/16 at 19:10:36.895
