   * xtb version 6.7.1 (edcfbbe) compiled by 'albert@albert-system' on 2024-07-22

   ID    Z sym.   atoms
    1    6 C      1-9, 11-27, 29-34
    2    7 N      10, 28
    3    1 H      35-58

          program call               : xtb data2507/gas/BAPCN/BAPCN_gas_S0_crest.xyz --gfn 2 --ohess vtight --parallel 40 --molden --ceasefiles --namespace data2507/gas/BAPCN/BAPCN_gas_S0_finalOpt
          :  Hamiltonian                  GFN2-xTB          :
 * total energy  :   -86.5942340 Eh     change       -0.1837790E-08 Eh
 * total energy  :   -86.5942346 Eh     change       -0.5622311E-06 Eh
 * total energy  :   -86.5942353 Eh     change       -0.6983948E-06 Eh
 * total energy  :   -86.5942362 Eh     change       -0.9260463E-06 Eh
 * total energy  :   -86.5942368 Eh     change       -0.6218060E-06 Eh
 * total energy  :   -86.5942373 Eh     change       -0.4831256E-06 Eh
 * total energy  :   -86.5942379 Eh     change       -0.6269765E-06 Eh
 * total energy  :   -86.5942387 Eh     change       -0.7230602E-06 Eh
 * total energy  :   -86.5942391 Eh     change       -0.4427966E-06 Eh
 * total energy  :   -86.5942394 Eh     change       -0.2819569E-06 Eh
 * total energy  :   -86.5942418 Eh     change       -0.7564334E-06 Eh
 * total energy  :   -86.5942426 Eh     change       -0.7915317E-06 Eh
 * total energy  :   -86.5942435 Eh     change       -0.8452300E-06 Eh
 * total energy  :   -86.5942441 Eh     change       -0.6148289E-06 Eh
 * total energy  :   -86.5942442 Eh     change       -0.8464627E-07 Eh
 * total energy  :   -86.5942445 Eh     change       -0.3103224E-06 Eh
 * total energy  :   -86.5942448 Eh     change       -0.2848780E-06 Eh
 * total energy  :   -86.5942449 Eh     change       -0.1808482E-06 Eh
 * total energy  :   -86.5942450 Eh     change       -0.7008376E-07 Eh
   *** GEOMETRY OPTIMIZATION CONVERGED AFTER 22 ITERATIONS ***

 final structure:
================
58
 xtb: 6.7.1 (edcfbbe)
C           -1.29945153846988        2.68437501390215       -1.49917556072564
C           -1.60938758390898        2.08939453331538       -0.10671547703270
C           -1.11049413244554        2.98692167277675        1.05562096186654
C           -3.12540614286956        2.03611634492100       -0.02263813099236
C           -3.84078619067295        3.22593978334259       -0.01077736486856
C           -5.22257018204721        3.24545688395048        0.03103394407936
C           -5.91693783494201        2.04912926264862        0.06203001181421
C           -5.22909359471687        0.85371635213901        0.05501668869772
C           -3.83250651793651        0.83504215613888        0.01175853185320
N           -3.15008132377902       -0.36941130956676        0.00644016652289
C           -3.91075178171680       -1.57333529505799        0.03888757264455
C           -4.29195414410709       -2.18204560564860       -1.14989973331163
C           -5.04323524285900       -3.34361931302671       -1.11752548162106
C           -5.41549886954267       -3.89718171887990        0.09623969697117
C           -5.03649984521483       -3.28877615121139        1.28159754315214
C           -4.28537336699240       -2.12724060183909        1.25680320926206
C           -1.76893293607886       -0.43113260374410        0.01599192797655
C           -1.17962465667336       -1.71741846044248        0.06974505850626
C            0.16868469074858       -1.87086789202087        0.07748648625861
C            1.01609493693569       -0.74665046652369        0.02941558610209
C            2.41025810949134       -0.92055796655617        0.02696000152241
C            3.27413644505280        0.14742004352006       -0.01327706746311
C            4.72766713234402       -0.03981548525761       -0.00658937524353
C            5.55386470982890        0.82085947798845        0.71860247694038
C            6.92113784789001        0.64663387423571        0.73175957711813
C            7.49495993464299       -0.40013798494988        0.00806736342193
C            8.89502459751431       -0.58198082918905        0.01497606246406
N           10.03249303887865       -0.73014464998311        0.02096724848878
C            6.67976644516121       -1.26647215186244       -0.72277768470331
C            5.31367968786273       -1.08416724618673       -0.72458545754881
C            2.71286155845846        1.43954930366543       -0.05915402369730
C            1.36213189557221        1.63340677788096       -0.06762443380549
C            0.44100187338172        0.55552429240648       -0.02058160094410
C           -0.97482487891303        0.70710752375899       -0.02431730524327
H           -1.82433734037913        2.10444500623315       -2.25728069553046
H           -0.24117245071240        2.65608944803915       -1.73576427263438
H           -1.64602546755093        3.71281519736295       -1.56219402103203
H           -1.93507904183712        3.22035716573375        1.72634603119645
H           -0.35103812391952        2.48203655417520        1.64601817072006
H           -0.70206602162376        3.92642731428104        0.69022788075840
H           -3.30615125104682        4.16366887896852       -0.03286057360247
H           -5.75111986130853        4.18645860821446        0.03723738166579
H           -6.99625898088523        2.04341717109843        0.09326475852103
H           -5.77603882123473       -0.07623539088228        0.08212346249477
H           -3.99621855840272       -1.74002898216788       -2.08989186695037
H           -5.33925247407592       -3.81659949096243       -2.04193595402255
H           -6.00215335017477       -4.80323023267374        0.11864577879234
H           -5.32705059693861       -3.71930491332936        2.22826721966517
H           -3.98436617990290       -1.64257125817023        2.17390760452487
H           -1.81959415315321       -2.58525971742154        0.10422401193070
H            0.60664715152238       -2.85751984701852        0.11761118473873
H            2.79435749548330       -1.92938679849957        0.08686006455586
H            5.11393073428811        1.62148873465026        1.29465020343300
H            7.55508714864023        1.31175023070257        1.30000370540307
H            7.12829754731924       -2.07243708622355       -1.28528896654189
H            4.68780744115023       -1.74541718708785       -1.30535900634286
H            3.37066216442312        2.29504153141019       -0.11581061248928
H            1.01025410574328        2.64820822282261       -0.11004599291598

          :  Hamiltonian                  GFN2-xTB          :
         :: gradient norm              0.000068907806 Eh/a0 ::
         :: HOMO-LUMO gap              1.956624013734 eV    ::
         :: SCC energy               -88.244485594695 Eh    ::
         :: -> dispersion             -0.078568087658 Eh    ::
         :: repulsion energy           1.650240582588 Eh    ::

    * Orbital Energies and Occupations

         #    Occupation            Energy/Eh            Energy/eV
      -------------------------------------------------------------
         1        2.0000           -0.6731283             -18.3168
       ...           ...                  ...                  ...
        69        2.0000           -0.4262043             -11.5976
        70        2.0000           -0.4225076             -11.4970
        71        2.0000           -0.4210139             -11.4564
        72        2.0000           -0.4203781             -11.4391
        73        2.0000           -0.4174637             -11.3598
        74        2.0000           -0.4137717             -11.2593
        75        2.0000           -0.4133794             -11.2486
        76        2.0000           -0.4100529             -11.1581
        77        2.0000           -0.4042426             -11.0000
        78        2.0000           -0.3970455             -10.8042
        79        2.0000           -0.3944693             -10.7341
        80        2.0000           -0.3837042             -10.4411
        81        2.0000           -0.3464867              -9.4284 (HOMO)
        82                         -0.2745821              -7.4718 (LUMO)
        83                         -0.2553697              -6.9490
        84                         -0.2417456              -6.5782
        85                         -0.2406155              -6.5475
        86                         -0.2369576              -6.4479
        87                         -0.2283124              -6.2127
        88                         -0.2198819              -5.9833
        89                         -0.2053756              -5.5886
        90                         -0.1996812              -5.4336
        91                         -0.1868589              -5.0847
        92                         -0.1671685              -4.5489
       ...                                ...                  ...
       160                          1.1770019              32.0279
      -------------------------------------------------------------
                  HL-Gap            0.0719046 Eh            1.9566 eV

     #   Z          covCN         q      C6AA      α(0)
     1   6 C        3.764    -0.103    22.507     6.762
     2   6 C        3.905     0.022    20.146     6.380
     3   6 C        3.756    -0.107    22.594     6.777
     4   6 C        2.986    -0.014    28.358     8.735
     5   6 C        2.928    -0.038    28.941     8.822
     6   6 C        2.917    -0.044    29.102     8.846
     7   6 C        2.920    -0.033    28.827     8.805
     8   6 C        2.924    -0.058    29.452     8.900
     9   6 C        2.931     0.057    26.715     8.476
    10   7 N        2.757    -0.069    22.585     7.058
    11   6 C        2.929     0.070    26.428     8.431
    12   6 C        2.922    -0.037    28.924     8.819
    13   6 C        2.920    -0.027    28.685     8.783
    14   6 C        2.920    -0.030    28.746     8.792
    15   6 C        2.920    -0.027    28.687     8.783
    16   6 C        2.921    -0.037    28.921     8.819
    17   6 C        2.923     0.059    26.681     8.471
    18   6 C        2.920    -0.054    29.338     8.882
    19   6 C        2.919    -0.039    28.957     8.824
    20   6 C        2.989     0.002    27.969     8.675
    21   6 C        2.930    -0.039    28.966     8.826
    22   6 C        2.972     0.001    27.999     8.680
    23   6 C        2.976     0.019    27.589     8.616
    24   6 C        2.924    -0.032    28.793     8.800
    25   6 C        2.924    -0.021    28.540     8.761
    26   6 C        2.974     0.015    27.679     8.630
    27   6 C        1.912     0.111    28.365     8.601
    28   7 N        0.911    -0.241    26.296     7.416
    29   6 C        2.924    -0.021    28.536     8.760
    30   6 C        2.924    -0.032    28.805     8.801
    31   6 C        2.921    -0.038    28.944     8.822
    32   6 C        2.917    -0.044    29.100     8.846
    33   6 C        2.980     0.007    27.864     8.659
    34   6 C        2.969    -0.027    28.661     8.781
    35   1 H        0.925     0.030     2.589     2.516
    36   1 H        0.925     0.042     2.417     2.431
    37   1 H        0.925     0.038     2.476     2.461
    38   1 H        0.925     0.037     2.484     2.465
    39   1 H        0.925     0.041     2.438     2.442
    40   1 H        0.925     0.036     2.503     2.474
    41   1 H        0.926     0.033     2.541     2.493
    42   1 H        0.926     0.026     2.637     2.539
    43   1 H        0.926     0.027     2.627     2.534
    44   1 H        0.926     0.024     2.678     2.559
    45   1 H        0.926     0.041     2.433     2.439
    46   1 H        0.926     0.039     2.462     2.454
    47   1 H        0.926     0.038     2.472     2.459
    48   1 H        0.926     0.039     2.462     2.454
    49   1 H        0.926     0.042     2.429     2.437
    50   1 H        0.926     0.028     2.608     2.525
    51   1 H        0.926     0.031     2.577     2.510
    52   1 H        0.926     0.029     2.595     2.519
    53   1 H        0.926     0.039     2.466     2.456
    54   1 H        0.926     0.039     2.464     2.455
    55   1 H        0.926     0.039     2.464     2.455
    56   1 H        0.926     0.038     2.472     2.459
    57   1 H        0.926     0.027     2.623     2.533
    58   1 H        0.926     0.047     2.362     2.403

molecular dipole:
                 x           y           z       tot (Debye)
 q only:       -2.250      -0.156      -0.002
   full:       -2.716      -0.183      -0.009       6.919

 projected vibrational frequencies (cm⁻¹)
eigval :       -0.00    -0.00    -0.00     0.00     0.00     0.00
eigval :       14.44    20.54    25.47    34.88    47.31    56.81
eigval :       64.74    76.16   100.09   112.12   121.12   147.52
eigval :      150.07   155.52   175.18   176.67   188.05   215.47
eigval :      228.99   249.46   252.26   282.96   309.79   327.92
eigval :      346.62   348.38   359.73   367.15   373.63   387.70
eigval :      389.94   407.57   423.76   440.58   476.12   479.74
eigval :      483.03   505.18   519.63   531.60   534.37   537.98
eigval :      552.37   564.41   588.56   589.14   592.21   605.21
eigval :      616.84   628.89   645.28   667.59   675.80   691.32
eigval :      694.09   715.91   725.88   758.56   779.00   785.60
eigval :      798.32   804.36   821.16   832.35   844.80   866.83
eigval :      867.23   876.54   882.53   900.30   903.50   910.05
eigval :      916.27   916.50   916.99   923.62   925.38   927.09
eigval :      929.37   933.77   937.25   968.95   973.72   996.00
eigval :     1010.65  1032.31  1066.58  1078.34  1082.47  1090.95
eigval :     1111.77  1113.17  1136.53  1147.02  1148.09  1165.27
eigval :     1180.49  1185.11  1186.54  1187.20  1192.87  1205.33
eigval :     1214.44  1231.89  1236.50  1247.76  1261.19  1268.29
eigval :     1271.78  1272.94  1295.92  1308.39  1311.76  1314.12
eigval :     1322.44  1335.62  1339.96  1377.82  1397.37  1406.78
eigval :     1410.07  1411.08  1425.22  1432.84  1440.36  1463.18
eigval :     1472.71  1487.38  1489.84  1493.22  1495.41  1504.02
eigval :     1510.87  1519.57  1545.99  1550.86  1582.77  1583.38
eigval :     1588.25  1594.34  1595.94  1604.35  1612.47  2370.89
eigval :     3019.09  3022.76  3028.79  3037.89  3050.28  3067.87
eigval :     3068.88  3075.48  3077.46  3078.99  3080.47  3081.08
eigval :     3082.06  3082.44  3084.66  3089.63  3092.41  3092.97
eigval :     3093.94  3094.72  3099.80  3100.54  3103.01  3149.74

   temp. (K)  partition function   enthalpy   heat capacity  entropy
                                   cal/mol     cal/K/mol   cal/K/mol   J/K/mol
 298.15  VIB  0.476E+12            15924.905    102.397     97.492
         ROT  0.330E+08              888.752      2.981     37.385
         INT  0.157E+20            16813.658    105.378    134.878
         TR   0.882E+28             1481.254      4.968     44.091
         TOT                       18294.9115   110.3465   178.9684   748.8040

       T/K    H(0)-H(T)+PV         H(T)/Eh          T*S/Eh         G(T)/Eh
   ------------------------------------------------------------------------
    298.15    0.291548E-01    0.484040E+00    0.850337E-01    0.399006E+00
   ------------------------------------------------------------------------

         :::::::::::::::::::::::::::::::::::::::::::::::::::::
         ::                  THERMODYNAMIC                  ::
         :::::::::::::::::::::::::::::::::::::::::::::::::::::
         :: total free energy         -86.195238878112 Eh   ::
         ::.................................................::
         :: total energy              -86.594245012117 Eh   ::
         :: zero point energy           0.454885021924 Eh   ::
         :: G(RRHO) w/o ZPVE           -0.055878887919 Eh   ::
         :: G(RRHO) contrib.            0.399006134005 Eh   ::
         :::::::::::::::::::::::::::::::::::::::::::::::::::::

           -------------------------------------------------
          | TOTAL ENERGY              -86.594245012117 Eh   |
          | TOTAL ENTHALPY            -86.110205193005 Eh   |
          | TOTAL FREE ENERGY         -86.195238878112 Eh   |
          | GRADIENT NORM               0.000068947835 Eh/α |
          | HOMO-LUMO GAP               1.956625040047 eV   |
           -------------------------------------------------

 * finished run on 2025/09/04 at 10:34:57.089
