   * xtb version 6.7.1 (edcfbbe) compiled by 'albert@albert-system' on 2024-07-22

   ID    Z sym.   atoms
    1    6 C      1-9, 11-27, 29-34
    2    7 N      10, 28
    3    1 H      35-58

          program call               : xtb data2507/gas/BAPCN/BAPCN_gas_T1_crest.xyz --gfn 2 --spinpol --tblite --uhf 2 --ohess vtight --parallel 40 --molden --ceasefiles --namespace data2507/gas/BAPCN/BAPCN_gas_T1_finalOpt
 * total energy  :   -86.5158815 Eh     change        0.5077354E-08 Eh
 * total energy  :   -86.5159143 Eh     change       -0.3277211E-04 Eh
 * total energy  :   -86.5159315 Eh     change       -0.1722262E-04 Eh
 * total energy  :   -86.5159317 Eh     change       -0.1917863E-06 Eh
 * total energy  :   -86.5159364 Eh     change       -0.4667110E-05 Eh
 * total energy  :   -86.5159375 Eh     change       -0.1101172E-05 Eh
 * total energy  :   -86.5159399 Eh     change       -0.2458075E-05 Eh
 * total energy  :   -86.5159424 Eh     change       -0.2452655E-05 Eh
 * total energy  :   -86.5159441 Eh     change       -0.1722439E-05 Eh
 * total energy  :   -86.5159449 Eh     change       -0.8168929E-06 Eh
 * total energy  :   -86.5159453 Eh     change       -0.3994963E-06 Eh
 * total energy  :   -86.5159456 Eh     change       -0.2357307E-06 Eh
 * total energy  :   -86.5159458 Eh     change       -0.2480877E-06 Eh
 * total energy  :   -86.5159461 Eh     change       -0.3111168E-06 Eh
 * total energy  :   -86.5159465 Eh     change       -0.3524521E-06 Eh
 * total energy  :   -86.5159468 Eh     change       -0.3081879E-06 Eh
 * total energy  :   -86.5159470 Eh     change       -0.2029105E-06 Eh
 * total energy  :   -86.5159471 Eh     change       -0.8863471E-07 Eh
   *** GEOMETRY OPTIMIZATION CONVERGED AFTER 18 ITERATIONS ***

 final structure:
================
58
 xtb: 6.7.1 (edcfbbe)
C           -1.11537362836664        2.92574489122451       -1.21252938982746
C           -1.60571038250627        2.08055820737958       -0.00638307276344
C           -1.28969420574385        2.74443274306957        1.35683156954204
C           -3.11706734188888        2.03497410224375       -0.07382251221997
C           -3.82987333632337        3.22411240698493       -0.14033759053293
C           -5.21187908952714        3.24435152185135       -0.17262799168700
C           -5.91424394573024        2.04713349361138       -0.13640359154605
C           -5.23509216631119        0.85316493183253       -0.07462482375717
C           -3.83146235125162        0.83012728360864       -0.04336460929067
N           -3.15808823167991       -0.36721599562991        0.00872571923046
C           -3.92883167293339       -1.56743434864466        0.03682287982645
C           -4.29440315545797       -2.18193111630374       -1.15357582553051
C           -5.05122356750175       -3.33979218691449       -1.12124304793195
C           -5.44251346449909       -3.88157377872049        0.09206487134039
C           -5.07692176839163       -3.26572421542658        1.27756114392390
C           -4.31996355701853       -2.10749933287054        1.25453846505677
C           -1.78622339646804       -0.46647562525669        0.01085472855914
C           -1.20239459141922       -1.73504666758045        0.03804133311746
C            0.15719017661613       -1.88641793989294        0.03836945655829
C            1.01919685288865       -0.75344312001496        0.01881986993474
C            2.38909241258382       -0.92626904907863        0.02879855030213
C            3.30516520801871        0.17437856766921        0.03053466752549
C            4.72418044526825       -0.02035429398254        0.01879698248497
C            5.61457513179002        0.97915216499918        0.47681180754820
C            6.97022401403349        0.79322539046760        0.46712195621158
C            7.52011653970838       -0.40782511663702       -0.01525563315412
C            8.90786077632891       -0.60031715378716       -0.03031308003292
N           10.04839933405259       -0.75749010394840       -0.04409939710001
C            6.65378255389482       -1.41192380712296       -0.48056863986000
C            5.29824920180470       -1.22374406403916       -0.45485514273786
C            2.72347277335066        1.44907840319141        0.02721793008797
C            1.36746649919440        1.64230276135764       -0.00099865721172
C            0.43121682787041        0.55556323577443       -0.00160589489963
C           -0.95811061358578        0.71106172289682       -0.01458803076775
H           -0.77289503556174        3.90786447655201       -0.89604657116501
H           -1.92776090789591        3.06590745792575       -1.92298842143402
H           -0.30805992009352        2.42786245763454       -1.74098748374259
H           -0.22804096301698        2.72760166503568        1.57890689826272
H           -1.63901080317140        3.77345790275429        1.37244474970622
H           -1.80426723963519        2.19937012860224        2.14709763847506
H           -3.29357900104654        4.16009895871409       -0.17284935559606
H           -5.73847475678116        4.18449325799113       -0.22476060281267
H           -6.99339690251620        2.04828703642631       -0.15857454039368
H           -5.78454813880058       -0.07494969897633       -0.05004319431652
H           -3.98195648939333       -1.74969502519512       -2.09246097087942
H           -5.33539117088608       -3.81892352610677       -2.04582198522994
H           -6.03277188581633       -4.78496289555690        0.11364079075968
H           -5.38108801256717       -3.68702011987995        2.22368197491907
H           -4.02763579965571       -1.61836307359177        2.17173139158693
H           -1.83262977521272       -2.61056070284157        0.05825336178082
H            0.59471980697969       -2.87231767738232        0.05756011053194
H            2.77177682185886       -1.93341665107995        0.07891826471017
H            5.21864509354277        1.89851318549993        0.88074780686358
H            7.63297044946451        1.56316922889691        0.83598463911608
H            7.07322703926801       -2.33230249456003       -0.86153977250773
H            4.65714922016879       -1.99929567958588       -0.84459769228729
H            3.35852379420806        2.32235981983186       -0.00198873970676
H            1.01933925496068        2.65852913878082       -0.03783777093945

 projected vibrational frequencies (cm⁻¹)
eigval :       -0.00    -0.00    -0.00    -0.00     0.00     0.00
eigval :       12.63    17.93    28.78    38.34    45.57    54.37
eigval :       68.60    74.02    93.84   109.42   120.12   140.68
eigval :      145.48   159.53   175.51   181.42   196.58   209.01
eigval :      225.86   241.18   251.84   282.59   306.60   310.18
eigval :      338.43   340.93   351.96   365.68   371.04   373.26
eigval :      386.98   400.28   410.38   422.48   467.47   473.86
eigval :      485.56   503.49   507.40   513.16   520.96   528.56
eigval :      535.25   557.21   568.30   584.28   592.65   604.36
eigval :      612.02   617.83   626.77   657.94   667.62   673.63
eigval :      690.99   701.88   711.05   756.47   756.59   771.55
eigval :      773.35   790.55   794.34   801.88   813.80   825.02
eigval :      837.97   863.27   873.13   875.21   884.61   900.37
eigval :      905.44   908.95   912.20   914.23   916.42   919.95
eigval :      920.93   928.10   933.68   954.85   973.77   991.33
eigval :      994.57  1028.95  1051.55  1054.53  1078.19  1080.85
eigval :     1103.75  1113.96  1125.70  1129.89  1140.98  1149.48
eigval :     1155.82  1174.61  1179.80  1183.95  1184.94  1200.90
eigval :     1204.30  1208.81  1229.62  1248.49  1255.05  1269.15
eigval :     1272.63  1275.48  1280.33  1306.64  1307.13  1309.19
eigval :     1330.06  1341.80  1343.71  1352.52  1394.75  1404.80
eigval :     1410.00  1418.79  1421.12  1428.82  1431.57  1435.37
eigval :     1442.07  1451.95  1464.88  1467.47  1473.60  1477.04
eigval :     1486.22  1494.26  1498.91  1504.52  1514.85  1519.70
eigval :     1548.38  1570.18  1581.90  1582.31  1591.96  2317.95
eigval :     3020.24  3025.06  3032.76  3040.41  3056.43  3066.47
eigval :     3074.47  3076.50  3079.71  3085.17  3085.87  3086.84
eigval :     3087.63  3091.21  3091.80  3093.03  3093.11  3097.87
eigval :     3099.21  3100.82  3102.21  3103.96  3105.72  3146.02

   temp. (K)  partition function   enthalpy   heat capacity  entropy
                                   cal/mol     cal/K/mol   cal/K/mol   J/K/mol
 298.15  VIB  0.729E+12            16176.187    104.054     99.120
         ROT  0.331E+08              888.752      2.981     37.391
         INT  0.241E+20            17064.940    107.035    136.511
         TR   0.882E+28             1481.254      4.968     44.091
         TOT                       18546.1937   112.0033   180.6016   755.6371

       T/K    H(0)-H(T)+PV         H(T)/Eh          T*S/Eh         G(T)/Eh
   ------------------------------------------------------------------------
    298.15    0.295552E-01    0.480849E+00    0.858096E-01    0.395039E+00
   ------------------------------------------------------------------------

         :::::::::::::::::::::::::::::::::::::::::::::::::::::
         ::                  THERMODYNAMIC                  ::
         :::::::::::::::::::::::::::::::::::::::::::::::::::::
         :: total free energy         -86.120907939428 Eh   ::
         ::.................................................::
         :: total energy              -86.515947108306 Eh   ::
         :: zero point energy           0.451293570938 Eh   ::
         :: G(RRHO) w/o ZPVE           -0.056254402061 Eh   ::
         :: G(RRHO) contrib.            0.395039168877 Eh   ::
         :::::::::::::::::::::::::::::::::::::::::::::::::::::

           -------------------------------------------------
          | TOTAL ENERGY              -86.515947108306 Eh   |
          | TOTAL ENTHALPY            -86.035098296476 Eh   |
          | TOTAL FREE ENERGY         -86.120907939428 Eh   |
          | GRADIENT NORM               0.000041250457 Eh/α |
           -------------------------------------------------

 * finished run on 2025/09/04 at 10:36:37.287
