   * xtb version 6.7.1 (edcfbbe) compiled by 'albert@albert-system' on 2024-07-22

   ID    Z sym.   atoms
    1    6 C      1-9, 11-27, 29-34
    2    7 N      10, 28
    3    1 H      35-58

          program call               : xtb data2507/gas/BAPCN/BAPCN.xyz --gfn 2 --ohess vtight --parallel 40 --molden --ceasefiles --namespace data2507/gas/BAPCN/BAPCN_gas_S0_preOpt
          :  Hamiltonian                  GFN2-xTB          :
 * total energy  :   -86.5650577 Eh     change       -0.4035954E-08 Eh
 * total energy  :   -86.5792959 Eh     change       -0.1423819E-01 Eh
 * total energy  :   -86.5843695 Eh     change       -0.5073527E-02 Eh
 * total energy  :   -86.5857308 Eh     change       -0.1361345E-02 Eh
 * total energy  :   -86.5864206 Eh     change       -0.6897575E-03 Eh
 * total energy  :   -86.5866490 Eh     change       -0.2284405E-03 Eh
 * total energy  :   -86.5868668 Eh     change       -0.2177508E-03 Eh
 * total energy  :   -86.5870868 Eh     change       -0.2200677E-03 Eh
 * total energy  :   -86.5872548 Eh     change       -0.1679265E-03 Eh
 * total energy  :   -86.5873533 Eh     change       -0.9852845E-04 Eh
 * total energy  :   -86.5876524 Eh     change       -0.9864318E-07 Eh
 * total energy  :   -86.5876514 Eh     change        0.9586080E-06 Eh
 * total energy  :   -86.5876521 Eh     change       -0.7244206E-06 Eh
 * total energy  :   -86.5876525 Eh     change       -0.3352641E-06 Eh
 * total energy  :   -86.5876522 Eh     change        0.2785399E-06 Eh
 * total energy  :   -86.5876525 Eh     change       -0.3146325E-06 Eh
 * total energy  :   -86.5876522 Eh     change        0.2760144E-06 Eh
 * total energy  :   -86.5876525 Eh     change       -0.2963172E-06 Eh
 * total energy  :   -86.5876525 Eh     change       -0.3246626E-08 Eh
   *** GEOMETRY OPTIMIZATION CONVERGED AFTER 51 ITERATIONS ***

 final structure:
================
58
 xtb: 6.7.1 (edcfbbe)
C           -0.54552437719288        3.15848170750282        0.77643027961649
C           -1.30905225183976        1.83754593335509        0.71907866276302
C           -1.73576917962358        1.53737501179295        2.17911792956120
C           -2.57057865984304        1.95822966631855       -0.11158329173226
C           -3.08501000303973        3.15485380194410       -0.58337385227191
C           -4.30567096908045        3.20284487601600       -1.23615833016554
C           -5.03179646215496        2.04134563277500       -1.42603283000946
C           -4.52454141730538        0.83227123408056       -0.99383461707580
C           -3.29206887566328        0.78218551855473       -0.34592252917552
N           -2.73766770228796       -0.43077869059872        0.04621064826216
C           -3.56632852866284       -1.58421918274743       -0.00600373944976
C           -3.53589711940876       -2.44659253069498       -1.09699556456543
C           -4.36755314897898       -3.55112986667593       -1.12514294749944
C           -5.23637199036252       -3.79600784430691       -0.07409530907690
C           -5.27531917520979       -2.93176167653527        1.00687613331121
C           -4.44293494335068       -1.82692223491890        1.04336312182725
C           -1.35863787944905       -0.54862311700406        0.14562605928569
C           -0.78783953539794       -1.83809047711773        0.18349325674578
C            0.56149512857707       -1.99254329272780        0.23048656269003
C            1.40898835974947       -0.87317756125832        0.12011845632859
C            2.79963859516893       -1.05871580825296        0.04750321461630
C            3.66537347538609       -0.00708841806890       -0.13627363580840
C            5.11443520351972       -0.21366414556998       -0.21093804123900
C            5.89496612797442        0.49636180820997       -1.12502527810219
C            7.25733096651757        0.29899847069213       -1.19681522555354
C            7.87252541575074       -0.61870358439166       -0.34354899670050
C            9.26791827063091       -0.82292317056582       -0.41020715125015
N           10.40162112272470       -0.98884250994510       -0.46519267988104
C            7.10319764670093       -1.33418040513955        0.57591755158926
C            5.74142719709770       -1.13073017047082        0.63512384966214
C            3.10489394234632        1.27604195291557       -0.28949361492695
C            1.76028390473777        1.48701162860311       -0.18093975517561
C            0.84472353153621        0.43862978140690        0.08075753595631
C           -0.55911072806967        0.59235081936162        0.24624700171451
H           -0.29915980600932        3.53065197253807       -0.21476834291975
H            0.35742429423567        3.04864502080134        1.37045565182310
H           -1.16928560888563        3.90176829924198        1.27058298713745
H           -2.31163940279460        0.61920351767687        2.24884880410680
H           -0.85238312755348        1.43478916089695        2.80633349223840
H           -2.34599734471046        2.35317153589412        2.56176949111760
H           -2.54739975256334        4.07677979712383       -0.43367449981095
H           -4.69186108012821        4.14943250798816       -1.58269690635331
H           -5.99038054904287        2.07130821949524       -1.92211511904679
H           -5.08108653486086       -0.07689333260398       -1.16407584747521
H           -2.86206328272472       -2.24238416318087       -1.91647331671112
H           -4.34122609502652       -4.21959182150045       -1.97287277784479
H           -5.88543295892731       -4.65829720551083       -0.10028775949897
H           -5.95464889255275       -3.11799371678728        1.82521224227774
H           -4.47036291241914       -1.14447789064740        1.88011132597732
H           -1.43316056143388       -2.70171061100924        0.22040171396227
H            0.99797471949471       -2.97641883590969        0.31954044258974
H            3.17712141601670       -2.07101106843620        0.09040505251631
H            5.42272943004037        1.19392776194171       -1.80073346152901
H            7.85554365581096        0.84655999409774       -1.91062175228518
H            7.58368361096128       -2.04057072190849        1.23722970643172
H            5.15122754400948       -1.67324974958771        1.35881501993538
H            3.75663834966895        2.11540166038075       -0.48452682307303
H            1.40259994790063        2.48112551247230       -0.36563319784314

          :  Hamiltonian                  GFN2-xTB          :
         :: gradient norm              0.000108221721 Eh/a0 ::
         :: HOMO-LUMO gap              2.036847843536 eV    ::
         :: SCC energy               -88.237045586208 Eh    ::
         :: -> dispersion             -0.078590517277 Eh    ::
         :: repulsion energy           1.649393049313 Eh    ::

    * Orbital Energies and Occupations

         #    Occupation            Energy/Eh            Energy/eV
      -------------------------------------------------------------
         1        2.0000           -0.6726372             -18.3034
       ...           ...                  ...                  ...
        69        2.0000           -0.4259644             -11.5911
        70        2.0000           -0.4210644             -11.4577
        71        2.0000           -0.4204200             -11.4402
        72        2.0000           -0.4193848             -11.4120
        73        2.0000           -0.4174183             -11.3585
        74        2.0000           -0.4138660             -11.2619
        75        2.0000           -0.4131907             -11.2435
        76        2.0000           -0.4118319             -11.2065
        77        2.0000           -0.4074589             -11.0875
        78        2.0000           -0.3970012             -10.8030
        79        2.0000           -0.3942092             -10.7270
        80        2.0000           -0.3788797             -10.3098
        81        2.0000           -0.3490370              -9.4978 (HOMO)
        82                         -0.2741842              -7.4609 (LUMO)
        83                         -0.2554911              -6.9523
        84                         -0.2410968              -6.5606
        85                         -0.2394773              -6.5165
        86                         -0.2366270              -6.4389
        87                         -0.2277087              -6.1963
        88                         -0.2204898              -5.9998
        89                         -0.2084004              -5.6709
        90                         -0.1994445              -5.4272
        91                         -0.1900592              -5.1718
        92                         -0.1677970              -4.5660
       ...                                ...                  ...
       160                          1.1772307              32.0341
      -------------------------------------------------------------
                  HL-Gap            0.0748528 Eh            2.0368 eV

     #   Z          covCN         q      C6AA      α(0)
     1   6 C        3.761    -0.105    22.549     6.769
     2   6 C        3.912     0.025    20.103     6.373
     3   6 C        3.769    -0.101    22.470     6.755
     4   6 C        2.985    -0.013    28.331     8.731
     5   6 C        2.923    -0.040    28.988     8.829
     6   6 C        2.918    -0.043    29.069     8.841
     7   6 C        2.920    -0.033    28.830     8.805
     8   6 C        2.921    -0.056    29.381     8.889
     9   6 C        2.941     0.057    26.728     8.479
    10   7 N        2.755    -0.073    22.646     7.068
    11   6 C        2.927     0.069    26.461     8.436
    12   6 C        2.921    -0.038    28.935     8.821
    13   6 C        2.920    -0.028    28.704     8.786
    14   6 C        2.920    -0.030    28.759     8.794
    15   6 C        2.920    -0.028    28.688     8.783
    16   6 C        2.923    -0.038    28.944     8.823
    17   6 C        2.933     0.057    26.715     8.477
    18   6 C        2.918    -0.054    29.339     8.882
    19   6 C        2.921    -0.040    29.001     8.831
    20   6 C        2.990     0.002    27.965     8.675
    21   6 C        2.931    -0.039    28.977     8.828
    22   6 C        2.972     0.001    27.998     8.679
    23   6 C        2.976     0.019    27.585     8.615
    24   6 C        2.923    -0.032    28.793     8.800
    25   6 C        2.924    -0.021    28.540     8.761
    26   6 C        2.974     0.015    27.680     8.630
    27   6 C        1.912     0.111    28.364     8.601
    28   7 N        0.911    -0.241    26.299     7.417
    29   6 C        2.924    -0.021    28.537     8.760
    30   6 C        2.924    -0.032    28.805     8.801
    31   6 C        2.922    -0.038    28.947     8.823
    32   6 C        2.917    -0.045    29.111     8.848
    33   6 C        2.978     0.008    27.835     8.654
    34   6 C        2.975    -0.026    28.648     8.780
    35   1 H        0.925     0.036     2.503     2.474
    36   1 H        0.925     0.044     2.396     2.421
    37   1 H        0.925     0.040     2.450     2.448
    38   1 H        0.925     0.034     2.533     2.489
    39   1 H        0.925     0.036     2.501     2.473
    40   1 H        0.925     0.036     2.503     2.474
    41   1 H        0.926     0.036     2.503     2.474
    42   1 H        0.926     0.028     2.621     2.532
    43   1 H        0.926     0.028     2.611     2.527
    44   1 H        0.926     0.024     2.670     2.555
    45   1 H        0.926     0.041     2.437     2.441
    46   1 H        0.926     0.038     2.476     2.461
    47   1 H        0.926     0.038     2.482     2.464
    48   1 H        0.926     0.038     2.470     2.457
    49   1 H        0.926     0.039     2.458     2.452
    50   1 H        0.926     0.030     2.588     2.516
    51   1 H        0.926     0.030     2.582     2.513
    52   1 H        0.925     0.029     2.596     2.519
    53   1 H        0.926     0.039     2.466     2.456
    54   1 H        0.926     0.039     2.465     2.455
    55   1 H        0.926     0.039     2.465     2.455
    56   1 H        0.926     0.038     2.470     2.458
    57   1 H        0.926     0.028     2.617     2.530
    58   1 H        0.926     0.044     2.392     2.418

molecular dipole:
                 x           y           z       tot (Debye)
 q only:       -2.326      -0.017       0.249
   full:       -2.807      -0.069       0.226       7.160

 projected vibrational frequencies (cm⁻¹)
eigval :       -0.00    -0.00     0.00     0.00     0.00     0.00
eigval :       17.71    24.29    28.01    37.11    47.18    57.61
eigval :       64.59    82.94    88.30   119.51   134.22   142.66
eigval :      166.54   176.80   185.78   195.42   216.12   232.89
eigval :      235.16   260.06   284.26   304.35   314.31   330.74
eigval :      351.67   365.81   366.54   375.54   386.45   393.56
eigval :      418.45   422.88   434.51   465.73   472.86   475.60
eigval :      490.05   508.07   519.55   521.37   527.43   534.43
eigval :      547.17   563.58   578.95   588.18   591.99   604.05
eigval :      617.49   625.58   646.74   671.55   675.51   691.07
eigval :      695.32   711.83   723.12   756.83   774.26   781.98
eigval :      789.11   800.44   820.90   832.26   835.52   865.91
eigval :      866.98   876.69   878.28   899.59   901.38   904.92
eigval :      907.77   914.42   915.86   919.99   921.18   926.29
eigval :      928.44   930.67   934.66   958.82   974.59   999.10
eigval :     1010.35  1012.29  1058.95  1079.42  1083.06  1091.10
eigval :     1112.25  1115.20  1136.32  1139.90  1149.26  1170.39
eigval :     1180.58  1184.63  1187.40  1188.27  1192.11  1208.24
eigval :     1216.29  1231.40  1238.12  1251.00  1268.17  1270.06
eigval :     1273.38  1277.13  1296.03  1309.30  1310.82  1314.09
eigval :     1319.96  1333.52  1338.45  1374.02  1387.00  1395.94
eigval :     1397.26  1408.88  1416.60  1433.18  1444.72  1453.94
eigval :     1470.21  1481.20  1488.63  1494.50  1494.91  1500.43
eigval :     1526.55  1534.39  1537.76  1548.86  1582.01  1582.68
eigval :     1583.99  1592.76  1594.65  1600.35  1605.75  2370.91
eigval :     3014.19  3023.66  3025.82  3032.28  3048.00  3054.21
eigval :     3067.85  3077.15  3078.73  3079.10  3079.49  3080.93
eigval :     3081.08  3082.22  3087.56  3088.35  3092.11  3092.39
eigval :     3093.16  3097.15  3099.31  3102.06  3113.70  3184.73

   temp. (K)  partition function   enthalpy   heat capacity  entropy
                                   cal/mol     cal/K/mol   cal/K/mol   J/K/mol
 298.15  VIB  0.146E+12            15663.764    102.189     94.986
         ROT  0.328E+08              888.752      2.981     37.371
         INT  0.478E+19            16552.517    105.170    132.357
         TR   0.882E+28             1481.254      4.968     44.091
         TOT                       18033.7705   110.1378   176.4480   738.2585

       T/K    H(0)-H(T)+PV         H(T)/Eh          T*S/Eh         G(T)/Eh
   ------------------------------------------------------------------------
    298.15    0.287386E-01    0.484032E+00    0.838362E-01    0.400196E+00
   ------------------------------------------------------------------------

         :::::::::::::::::::::::::::::::::::::::::::::::::::::
         ::                  THERMODYNAMIC                  ::
         :::::::::::::::::::::::::::::::::::::::::::::::::::::
         :: total free energy         -86.187456545136 Eh   ::
         ::.................................................::
         :: total energy              -86.587652536892 Eh   ::
         :: zero point energy           0.455293501117 Eh   ::
         :: G(RRHO) w/o ZPVE           -0.055097509360 Eh   ::
         :: G(RRHO) contrib.            0.400195991757 Eh   ::
         :::::::::::::::::::::::::::::::::::::::::::::::::::::

           -------------------------------------------------
          | TOTAL ENERGY              -86.587652536892 Eh   |
          | TOTAL ENTHALPY            -86.103620393266 Eh   |
          | TOTAL FREE ENERGY         -86.187456545136 Eh   |
          | GRADIENT NORM               0.000108255854 Eh/α |
          | HOMO-LUMO GAP               2.036849305418 eV   |
           -------------------------------------------------

 * finished run on 2025/09/04 at 10:33:44.481
