   * xtb version 6.7.1 (edcfbbe) compiled by 'albert@albert-system' on 2024-07-22

   ID    Z sym.   atoms
    1    6 C      1-9, 11-27, 29-34
    2    7 N      10, 28
    3    1 H      35-58

          program call               : xtb data2507/gas/BAPCN/BAPCN_gas_S0_finalOpt.xtbopt.xyz --gfn 2 --spinpol --tblite --uhf 2 --ohess vtight --parallel 40 --molden --ceasefiles --namespace data2507/gas/BAPCN/BAPCN_gas_T1_preOpt
 * total energy  :   -86.5081769 Eh     change       -0.2055310E-07 Eh
 * total energy  :   -86.5135266 Eh     change       -0.5349695E-02 Eh
 * total energy  :   -86.5149037 Eh     change       -0.1377061E-02 Eh
 * total energy  :   -86.5150767 Eh     change       -0.1730626E-03 Eh
 * total energy  :   -86.5152427 Eh     change       -0.1659986E-03 Eh
 * total energy  :   -86.5153631 Eh     change       -0.1203824E-03 Eh
 * total energy  :   -86.5155023 Eh     change       -0.1391521E-03 Eh
 * total energy  :   -86.5156151 Eh     change       -0.1128154E-03 Eh
 * total energy  :   -86.5156879 Eh     change       -0.7278269E-04 Eh
 * total energy  :   -86.5157499 Eh     change       -0.6207370E-04 Eh
 * total energy  :   -86.5159273 Eh     change       -0.9340333E-06 Eh
 * total energy  :   -86.5159284 Eh     change       -0.1056394E-05 Eh
 * total energy  :   -86.5159297 Eh     change       -0.1276864E-05 Eh
 * total energy  :   -86.5159310 Eh     change       -0.1352204E-05 Eh
 * total energy  :   -86.5159322 Eh     change       -0.1221834E-05 Eh
 * total energy  :   -86.5159331 Eh     change       -0.9224069E-06 Eh
 * total energy  :   -86.5159331 Eh     change        0.3781992E-08 Eh
 * total energy  :   -86.5159331 Eh     change        0.2886111E-08 Eh
 * total energy  :   -86.5159331 Eh     change       -0.7300656E-08 Eh
   *** GEOMETRY OPTIMIZATION CONVERGED AFTER 46 ITERATIONS ***

 final structure:
================
58
 xtb: 6.7.1 (edcfbbe)
C           -1.29624290087285        2.68391886583682       -1.46155474883947
C           -1.60776350452565        2.07699499168990       -0.07070014423820
C           -1.11622920847997        2.97240889739087        1.09767286863449
C           -3.11895764102425        2.03215370630889       -0.00003335880256
C           -3.83327258202067        3.22198460226907        0.02389184624789
C           -5.21542582265756        3.24157945714159        0.05044037535987
C           -5.91636412415475        2.04297345868460        0.04958202187157
C           -5.23570955285541        0.84842396111799        0.03030690038160
C           -3.83190254315899        0.82604015791402        0.00838018110368
N           -3.15686470251096       -0.37148389465835        0.00233631741771
C           -3.92597193402789       -1.57294492130026        0.01807704311914
C           -4.28651463548171       -2.17731702986665       -1.17861449903414
C           -5.04232921599762       -3.33641393463112       -1.15892933029795
C           -5.43723445969703       -3.88913012939632        0.04808673950143
C           -5.07636353326063       -3.28330426934769        1.24034353257245
C           -4.32076430659733       -2.12425339687542        1.22996356148042
C           -1.78484558172548       -0.46884817236673        0.01318287077893
C           -1.19952251063240       -1.73637392878342        0.05171348930653
C            0.16027847328753       -1.88586437636789        0.05992678910359
C            1.02089218899645       -0.75211618426994        0.02802661252926
C            2.39104565857826       -0.92345699213926        0.03418243505763
C            3.30578938431647        0.17801208366052        0.01362217359211
C            4.72516896731988       -0.01516879663931        0.00681246871258
C            5.61292039655185        0.99343963336928        0.44954515905661
C            6.96887091996569        0.80909351590795        0.44672192649641
C            7.52144688043682       -0.39943079135160       -0.01325542151890
C            8.90946629972640       -0.59073609717344       -0.02063537276148
N           10.05008866063100       -0.74737674991167       -0.02782893968124
C            6.65767392721239       -1.41247587800268       -0.46370760477682
C            5.30176905514838       -1.22576370364736       -0.44454254735421
C            2.72291355886227        1.45172999155150       -0.01604298799346
C            1.36650287040291        1.64318482384084       -0.03833578230380
C            0.43139793065602        0.55587792722133       -0.00788733520100
C           -0.95817670668970        0.70984844752551       -0.00874432622082
H           -1.81217066692238        2.10556053545220       -2.22685556175404
H           -0.23543578763452        2.66011720170692       -1.68674795742793
H           -1.64781801524632        3.71072984237165       -1.51875448377266
H           -1.92529373052467        3.13587746541819        1.80694840963940
H           -0.30239066989972        2.50109267150381        1.64019745441767
H           -0.78140026698030        3.94294420387374        0.73995512765454
H           -3.29814441254352        4.15919507656573        0.02584557932087
H           -5.74326525642709        4.18227165992588        0.06926915970627
H           -6.99562922439834        2.04356288527078        0.06570857341320
H           -5.78415622944934       -0.08061345778821        0.03190741111476
H           -3.97145869441857       -1.73720778925513       -2.11294317652560
H           -5.32285915862716       -3.80770359908579       -2.08861229146287
H           -6.02665196123846       -4.79326246026450        0.05977433055804
H           -5.38322676544857       -3.71319017601457        2.18171034745017
H           -4.03201167598324       -1.64224329112971        2.15205375029546
H           -1.82866276729536       -2.61257674450779        0.07577854541407
H            0.59900737540374       -2.87096985013264        0.08953682733346
H            2.77505070151563       -1.92935369600760        0.09710626154165
H            5.21447482223882        1.91893196496518        0.83663567040891
H            7.62965976994972        1.58606531536697        0.80419153979492
H            7.07930232552776       -2.33865792955082       -0.82779814636686
H            4.66259778414351       -2.00876034813629       -0.82236943251434
H            3.35716067002397        2.32450270726011       -0.06917063696081
H            1.01706860375247        2.65844694904688       -0.08859191444202

 projected vibrational frequencies (cm⁻¹)
eigval :       -0.00    -0.00    -0.00    -0.00     0.00     0.00
eigval :       12.48    17.86    28.90    38.67    47.21    54.00
eigval :       67.75    74.28    95.90   108.40   118.52   138.92
eigval :      145.94   160.50   177.54   179.58   194.24   209.95
eigval :      226.67   239.36   252.11   284.07   306.72   309.96
eigval :      337.83   339.07   352.93   365.43   371.86   375.71
eigval :      386.24   398.06   412.43   422.03   467.75   474.06
eigval :      485.16   503.23   507.14   513.26   520.98   528.54
eigval :      535.20   558.07   567.80   584.14   592.62   604.18
eigval :      611.97   617.63   627.03   658.00   667.73   673.57
eigval :      691.05   701.63   711.36   755.98   756.64   771.45
eigval :      773.39   790.41   796.08   799.81   813.40   825.49
eigval :      837.63   863.29   873.04   875.14   885.26   900.46
eigval :      905.42   909.42   912.23   914.30   916.41   919.96
eigval :      920.90   928.02   933.67   955.38   974.03   991.28
eigval :      994.57  1028.75  1051.60  1054.59  1078.01  1081.10
eigval :     1103.77  1113.93  1125.71  1130.81  1140.87  1149.67
eigval :     1155.98  1174.40  1179.81  1183.91  1185.02  1200.89
eigval :     1204.47  1208.89  1229.79  1248.75  1254.80  1268.67
eigval :     1272.65  1275.25  1280.13  1306.57  1306.78  1309.17
eigval :     1329.83  1341.68  1343.21  1352.37  1394.68  1405.11
eigval :     1409.55  1419.52  1420.77  1428.55  1431.82  1435.41
eigval :     1442.04  1451.81  1464.80  1467.59  1473.56  1476.56
eigval :     1486.50  1493.91  1499.20  1504.76  1514.85  1519.69
eigval :     1548.24  1570.09  1581.84  1582.28  1591.77  2318.38
eigval :     3020.69  3025.55  3033.35  3040.37  3057.43  3067.37
eigval :     3074.52  3076.68  3079.78  3085.42  3086.09  3087.03
eigval :     3087.56  3091.49  3092.12  3093.05  3093.53  3098.10
eigval :     3099.02  3101.10  3102.54  3104.17  3105.91  3144.74

   temp. (K)  partition function   enthalpy   heat capacity  entropy
                                   cal/mol     cal/K/mol   cal/K/mol   J/K/mol
 298.15  VIB  0.723E+12            16176.776    104.086     99.161
         ROT  0.331E+08              888.752      2.981     37.391
         INT  0.239E+20            17065.528    107.067    136.552
         TR   0.882E+28             1481.254      4.968     44.091
         TOT                       18546.7820   112.0354   180.6428   755.8096

       T/K    H(0)-H(T)+PV         H(T)/Eh          T*S/Eh         G(T)/Eh
   ------------------------------------------------------------------------
    298.15    0.295562E-01    0.480859E+00    0.858292E-01    0.395030E+00
   ------------------------------------------------------------------------

         :::::::::::::::::::::::::::::::::::::::::::::::::::::
         ::                  THERMODYNAMIC                  ::
         :::::::::::::::::::::::::::::::::::::::::::::::::::::
         :: total free energy         -86.120903425433 Eh   ::
         ::.................................................::
         :: total energy              -86.515933147751 Eh   ::
         :: zero point energy           0.451302785602 Eh   ::
         :: G(RRHO) w/o ZPVE           -0.056273063283 Eh   ::
         :: G(RRHO) contrib.            0.395029722318 Eh   ::
         :::::::::::::::::::::::::::::::::::::::::::::::::::::

           -------------------------------------------------
          | TOTAL ENERGY              -86.515933147751 Eh   |
          | TOTAL ENTHALPY            -86.035074183744 Eh   |
          | TOTAL FREE ENERGY         -86.120903425433 Eh   |
          | GRADIENT NORM               0.000169850563 Eh/α |
           -------------------------------------------------

 * finished run on 2025/09/04 at 10:35:02.136
