   * xtb version 6.7.1 (edcfbbe) compiled by 'albert@albert-system' on 2024-07-22

   ID    Z sym.   atoms
    1    6 C      1-6, 8-13, 15-25, 27-31, 33, 34, 36-40, 42
    2    8 O      7
    3    7 N      14, 26, 32, 35, 41
    4    1 H      43-61

          program call               : xtb data2507/toluene/APPT-PXZ/APPT-PXZ.xyz --gfn 2 --gbsa toluene --ohess vtight --parallel 40 --molden --ceasefiles --namespace data2507/toluene/APPT-PXZ/APPT-PXZ_toluene_S0_preOpt
      * Solvation model:               GBSA
        Solvent                        toluene
        Solvent mass                       9.2140E+01 g/mol
          :  Hamiltonian                  GFN2-xTB          :
 * total energy  :  -105.5485796 Eh     change       -0.2864752E-08 Eh
 * total energy  :  -105.5660929 Eh     change       -0.1751325E-01 Eh
 * total energy  :  -105.5704911 Eh     change       -0.4398190E-02 Eh
 * total energy  :  -105.5712147 Eh     change       -0.7236914E-03 Eh
 * total energy  :  -105.5715859 Eh     change       -0.3712009E-03 Eh
 * total energy  :  -105.5716484 Eh     change       -0.6250234E-04 Eh
 * total energy  :  -105.5716713 Eh     change       -0.2285662E-04 Eh
 * total energy  :  -105.5716777 Eh     change       -0.6376183E-05 Eh
 * total energy  :  -105.5716800 Eh     change       -0.2300488E-05 Eh
 * total energy  :  -105.5716823 Eh     change       -0.2365790E-05 Eh
 * total energy  :  -105.5717041 Eh     change       -0.3215976E-06 Eh
 * total energy  :  -105.5717045 Eh     change       -0.3169733E-06 Eh
 * total energy  :  -105.5717048 Eh     change       -0.3181229E-06 Eh
 * total energy  :  -105.5717051 Eh     change       -0.3134235E-06 Eh
 * total energy  :  -105.5717054 Eh     change       -0.3070722E-06 Eh
 * total energy  :  -105.5717057 Eh     change       -0.2893752E-06 Eh
 * total energy  :  -105.5717060 Eh     change       -0.2679501E-06 Eh
 * total energy  :  -105.5717062 Eh     change       -0.2378146E-06 Eh
 * total energy  :  -105.5717062 Eh     change       -0.1783420E-08 Eh
   *** GEOMETRY OPTIMIZATION CONVERGED AFTER 44 ITERATIONS ***

 final structure:
================
61
 xtb: 6.7.1 (edcfbbe)
C           -6.09293092560379        0.20129392789927       -3.57888966250435
C           -4.71530454619159        0.27567580471955       -3.61207016815313
C           -3.98823911849603        0.32557133262157       -2.43138614604984
C           -4.63381197305018        0.30219606758413       -1.20250552725236
C           -6.03275616731591        0.22455053917229       -1.17723020070495
C           -6.75143543282595        0.17515847070679       -2.35619452557987
O           -6.74772799317253        0.19419898168652        0.00008460263094
C           -6.03280784583727        0.22486898837869        1.17742316006738
C           -6.75153686383767        0.17571607853873        2.35636681209639
C           -6.09308489888435        0.20210881423026        3.57908448436242
C           -4.71545888050641        0.27647793194348        3.61230789004833
C           -3.98834359581637        0.32612961221949        2.43164488124381
C           -4.63386598211519        0.30254689273847        1.20274168002134
N           -3.93188521819418        0.35187985346197        0.00012722253573
C           -2.51663318576773        0.44044005211501        0.00013401581730
C           -1.90628849128529        1.67807532898135        0.00054265575190
C           -0.51012821217433        1.84082332286606        0.00054763829417
C            0.27495328098015        0.71430635687525        0.00015161294430
C           -0.35132659713838       -0.55510268356169       -0.00022690025309
C            0.58400745340745       -1.61736765023021       -0.00053631629475
C            0.11982061781928       -2.90947340893232       -0.00086968846430
C           -1.27230460085246       -3.11896189449955       -0.00089688303956
C           -2.18140450943360       -2.08778255885871       -0.00061322377930
C           -1.73482158803851       -0.74670018921789       -0.00026558820908
C            1.89291488299902       -0.98205901524983       -0.00035924700389
N            3.08463745110422       -1.52860913054104       -0.00048776019047
C            4.12460710527460       -0.67271194926721       -0.00023924086820
C            5.45701473410751       -1.22039931299042       -0.00032128063436
C            5.68245552812474       -2.60337953630899       -0.00063663703241
C            6.97683311099707       -3.07012888199364       -0.00066389704515
C            8.01541208052679       -2.13536546351396       -0.00037258240495
N            7.82785150326922       -0.83709006423643       -0.00009189296919
C            6.57914984718698       -0.36518064528866       -0.00006163003864
C            6.38787407267096        1.07236565824950        0.00025014753488
N            7.46959802180475        1.85451729138287        0.00044431327078
C            7.31121850341431        3.15662327689931        0.00070907665278
C            6.06428670911949        3.78721785686683        0.00081246257861
C            4.93706121112296        2.99818515598592        0.00062594321810
C            5.08129065953984        1.60443290253745        0.00033240736447
C            3.93850779602584        0.72742194410160        0.00011594916254
N            2.71117263106056        1.28188704478525        0.00027160397496
C            1.70394218545422        0.44261671093567        0.00004871896412
H           -6.66390154502686        0.16342782005278       -4.49325578371487
H           -4.19163577068924        0.29574353535217       -4.55557483018083
H           -2.91086064366038        0.38299923162285       -2.46156515124806
H           -7.82715366915706        0.11742830239259       -2.29900276065468
H           -7.82725149535750        0.11795221060037        2.29914041330362
H           -6.66409354739039        0.16442108481905        4.49343414898381
H           -4.19182779849092        0.29670233058490        4.55583015479942
H           -2.91096279087115        0.38349818960154        2.46185559956538
H           -2.53367404909985        2.55790406909351        0.00085467874833
H           -0.07988845237459        2.82996778981346        0.00084531988539
H            0.79730319749872       -3.74922307112765       -0.00109632865425
H           -1.63513484977500       -4.13616684272347       -0.00113894891053
H           -3.24068584083107       -2.29769644145580       -0.00064126686450
H            4.83184002965715       -3.26797392719181       -0.00084047033616
H            7.19156279470392       -4.12715930824125       -0.00089659765504
H            9.05006426837165       -2.45390529874347       -0.00037890825108
H            8.22660633215270        3.73456716721632        0.00085965817030
H            5.99501398514066        4.86359201880984        0.00103213013673
H            3.94216908572713        3.41695032573005        0.00068866281364

          :  Hamiltonian                  GFN2-xTB          :
         :: gradient norm              0.000032676652 Eh/a0 ::
         :: HOMO-LUMO gap              0.862121625011 eV    ::
         :: SCC energy              -107.403381971156 Eh    ::
         :: -> dispersion             -0.090020510210 Eh    ::
         :: -> Gsolv                  -0.046291085456 Eh    ::
         :: repulsion energy           1.831675777056 Eh    ::

    * Orbital Energies and Occupations

         #    Occupation            Energy/Eh            Energy/eV
      -------------------------------------------------------------
         1        2.0000           -0.7311899             -19.8967
       ...           ...                  ...                  ...
        85        2.0000           -0.4342693             -11.8171
        86        2.0000           -0.4285871             -11.6624
        87        2.0000           -0.4276696             -11.6375
        88        2.0000           -0.4182733             -11.3818
        89        2.0000           -0.4179376             -11.3727
        90        2.0000           -0.4157262             -11.3125
        91        2.0000           -0.4059991             -11.0478
        92        2.0000           -0.4036323             -10.9834
        93        2.0000           -0.3938054             -10.7160
        94        2.0000           -0.3753526             -10.2139
        95        2.0000           -0.3741138             -10.1802
        96        2.0000           -0.3681855             -10.0188
        97        2.0000           -0.3463159              -9.4237 (HOMO)
        98        0.0000           -0.3146335              -8.5616 (LUMO)
        99                         -0.3030054              -8.2452
       100                         -0.2788208              -7.5871
       101                         -0.2779883              -7.5644
       102                         -0.2538255              -6.9069
       103                         -0.2407534              -6.5512
       104                         -0.2344725              -6.3803
       105                         -0.2325377              -6.3277
       106                         -0.2214049              -6.0247
       107                         -0.2181530              -5.9362
       108                         -0.2102118              -5.7202
       ...                                ...                  ...
       187                          0.7082341              19.2720
      -------------------------------------------------------------
                  HL-Gap            0.0316824 Eh            0.8621 eV

     #   Z          covCN         q      C6AA      α(0)
     1   6 C        2.919    -0.042    29.035     8.836
     2   6 C        2.919    -0.039    28.964     8.825
     3   6 C        2.923    -0.061    29.517     8.910
     4   6 C        2.923     0.043    27.037     8.527
     5   6 C        2.880     0.122    25.324     8.250
     6   6 C        2.919    -0.058    29.438     8.897
     7   8 O        1.708    -0.274    18.538     5.813
     8   6 C        2.880     0.122    25.324     8.250
     9   6 C        2.919    -0.058    29.438     8.897
    10   6 C        2.919    -0.042    29.035     8.836
    11   6 C        2.919    -0.039    28.964     8.825
    12   6 C        2.923    -0.061    29.517     8.910
    13   6 C        2.923     0.043    27.037     8.527
    14   7 N        2.752    -0.076    22.724     7.080
    15   6 C        2.920     0.069    26.456     8.435
    16   6 C        2.922    -0.037    28.916     8.818
    17   6 C        2.912    -0.017    28.438     8.745
    18   6 C        3.029    -0.010    28.233     8.716
    19   6 C        3.142    -0.009    27.985     8.656
    20   6 C        3.029    -0.008    28.188     8.709
    21   6 C        2.912    -0.015    28.378     8.735
    22   6 C        2.919    -0.024    28.592     8.769
    23   6 C        2.917    -0.021    28.520     8.757
    24   6 C        2.977     0.008    27.830     8.653
    25   6 C        3.061     0.083    26.083     8.375
    26   7 N        1.839    -0.254    27.455     7.765
    27   6 C        2.980     0.074    26.334     8.418
    28   6 C        2.983    -0.015    28.388     8.740
    29   6 C        2.927    -0.013    28.335     8.730
    30   6 C        2.912    -0.039    28.960     8.824
    31   6 C        2.905     0.064    26.572     8.452
    32   7 N        1.841    -0.221    26.659     7.652
    33   6 C        2.970     0.084    26.133     8.385
    34   6 C        2.970     0.084    26.134     8.385
    35   7 N        1.841    -0.221    26.660     7.652
    36   6 C        2.905     0.064    26.573     8.453
    37   6 C        2.912    -0.039    28.960     8.824
    38   6 C        2.928    -0.013    28.337     8.730
    39   6 C        2.983    -0.015    28.389     8.740
    40   6 C        2.981     0.074    26.340     8.419
    41   7 N        1.839    -0.254    27.453     7.765
    42   6 C        3.061     0.084    26.081     8.375
    43   1 H        0.926     0.042     2.424     2.434
    44   1 H        0.926     0.040     2.445     2.445
    45   1 H        0.926     0.033     2.549     2.497
    46   1 H        0.926     0.048     2.346     2.395
    47   1 H        0.926     0.048     2.346     2.395
    48   1 H        0.926     0.042     2.424     2.434
    49   1 H        0.926     0.040     2.445     2.445
    50   1 H        0.926     0.033     2.549     2.497
    51   1 H        0.926     0.059     2.216     2.328
    52   1 H        0.926     0.063     2.169     2.303
    53   1 H        0.926     0.059     2.208     2.324
    54   1 H        0.926     0.057     2.230     2.335
    55   1 H        0.926     0.050     2.316     2.380
    56   1 H        0.926     0.064     2.158     2.297
    57   1 H        0.926     0.056     2.252     2.347
    58   1 H        0.925     0.051     2.302     2.373
    59   1 H        0.925     0.051     2.302     2.373
    60   1 H        0.926     0.055     2.253     2.347
    61   1 H        0.926     0.063     2.160     2.298

molecular dipole:
                 x           y           z       tot (Debye)
 q only:       -0.632      -0.329      -0.000
   full:       -1.195      -0.386      -0.000       3.191

 projected vibrational frequencies (cm⁻¹)
eigval :       -0.00    -0.00    -0.00    -0.00     0.00     0.00
eigval :      -22.62    16.10    20.42    26.98    43.84    46.85
eigval :       73.76    81.52    91.96   109.69   118.11   125.85
eigval :      137.34   150.20   160.87   192.81   194.33   216.82
eigval :      226.29   248.03   254.88   260.01   262.70   300.14
eigval :      324.30   336.82   367.92   381.00   391.39   393.80
eigval :      398.84   408.56   412.93   415.36   425.43   430.85
eigval :      438.53   468.03   475.94   491.91   513.13   517.88
eigval :      522.64   523.24   527.21   540.48   553.40   570.10
eigval :      581.48   586.58   589.57   593.87   623.34   632.60
eigval :      652.69   660.54   661.65   666.37   679.31   681.67
eigval :      700.23   705.98   713.14   732.57   745.73   769.20
eigval :      778.42   779.10   780.80   794.61   795.59   799.53
eigval :      808.86   810.86   836.79   850.73   861.45   863.02
eigval :      863.34   895.78   896.10   897.24   910.16   914.37
eigval :      915.11   915.53   917.19   918.28   919.48   926.36
eigval :      926.53   926.99   960.25  1028.14  1049.21  1070.59
eigval :     1076.82  1087.14  1088.76  1089.56  1100.99  1104.58
eigval :     1114.48  1127.69  1133.42  1136.93  1150.89  1168.65
eigval :     1173.74  1178.62  1182.50  1185.88  1192.55  1195.45
eigval :     1211.57  1222.57  1225.16  1239.69  1240.90  1258.44
eigval :     1268.01  1278.67  1292.16  1303.76  1305.16  1317.51
eigval :     1325.07  1334.44  1338.44  1347.94  1357.20  1360.91
eigval :     1368.26  1392.71  1396.12  1413.36  1422.69  1429.26
eigval :     1439.96  1442.03  1451.37  1461.53  1479.11  1484.09
eigval :     1503.82  1516.14  1537.02  1558.62  1559.72  1565.35
eigval :     1565.83  1577.21  1578.12  1579.99  1588.49  1598.04
eigval :     1602.99  1608.26  3053.26  3054.10  3084.37  3086.29
eigval :     3086.55  3086.87  3090.18  3090.50  3093.23  3093.48
eigval :     3093.80  3099.64  3100.10  3100.88  3101.55  3102.03
eigval :     3104.35  3107.53  3108.33

   temp. (K)  partition function   enthalpy   heat capacity  entropy
                                   cal/mol     cal/K/mol   cal/K/mol   J/K/mol
 298.15  VIB  0.216E+12            16643.731    112.574     99.487
         ROT  0.546E+08              888.752      2.981     38.385
         INT  0.118E+20            17532.483    115.555    137.871
         TR   0.121E+29             1481.254      4.968     44.711
         TOT                       19013.7370   120.5227   182.5825   763.9253

       T/K    H(0)-H(T)+PV         H(T)/Eh          T*S/Eh         G(T)/Eh
   ------------------------------------------------------------------------
    298.15    0.303003E-01    0.473061E+00    0.867509E-01    0.386310E+00
   ------------------------------------------------------------------------

         :::::::::::::::::::::::::::::::::::::::::::::::::::::
         ::                  THERMODYNAMIC                  ::
         :::::::::::::::::::::::::::::::::::::::::::::::::::::
         :: total free energy        -105.185395980145 Eh   ::
         ::.................................................::
         :: total energy             -105.571706191192 Eh   ::
         :: zero point energy           0.442760748006 Eh   ::
         :: G(RRHO) w/o ZPVE           -0.056450536960 Eh   ::
         :: G(RRHO) contrib.            0.386310211046 Eh   ::
         :::::::::::::::::::::::::::::::::::::::::::::::::::::

           -------------------------------------------------
          | TOTAL ENERGY             -105.571706191192 Eh   |
          | TOTAL ENTHALPY           -105.098645124515 Eh   |
          | TOTAL FREE ENERGY        -105.185395980145 Eh   |
          | GRADIENT NORM               0.000074405942 Eh/α |
          | HOMO-LUMO GAP               0.862121860673 eV   |
           -------------------------------------------------

 * finished run on 2025/07/20 at 20:19:25.831
