   * xtb version 6.7.1 (edcfbbe) compiled by 'albert@albert-system' on 2024-07-22

   ID    Z sym.   atoms
    1    6 C      1-6, 8-13, 15-25, 27-31, 33, 34, 36-40, 42
    2    8 O      7
    3    7 N      14, 26, 32, 35, 41
    4    1 H      43-61

          program call               : xtb data2507/toluene/APPT-PXZ/APPT-PXZ_toluene_S0_crest.xyz --gfn 2 --gbsa toluene --ohess vtight --parallel 40 --molden --ceasefiles --namespace data2507/toluene/APPT-PXZ/APPT-PXZ_toluene_S0_finalOpt
      * Solvation model:               GBSA
        Solvent                        toluene
        Solvent mass                       9.2140E+01 g/mol
          :  Hamiltonian                  GFN2-xTB          :
 * total energy  :  -105.5730277 Eh     change       -0.1709168E-08 Eh
 * total energy  :  -105.5730629 Eh     change       -0.3523911E-04 Eh
 * total energy  :  -105.5730697 Eh     change       -0.6816236E-05 Eh
 * total energy  :  -105.5730711 Eh     change       -0.1369641E-05 Eh
 * total energy  :  -105.5730719 Eh     change       -0.7646375E-06 Eh
 * total energy  :  -105.5730724 Eh     change       -0.5058263E-06 Eh
 * total energy  :  -105.5730729 Eh     change       -0.5509672E-06 Eh
 * total energy  :  -105.5730733 Eh     change       -0.4146667E-06 Eh
 * total energy  :  -105.5730737 Eh     change       -0.3904777E-06 Eh
 * total energy  :  -105.5730740 Eh     change       -0.3254882E-06 Eh
 * total energy  :  -105.5730743 Eh     change       -0.2787120E-06 Eh
 * total energy  :  -105.5730746 Eh     change       -0.2711195E-06 Eh
 * total energy  :  -105.5730748 Eh     change       -0.2507808E-06 Eh
 * total energy  :  -105.5730750 Eh     change       -0.1818738E-06 Eh
 * total energy  :  -105.5730751 Eh     change       -0.4223703E-07 Eh
   *** GEOMETRY OPTIMIZATION CONVERGED AFTER 15 ITERATIONS ***

 final structure:
================
61
 xtb: 6.7.1 (edcfbbe)
C           -6.23339142727428        2.48791314451748        2.47642129045604
C           -4.85863307361813        2.39662993907991        2.57178870309735
C           -4.16226108459278        1.47674445376206        1.80340965804692
C           -4.82895811850108        0.64297320300591        0.91319036111877
C           -6.22644070128357        0.71679016787168        0.85280317690889
C           -6.91731979844570        1.63578642086607        1.62228312294299
O           -6.97445844794173       -0.11486172874940        0.05435813833544
C           -6.30158178309682       -1.07129439891760       -0.66833289928749
C           -7.06987743031306       -1.92537845217554       -1.43897990634661
C           -6.46461773812269       -2.89146519086805       -2.22861397980852
C           -5.08702327299380       -2.98374283360572       -2.25311696323871
C           -4.31312959158702       -2.13273349745341       -1.47924973570326
C           -4.90444535361249       -1.17976778657833       -0.65839670460299
N           -4.15373880937554       -0.29288243319144        0.12159893744812
C           -2.74972988000972       -0.37005783375072        0.15785487508761
C           -2.13053876273252       -1.50899890109835        0.64632598660495
C           -0.73875630668124       -1.65482345861240        0.71750496875117
C            0.05020522291174       -0.61800350371034        0.27673936965480
C           -0.57796216469493        0.54309354081458       -0.23483898922676
C            0.35964722749865        1.51141774620171       -0.66872498317206
C           -0.09964024585637        2.68560475424843       -1.21342411214126
C           -1.48964176266756        2.86868366936446       -1.32239211259587
C           -2.40084999201654        1.93138100634602       -0.89454507858321
C           -1.96155011017405        0.71840875187328       -0.31795387140066
C            1.66700782721316        0.93247701050533       -0.40615728262333
N            2.85913992600947        1.42839593139560       -0.63347975020791
C            3.89833567361759        0.64459351821712       -0.28627654068695
C            5.23077443539830        1.13820518536899       -0.52204704509077
C            5.45628462929885        2.39559050234476       -1.09771079876369
C            6.75048637170814        2.81445772494668       -1.30469942844893
C            7.78904332472796        1.95977929546412       -0.92640389339715
N            7.60152861793964        0.77948810003810       -0.38549588797256
C            6.35286548499792        0.35526358210253       -0.17807671656637
C            6.16099844078606       -0.95211267258856        0.41937277931029
N            7.24232047575450       -1.66850821999657        0.73553925080071
C            7.08318043107589       -2.85306651463506        1.27622379590526
C            5.83605356423228       -3.42110511895743        1.54838930968718
C            4.70948166366674       -2.69847118196545        1.22888857086758
C            4.85414176397360       -1.43145222488629        0.64865368156630
C            3.71103087294878       -0.63124594733054        0.28965049491714
N            2.48409823289404       -1.13754154511950        0.51584216586216
C            1.47591310885282       -0.37038666265081        0.17294276411096
H           -6.78006884518576        3.20456475056189        3.06863070470843
H           -4.31403851349722        3.03692329966274        3.24845072093739
H           -3.09030931206520        1.40624180490121        1.89851046767854
H           -7.99242821957040        1.66481521143684        1.53968318711293
H           -8.14213810968423       -1.81125018190128       -1.41138536436166
H           -7.07198374561994       -3.55381550066602       -2.82495383980233
H           -4.59962828749769       -3.71614544473573       -2.87802878759085
H           -3.23792804645914       -2.20464965197117       -1.52198054669350
H           -2.75502431945026       -2.31679048394159        1.00042301190569
H           -0.30906508232891       -2.55818145581756        1.12132961510269
H            0.58058405339000        3.44999651441253       -1.55574459524010
H           -1.85243471413470        3.78567147179904       -1.76267764801639
H           -3.45809726864494        2.12239954450159       -1.00179650498151
H            4.60540104602990        3.00359835459481       -1.36534741563598
H            6.96477663932646        3.77509894062016       -1.74608624361759
H            8.82364567997694        2.24475716106654       -1.06900594969802
H            7.99832522450285       -3.38258126572178        1.50894601719173
H            5.76569208173316       -4.39974835786805        1.99656800048149
H            3.71423547056466       -3.07497384782751        1.41045991550304

          :  Hamiltonian                  GFN2-xTB          :
         :: gradient norm              0.000140699546 Eh/a0 ::
         :: HOMO-LUMO gap              1.073986312239 eV    ::
         :: SCC energy              -107.403456902943 Eh    ::
         :: -> dispersion             -0.090400451462 Eh    ::
         :: -> Gsolv                  -0.046323729179 Eh    ::
         :: repulsion energy           1.830381835112 Eh    ::

    * Orbital Energies and Occupations

         #    Occupation            Energy/Eh            Energy/eV
      -------------------------------------------------------------
         1        2.0000           -0.7354542             -20.0127
       ...           ...                  ...                  ...
        85        2.0000           -0.4315306             -11.7425
        86        2.0000           -0.4307037             -11.7200
        87        2.0000           -0.4242444             -11.5443
        88        2.0000           -0.4211269             -11.4594
        89        2.0000           -0.4183830             -11.3848
        90        2.0000           -0.4159529             -11.3187
        91        2.0000           -0.4039870             -10.9930
        92        2.0000           -0.4012119             -10.9175
        93        2.0000           -0.3955852             -10.7644
        94        2.0000           -0.3740080             -10.1773
        95        2.0000           -0.3729020             -10.1472
        96        2.0000           -0.3654034              -9.9431
        97        2.0000           -0.3505927              -9.5401 (HOMO)
        98                         -0.3111243              -8.4661 (LUMO)
        99                         -0.3002703              -8.1708
       100                         -0.2773577              -7.5473
       101                         -0.2759711              -7.5096
       102                         -0.2502562              -6.8098
       103                         -0.2440474              -6.6409
       104                         -0.2353014              -6.4029
       105                         -0.2327790              -6.3342
       106                         -0.2231869              -6.0732
       107                         -0.2183490              -5.9416
       108                         -0.2083742              -5.6702
       ...                                ...                  ...
       187                          0.7105652              19.3355
      -------------------------------------------------------------
                  HL-Gap            0.0394684 Eh            1.0740 eV

     #   Z          covCN         q      C6AA      α(0)
     1   6 C        2.919    -0.039    28.965     8.825
     2   6 C        2.919    -0.038    28.939     8.822
     3   6 C        2.923    -0.058    29.431     8.897
     4   6 C        2.922     0.042    27.068     8.532
     5   6 C        2.883     0.124    25.285     8.244
     6   6 C        2.919    -0.057    29.407     8.893
     7   8 O        1.708    -0.267    18.418     5.794
     8   6 C        2.883     0.124    25.282     8.243
     9   6 C        2.919    -0.057    29.404     8.892
    10   6 C        2.919    -0.039    28.967     8.826
    11   6 C        2.919    -0.038    28.938     8.821
    12   6 C        2.923    -0.059    29.469     8.902
    13   6 C        2.921     0.041    27.088     8.535
    14   7 N        2.750    -0.064    22.470     7.040
    15   6 C        2.918     0.065    26.550     8.450
    16   6 C        2.922    -0.042    29.037     8.837
    17   6 C        2.911    -0.019    28.476     8.750
    18   6 C        3.031    -0.015    28.358     8.735
    19   6 C        3.141    -0.010    28.010     8.661
    20   6 C        3.030    -0.010    28.232     8.715
    21   6 C        2.912    -0.016    28.419     8.742
    22   6 C        2.919    -0.025    28.638     8.776
    23   6 C        2.917    -0.023    28.574     8.766
    24   6 C        2.976     0.006    27.880     8.661
    25   6 C        3.061     0.083    26.091     8.376
    26   7 N        1.839    -0.258    27.552     7.779
    27   6 C        2.980     0.073    26.356     8.421
    28   6 C        2.983    -0.016    28.394     8.741
    29   6 C        2.928    -0.013    28.347     8.731
    30   6 C        2.912    -0.039    28.973     8.826
    31   6 C        2.905     0.063    26.584     8.454
    32   7 N        1.841    -0.223    26.701     7.658
    33   6 C        2.970     0.083    26.140     8.386
    34   6 C        2.970     0.083    26.137     8.386
    35   7 N        1.841    -0.223    26.700     7.658
    36   6 C        2.905     0.063    26.581     8.454
    37   6 C        2.912    -0.039    28.974     8.826
    38   6 C        2.928    -0.013    28.345     8.731
    39   6 C        2.983    -0.016    28.396     8.741
    40   6 C        2.980     0.074    26.337     8.418
    41   7 N        1.839    -0.259    27.587     7.784
    42   6 C        3.060     0.083    26.090     8.376
    43   1 H        0.926     0.045     2.379     2.412
    44   1 H        0.926     0.043     2.407     2.426
    45   1 H        0.926     0.037     2.487     2.466
    46   1 H        0.926     0.051     2.305     2.374
    47   1 H        0.926     0.051     2.307     2.375
    48   1 H        0.926     0.045     2.382     2.414
    49   1 H        0.926     0.044     2.400     2.423
    50   1 H        0.926     0.040     2.448     2.446
    51   1 H        0.926     0.056     2.251     2.346
    52   1 H        0.926     0.058     2.221     2.330
    53   1 H        0.926     0.056     2.247     2.344
    54   1 H        0.926     0.055     2.264     2.353
    55   1 H        0.926     0.048     2.339     2.392
    56   1 H        0.926     0.062     2.172     2.305
    57   1 H        0.926     0.054     2.267     2.355
    58   1 H        0.925     0.050     2.316     2.380
    59   1 H        0.925     0.050     2.315     2.379
    60   1 H        0.926     0.054     2.266     2.354
    61   1 H        0.926     0.062     2.171     2.304

molecular dipole:
                 x           y           z       tot (Debye)
 q only:       -1.438       0.223      -0.109
   full:       -1.984       0.281      -0.132       5.104

 projected vibrational frequencies (cm⁻¹)
eigval :       -0.00    -0.00     0.00     0.00     0.00     0.00
eigval :       15.44    19.04    25.94    35.62    47.00    48.84
eigval :       79.27    81.83    96.69   113.54   118.07   128.48
eigval :      146.37   162.34   164.94   194.67   198.29   218.19
eigval :      230.42   246.72   255.42   261.82   266.55   307.23
eigval :      328.37   337.87   370.68   384.05   392.55   396.00
eigval :      398.91   413.76   415.34   419.08   431.02   435.82
eigval :      440.89   468.03   475.25   491.33   508.62   518.32
eigval :      522.35   525.30   530.03   539.56   553.74   570.19
eigval :      583.97   587.37   590.97   594.28   623.68   632.84
eigval :      649.58   658.32   660.75   667.54   678.88   682.38
eigval :      700.47   707.23   713.33   731.13   746.36   770.75
eigval :      776.78   778.03   781.59   793.51   795.69   796.75
eigval :      808.22   811.25   839.84   853.68   860.86   864.51
eigval :      865.91   892.46   897.15   898.74   912.07   912.40
eigval :      914.13   915.84   916.27   918.78   919.67   924.84
eigval :      925.09   926.90   960.86  1029.72  1050.42  1072.71
eigval :     1079.32  1088.67  1089.45  1090.46  1100.78  1106.23
eigval :     1116.10  1129.42  1135.07  1138.13  1152.11  1167.61
eigval :     1172.61  1182.47  1184.17  1187.81  1197.73  1198.57
eigval :     1213.23  1224.94  1229.48  1241.25  1242.94  1258.59
eigval :     1268.36  1279.51  1290.33  1303.59  1304.17  1317.39
eigval :     1320.77  1329.88  1336.83  1343.03  1355.54  1361.11
eigval :     1369.07  1393.77  1398.18  1413.51  1420.44  1421.60
eigval :     1438.23  1441.41  1451.39  1460.53  1475.09  1477.11
eigval :     1497.76  1515.67  1535.29  1555.98  1559.17  1564.78
eigval :     1566.74  1573.55  1576.78  1577.55  1587.33  1591.31
eigval :     1599.35  1606.22  3052.74  3053.13  3083.52  3084.95
eigval :     3088.95  3089.13  3089.43  3089.88  3093.58  3097.58
eigval :     3097.79  3099.20  3099.70  3101.44  3102.85  3105.65
eigval :     3105.98  3110.22  3111.01

   temp. (K)  partition function   enthalpy   heat capacity  entropy
                                   cal/mol     cal/K/mol   cal/K/mol   J/K/mol
 298.15  VIB  0.102E+13            17090.750    113.748    102.881
         ROT  0.547E+08              888.752      2.981     38.390
         INT  0.558E+20            17979.502    116.729    141.271
         TR   0.121E+29             1481.254      4.968     44.711
         TOT                       19460.7559   121.6971   185.9822   778.1497

       T/K    H(0)-H(T)+PV         H(T)/Eh          T*S/Eh         G(T)/Eh
   ------------------------------------------------------------------------
    298.15    0.310127E-01    0.474085E+00    0.883662E-01    0.385719E+00
   ------------------------------------------------------------------------

         :::::::::::::::::::::::::::::::::::::::::::::::::::::
         ::                  THERMODYNAMIC                  ::
         :::::::::::::::::::::::::::::::::::::::::::::::::::::
         :: total free energy        -105.187355864289 Eh   ::
         ::.................................................::
         :: total energy             -105.573075065284 Eh   ::
         :: zero point energy           0.443072679573 Eh   ::
         :: G(RRHO) w/o ZPVE           -0.057353478578 Eh   ::
         :: G(RRHO) contrib.            0.385719200996 Eh   ::
         :::::::::::::::::::::::::::::::::::::::::::::::::::::

           -------------------------------------------------
          | TOTAL ENERGY             -105.573075065284 Eh   |
          | TOTAL ENTHALPY           -105.098989697166 Eh   |
          | TOTAL FREE ENERGY        -105.187355864289 Eh   |
          | GRADIENT NORM               0.000140682337 Eh/α |
          | HOMO-LUMO GAP               1.073989371111 eV   |
           -------------------------------------------------

 * finished run on 2025/07/20 at 20:22:13.047
