   * xtb version 6.7.1 (edcfbbe) compiled by 'albert@albert-system' on 2024-07-22

   ID    Z sym.   atoms
    1    6 C      1-6, 8-13, 15-25, 27-31, 33, 34, 36-40, 42
    2    8 O      7
    3    7 N      14, 26, 32, 35, 41
    4    1 H      43-61

          program call               : xtb data2507/toluene/APPT-PXZ/APPT-PXZ_toluene_S0_finalOpt.xtbopt.xyz --gfn 2 --uhf 2 --gbsa toluene --ohess vtight --parallel 40 --molden --ceasefiles --namespace data2507/toluene/APPT-PXZ/APPT-PXZ_toluene_T1_preOpt
      * Solvation model:               GBSA
        Solvent                        toluene
        Solvent mass                       9.2140E+01 g/mol
          :  Hamiltonian                  GFN2-xTB          :
 * total energy  :  -105.5167206 Eh     change       -0.8938628E-10 Eh
 * total energy  :  -105.5201083 Eh     change       -0.3387710E-02 Eh
 * total energy  :  -105.5220284 Eh     change       -0.1920087E-02 Eh
 * total energy  :  -105.5221672 Eh     change       -0.1388339E-03 Eh
 * total energy  :  -105.5222650 Eh     change       -0.9772650E-04 Eh
 * total energy  :  -105.5222894 Eh     change       -0.2444076E-04 Eh
 * total energy  :  -105.5223094 Eh     change       -0.2002246E-04 Eh
 * total energy  :  -105.5223360 Eh     change       -0.2654265E-04 Eh
 * total energy  :  -105.5223717 Eh     change       -0.3569953E-04 Eh
 * total energy  :  -105.5223944 Eh     change       -0.2278330E-04 Eh
 * total energy  :  -105.5226241 Eh     change       -0.1178404E-05 Eh
 * total energy  :  -105.5226256 Eh     change       -0.1505386E-05 Eh
 * total energy  :  -105.5226271 Eh     change       -0.1423985E-05 Eh
 * total energy  :  -105.5226279 Eh     change       -0.8567237E-06 Eh
 * total energy  :  -105.5226286 Eh     change       -0.6487559E-06 Eh
 * total energy  :  -105.5226290 Eh     change       -0.3947896E-06 Eh
 * total energy  :  -105.5226293 Eh     change       -0.3158618E-06 Eh
 * total energy  :  -105.5226296 Eh     change       -0.3444309E-06 Eh
 * total energy  :  -105.5226296 Eh     change       -0.3861842E-08 Eh
   *** GEOMETRY OPTIMIZATION CONVERGED AFTER 44 ITERATIONS ***

 final structure:
================
61
 xtb: 6.7.1 (edcfbbe)
C           -6.27695305092153        2.35790669904403        2.63035006379277
C           -4.89454104704672        2.29012277082243        2.71718977602962
C           -4.18321242071959        1.41483476915615        1.91837669234377
C           -4.84485536954096        0.59111885070919        1.00829614204398
C           -6.24917951338117        0.65466880528434        0.94045487306704
C           -6.95372669910562        1.53534992031424        1.74567671532110
O           -6.96996038031968       -0.14321384839121        0.09713571619875
C           -6.28422083082212       -1.01301149998086       -0.70313204655235
C           -7.02446533279195       -1.81466601196235       -1.55740954669074
C           -6.38284799618258       -2.70243195785048       -2.40443005506726
C           -4.99824077285904       -2.78025404327053       -2.40311613820068
C           -4.25158727219685       -1.98581967725476       -1.55359776458663
C           -4.87941828215887       -1.09838740947627       -0.68018490584475
N           -4.16444969965741       -0.29318977355307        0.18936471300544
C           -2.74511566153185       -0.36018804581968        0.23000917625835
C           -2.13130167589936       -1.45563812754259        0.83510534309862
C           -0.75427528428061       -1.60004752841993        0.91371019996384
C            0.04588153820605       -0.59818031933139        0.35822486245842
C           -0.58572345263252        0.51472806916486       -0.25353803410742
C            0.34699230160759        1.44437154853156       -0.77121768667017
C           -0.12941461490366        2.58775039449665       -1.41081260765260
C           -1.50632233914592        2.75619766371646       -1.51162963182846
C           -2.42052459166880        1.84440662397531       -1.00505698319101
C           -1.97284365328348        0.68163064559128       -0.34721033574099
C            1.63747029341666        0.91384504493770       -0.48037513712980
N            2.84055474757369        1.34313582642764       -0.71660626356403
C            3.89625228987098        0.62678941055270       -0.33583808636200
C            5.21927843284249        1.09853528627420       -0.59722894546982
C            5.44794060226465        2.32482424001121       -1.24300117940718
C            6.74131098119913        2.73455170924175       -1.46817498329457
C            7.78278083046078        1.90852566981725       -1.04101656396549
N            7.59224805007647        0.75645538863764       -0.43693048191270
C            6.34868305999876        0.34021214060356       -0.21118455217780
C            6.16073809945268       -0.93760750420792        0.45556091419247
N            7.24197604255497       -1.63577460133975        0.79558067146431
C            7.09236395182165       -2.79446681283680        1.39892052621913
C            5.84895701921215       -3.34515085415988        1.71063472539131
C            4.71806739307241       -2.63919865558371        1.36801005512660
C            4.85289436447472       -1.40097284830366        0.72225297945628
C            3.70823102605997       -0.63009450047211        0.33758711705325
N            2.48566062005285       -1.07622347750790        0.59268672115545
C            1.44255894149092       -0.38137228326168        0.22930202097384
H           -6.82979929824860        3.04311119195904        3.25287943669189
H           -4.36326299096081        2.92153146875418        3.41202317243764
H           -3.10891614317827        1.36038153502376        1.99129402303906
H           -8.02861413223307        1.55763563255071        1.66315768847745
H           -8.09878748553762       -1.72331999918441       -1.54373157153753
H           -6.96367343689961       -3.32491079286432       -3.06611839927248
H           -4.49287967258310       -3.46176923883069       -3.06939637835136
H           -3.17480174443916       -2.04164295614905       -1.55931097760208
H           -2.76568865155568       -2.21953135636166        1.26300182334599
H           -0.31723577263981       -2.46166518766953        1.39274625630352
H            0.54980684737122        3.32025682818419       -1.81867881249496
H           -1.88248157656395        3.63946243024304       -2.00862207083878
H           -3.47827271436550        2.03218091928295       -1.11678824051518
H            4.59672271497055        2.91673113434106       -1.54610025272285
H            6.95302369542362        3.67066832139145       -1.96099421119050
H            8.81691277140570        2.18848428116853       -1.19318534167480
H            8.01078148908208       -3.31077509349418        1.64635442124727
H            5.78183605016095       -4.30085800766659        2.20656150941864
H            3.72517949038706       -3.00826065513596        1.57907751090376

          :  Hamiltonian                  GFN2-xTB          :
         :: gradient norm              0.000042721742 Eh/a0 ::
         :: HOMO-LUMO gap              0.326330890453 eV    ::
         :: SCC energy              -107.355505763996 Eh    ::
         :: -> dispersion             -0.090283589943 Eh    ::
         :: -> Gsolv                  -0.047874091846 Eh    ::
         :: repulsion energy           1.832876129702 Eh    ::

    * Orbital Energies and Occupations

         #    Occupation            Energy/Eh            Energy/eV
      -------------------------------------------------------------
         1        2.0000           -0.7547616             -20.5381
       ...           ...                  ...                  ...
        86        2.0000           -0.4297728             -11.6947
        87        2.0000           -0.4284469             -11.6586
        88        2.0000           -0.4219751             -11.4825
        89        2.0000           -0.4106586             -11.1746
        90        2.0000           -0.4092221             -11.1355
        91        2.0000           -0.4085442             -11.1171
        92        2.0000           -0.3882420             -10.5646
        93        2.0000           -0.3869506             -10.5295
        94        2.0000           -0.3696801             -10.0595
        95        1.9999           -0.3689377             -10.0393
        96        1.5563           -0.3604725              -9.8090
        97        1.4439           -0.3600436              -9.7973
        98        0.9982           -0.3039200              -8.2701 (HOMO)
        99        0.0018           -0.2919275              -7.9438 (LUMO)
       100                         -0.2712543              -7.3812
       101                         -0.2701517              -7.3512
       102                         -0.2586907              -7.0393
       103                         -0.2464968              -6.7075
       104                         -0.2323505              -6.3226
       105                         -0.2313946              -6.2966
       106                         -0.2249379              -6.1209
       107                         -0.2146636              -5.8413
       108                         -0.2124684              -5.7816
       109                         -0.1996805              -5.4336
       ...                                ...                  ...
       187                          0.7327043              19.9379
      -------------------------------------------------------------
                  HL-Gap            0.0119926 Eh            0.3263 eV

     #   Z          covCN         q      C6AA      α(0)
     1   6 C        2.919    -0.030    28.738     8.791
     2   6 C        2.918    -0.029    28.736     8.791
     3   6 C        2.921    -0.048    29.201     8.862
     4   6 C        2.926     0.048    26.923     8.509
     5   6 C        2.884     0.130    25.155     8.223
     6   6 C        2.916    -0.052    29.287     8.874
     7   8 O        1.709    -0.229    17.800     5.696
     8   6 C        2.884     0.130    25.151     8.222
     9   6 C        2.916    -0.052    29.283     8.874
    10   6 C        2.919    -0.030    28.739     8.791
    11   6 C        2.918    -0.030    28.737     8.791
    12   6 C        2.921    -0.050    29.233     8.866
    13   6 C        2.926     0.047    26.941     8.512
    14   7 N        2.752    -0.022    21.677     6.915
    15   6 C        2.922     0.025    27.450     8.592
    16   6 C        2.918    -0.043    29.062     8.840
    17   6 C        2.909    -0.042    29.033     8.835
    18   6 C        3.026    -0.026    28.623     8.776
    19   6 C        3.157    -0.010    27.951     8.644
    20   6 C        3.026    -0.023    28.562     8.766
    21   6 C        2.909    -0.037    28.919     8.818
    22   6 C        2.917    -0.033    28.816     8.803
    23   6 C        2.917    -0.048    29.201     8.861
    24   6 C        2.973     0.004    27.937     8.670
    25   6 C        3.045     0.074    26.314     8.413
    26   7 N        1.840    -0.208    26.350     7.607
    27   6 C        2.959     0.061    26.621     8.463
    28   6 C        2.980    -0.014    28.367     8.736
    29   6 C        2.928    -0.019    28.488     8.753
    30   6 C        2.911    -0.041    29.007     8.831
    31   6 C        2.904     0.057    26.726     8.477
    32   7 N        1.841    -0.226    26.777     7.669
    33   6 C        2.969     0.082    26.172     8.391
    34   6 C        2.968     0.083    26.140     8.386
    35   7 N        1.841    -0.227    26.800     7.672
    36   6 C        2.904     0.058    26.698     8.472
    37   6 C        2.911    -0.041    29.012     8.832
    38   6 C        2.928    -0.019    28.474     8.751
    39   6 C        2.981    -0.014    28.360     8.735
    40   6 C        2.959     0.065    26.543     8.450
    41   7 N        1.840    -0.209    26.377     7.611
    42   6 C        3.045     0.067    26.451     8.435
    43   1 H        0.926     0.059     2.214     2.327
    44   1 H        0.926     0.055     2.254     2.348
    45   1 H        0.926     0.052     2.294     2.368
    46   1 H        0.926     0.064     2.147     2.291
    47   1 H        0.926     0.064     2.147     2.291
    48   1 H        0.926     0.059     2.214     2.327
    49   1 H        0.926     0.056     2.248     2.345
    50   1 H        0.926     0.053     2.279     2.361
    51   1 H        0.925     0.038     2.470     2.458
    52   1 H        0.926     0.036     2.504     2.474
    53   1 H        0.926     0.030     2.580     2.512
    54   1 H        0.926     0.033     2.551     2.497
    55   1 H        0.926     0.023     2.684     2.562
    56   1 H        0.926     0.052     2.298     2.371
    57   1 H        0.926     0.050     2.324     2.384
    58   1 H        0.925     0.045     2.388     2.416
    59   1 H        0.925     0.045     2.378     2.412
    60   1 H        0.926     0.050     2.314     2.379
    61   1 H        0.926     0.053     2.283     2.363

molecular dipole:
                 x           y           z       tot (Debye)
 q only:       -4.157      -0.232       0.138
   full:       -4.644      -0.145       0.100      11.811

 projected vibrational frequencies (cm⁻¹)
eigval :       -0.00    -0.00    -0.00    -0.00     0.00     0.00
eigval :       15.67    17.45    26.80    36.87    49.14    54.99
eigval :       78.50    84.35    97.43   109.17   112.49   125.91
eigval :      146.73   161.08   170.04   194.03   198.20   216.48
eigval :      230.35   246.17   257.96   263.07   267.83   313.87
eigval :      317.01   348.25   355.93   387.82   393.74   397.05
eigval :      400.79   409.75   410.55   428.63   431.77   438.45
eigval :      447.72   462.93   465.59   491.33   498.22   509.94
eigval :      516.86   523.68   526.08   530.03   545.72   562.99
eigval :      568.00   578.72   581.26   589.54   616.59   618.60
eigval :      630.59   646.16   659.76   664.93   668.95   672.86
eigval :      689.88   693.05   698.72   707.04   715.40   750.65
eigval :      768.38   775.93   778.21   778.76   788.64   791.99
eigval :      799.94   801.70   807.45   848.14   849.39   855.10
eigval :      866.03   867.57   892.08   899.30   902.37   903.58
eigval :      905.66   911.46   913.30   914.62   916.61   918.00
eigval :      919.27   919.70   945.09  1013.88  1031.49  1047.13
eigval :     1066.24  1081.00  1082.80  1086.76  1091.93  1103.14
eigval :     1111.75  1112.94  1127.97  1129.14  1132.43  1154.12
eigval :     1168.42  1170.03  1181.09  1184.94  1191.92  1200.61
eigval :     1205.62  1216.21  1221.25  1235.28  1249.02  1255.31
eigval :     1270.36  1273.21  1288.76  1292.45  1295.44  1306.29
eigval :     1308.88  1316.67  1319.73  1334.96  1346.66  1351.67
eigval :     1360.10  1377.97  1380.53  1383.94  1413.30  1415.68
eigval :     1417.41  1432.33  1435.32  1439.10  1440.33  1469.25
eigval :     1476.90  1490.87  1505.72  1516.15  1527.40  1530.24
eigval :     1538.57  1552.81  1561.36  1562.42  1562.99  1568.68
eigval :     1579.52  1584.71  3053.95  3054.46  3068.27  3072.77
eigval :     3080.06  3081.40  3082.11  3093.91  3094.53  3095.75
eigval :     3095.83  3096.89  3100.58  3103.83  3104.53  3112.01
eigval :     3112.91  3115.42  3116.16

   temp. (K)  partition function   enthalpy   heat capacity  entropy
                                   cal/mol     cal/K/mol   cal/K/mol   J/K/mol
 298.15  VIB  0.102E+13            17230.784    115.219    103.662
         ROT  0.546E+08              888.752      2.981     38.384
         INT  0.557E+20            18119.536    118.200    142.046
         TR   0.121E+29             1481.254      4.968     44.711
         TOT                       19600.7899   123.1678   186.7571   781.3918

       T/K    H(0)-H(T)+PV         H(T)/Eh          T*S/Eh         G(T)/Eh
   ------------------------------------------------------------------------
    298.15    0.312358E-01    0.471106E+00    0.887343E-01    0.382372E+00
   ------------------------------------------------------------------------

         :::::::::::::::::::::::::::::::::::::::::::::::::::::
         ::                  THERMODYNAMIC                  ::
         :::::::::::::::::::::::::::::::::::::::::::::::::::::
         :: total free energy        -105.140257522053 Eh   ::
         ::.................................................::
         :: total energy             -105.522629632613 Eh   ::
         :: zero point energy           0.439870595296 Eh   ::
         :: G(RRHO) w/o ZPVE           -0.057498484735 Eh   ::
         :: G(RRHO) contrib.            0.382372110560 Eh   ::
         :::::::::::::::::::::::::::::::::::::::::::::::::::::

           -------------------------------------------------
          | TOTAL ENERGY             -105.522629632613 Eh   |
          | TOTAL ENTHALPY           -105.051523190420 Eh   |
          | TOTAL FREE ENERGY        -105.140257522053 Eh   |
          | GRADIENT NORM               0.000043880048 Eh/α |
          | HOMO-LUMO GAP               0.326334384230 eV   |
           -------------------------------------------------

 * finished run on 2025/07/20 at 20:22:18.465
