   * xtb version 6.7.1 (edcfbbe) compiled by 'albert@albert-system' on 2024-07-22

   ID    Z sym.   atoms
    1    6 C      1-6, 8-13, 15-25, 27-31, 33, 34, 36-40, 42
    2    8 O      7
    3    7 N      14, 26, 32, 35, 41
    4    1 H      43-61

          program call               : xtb data2507/toluene/APPT-PXZ/APPT-PXZ_toluene_T1_crest.xyz --gfn 2 --uhf 2 --gbsa toluene --ohess vtight --parallel 40 --molden --ceasefiles --namespace data2507/toluene/APPT-PXZ/APPT-PXZ_toluene_T1_finalOpt
      * Solvation model:               GBSA
        Solvent                        toluene
        Solvent mass                       9.2140E+01 g/mol
          :  Hamiltonian                  GFN2-xTB          :
 * total energy  :  -105.5224365 Eh     change        0.2204999E-08 Eh
 * total energy  :  -105.5225257 Eh     change       -0.8923701E-04 Eh
 * total energy  :  -105.5225692 Eh     change       -0.4348648E-04 Eh
 * total energy  :  -105.5225751 Eh     change       -0.5911349E-05 Eh
 * total energy  :  -105.5225778 Eh     change       -0.2681996E-05 Eh
 * total energy  :  -105.5225788 Eh     change       -0.1019925E-05 Eh
 * total energy  :  -105.5225799 Eh     change       -0.1115154E-05 Eh
 * total energy  :  -105.5225806 Eh     change       -0.7300762E-06 Eh
 * total energy  :  -105.5225813 Eh     change       -0.6252941E-06 Eh
 * total energy  :  -105.5225817 Eh     change       -0.4792642E-06 Eh
 * total energy  :  -105.5225821 Eh     change       -0.3260475E-06 Eh
 * total energy  :  -105.5225823 Eh     change       -0.2563751E-06 Eh
 * total energy  :  -105.5225826 Eh     change       -0.2547579E-06 Eh
 * total energy  :  -105.5225828 Eh     change       -0.2635235E-06 Eh
 * total energy  :  -105.5225830 Eh     change       -0.1567306E-06 Eh
 * total energy  :  -105.5225830 Eh     change       -0.3218754E-07 Eh
   *** GEOMETRY OPTIMIZATION CONVERGED AFTER 16 ITERATIONS ***

 final structure:
================
61
 xtb: 6.7.1 (edcfbbe)
C           -6.38054473095006        2.55145220260741       -2.59659097210051
C           -4.99677213112403        2.64207812484215       -2.58957646789492
C           -4.24977671340918        1.90761591484858       -1.68794199944972
C           -4.87645344812600        1.06904749007037       -0.76668032350252
C           -6.28027041702488        0.96987689046118       -0.79472729790902
C           -7.02080713526251        1.71042995257452       -1.70224731861190
O           -6.96526890237603        0.14429362851168        0.05162568543314
C           -6.24544812173285       -0.58850803242326        0.95271176096981
C           -6.94975112537409       -1.42029008692383        1.80855130094487
C           -6.27407600462625       -2.17468584047683        2.75275120109383
C           -4.89334407894464       -2.08674851157644        2.84802074975167
C           -4.18235886836653       -1.25992597991469        1.99888515735639
C           -4.84247744126568       -0.50740567491565        1.02801190645110
N           -4.16179583183815        0.32417106104933        0.15558976774013
C           -2.74255372665214        0.39048091910719        0.19185228200841
C           -2.12471573024156        1.52630506592131        0.71258390102612
C           -0.74721833837030        1.67081810718232        0.78208969278910
C            0.04956413897421        0.62657101863037        0.30522908754454
C           -0.58600868788153       -0.52669599220439       -0.22200318098599
C            0.34354487647353       -1.49649730443002       -0.66671686412531
C           -0.13650656450838       -2.68405778386598       -1.21684439990084
C           -1.51392036475395       -2.85484446251567       -1.30529008429315
C           -2.42498676355854       -1.90337448372224       -0.87108559418651
C           -1.97367594875447       -0.69509741378863       -0.30390067408976
C            1.63580742993428       -0.95028343313903       -0.41575408233707
N            2.83733912550775       -1.39902072991817       -0.62181913115275
C            3.89558508430820       -0.66202250268767       -0.29073506825382
C            5.21684137732664       -1.15299265262570       -0.52426513700576
C            5.44091508854535       -2.41522691326371       -1.09844487930267
C            6.73269317816975       -2.84036576463616       -1.30324195606771
C            7.77721390556304       -1.99333907615978       -0.92779021147100
N            7.59097506688147       -0.80849733188085       -0.38939832494064
C            6.34905910747537       -0.37731625828412       -0.18372735395316
C            6.16593631099819        0.93634956658775        0.41079697895466
N            7.24991180840286        1.64650484465847        0.71584548430658
C            7.10468087213996        2.83712589938562        1.25474221061415
C            5.86329384315802        3.40984709607343        1.53295252733112
C            4.72971528539929        2.69265362718912        1.22432511448758
C            4.85977332207815        1.42105296821211        0.64598142626018
C            3.71211537562337        0.63653430077701        0.29980593801309
N            2.49105732199044        1.10620208990171        0.51741508247098
C            1.44549527703896        0.39405353189881        0.19719220044216
H           -6.96152210013327        3.12689909316396       -3.29941532185785
H           -4.49224237112710        3.28667601762737       -3.29223244663067
H           -3.17351365257171        1.97274729155429       -1.68987461742930
H           -8.09428473875498        1.60930430388174       -1.69121685772300
H           -8.02351463962409       -1.45859671140310        1.71774189590255
H           -6.82649487876328       -2.82232372884008        3.41465113377998
H           -4.36325611083566       -2.66378476055868        3.58944250292235
H           -3.10947494657919       -1.18935672047037        2.07871141237795
H           -2.75627139507256        2.32264181451075        1.08142395477194
H           -0.30728040522289        2.56426318962975        1.19561217808796
H            0.54034180520653       -3.44827405123027       -1.56627060364938
H           -1.89334332207837       -3.77223136191124       -1.73312614334724
H           -3.48324370684911       -2.09575541653533       -0.96915909962655
H            4.58758405341719       -3.02122367743517       -1.36552186742520
H            6.94070434798378       -3.80378175905893       -1.74206854490734
H            8.81028783152930       -2.28334057787821       -1.06783720827446
H            8.02504167864262        3.36125564838070        1.47721712871437
H            5.79973531403854        4.39056267397734        1.97794465003475
H            3.73827020574701        3.07742285825774        1.41274751142437

          :  Hamiltonian                  GFN2-xTB          :
         :: gradient norm              0.000042741943 Eh/a0 ::
         :: HOMO-LUMO gap              0.326269502302 eV    ::
         :: SCC energy              -107.355414981798 Eh    ::
         :: -> dispersion             -0.090301022614 Eh    ::
         :: -> Gsolv                  -0.047818111439 Eh    ::
         :: repulsion energy           1.832831945433 Eh    ::

    * Orbital Energies and Occupations

         #    Occupation            Energy/Eh            Energy/eV
      -------------------------------------------------------------
         1        2.0000           -0.7547753             -20.5385
       ...           ...                  ...                  ...
        86        2.0000           -0.4297202             -11.6933
        87        2.0000           -0.4284534             -11.6588
        88        2.0000           -0.4219828             -11.4827
        89        2.0000           -0.4106563             -11.1745
        90        2.0000           -0.4092284             -11.1357
        91        2.0000           -0.4085195             -11.1164
        92        2.0000           -0.3882793             -10.5656
        93        2.0000           -0.3869455             -10.5293
        94        2.0000           -0.3696706             -10.0592
        95        1.9999           -0.3689278             -10.0390
        96        1.5560           -0.3604586              -9.8086
        97        1.4442           -0.3600318              -9.7970
        98        0.9982           -0.3039115              -8.2699 (HOMO)
        99        0.0018           -0.2919212              -7.9436 (LUMO)
       100                         -0.2712528              -7.3812
       101                         -0.2701519              -7.3512
       102                         -0.2586821              -7.0391
       103                         -0.2464944              -6.7075
       104                         -0.2323569              -6.3228
       105                         -0.2313983              -6.2967
       106                         -0.2249349              -6.1208
       107                         -0.2147008              -5.8423
       108                         -0.2124406              -5.7808
       109                         -0.1996521              -5.4328
       ...                                ...                  ...
       187                          0.7327009              19.9378
      -------------------------------------------------------------
                  HL-Gap            0.0119903 Eh            0.3263 eV

     #   Z          covCN         q      C6AA      α(0)
     1   6 C        2.919    -0.030    28.739     8.791
     2   6 C        2.918    -0.030    28.738     8.791
     3   6 C        2.921    -0.050    29.235     8.867
     4   6 C        2.926     0.047    26.942     8.512
     5   6 C        2.885     0.130    25.151     8.222
     6   6 C        2.917    -0.052    29.283     8.874
     7   8 O        1.709    -0.229    17.800     5.696
     8   6 C        2.884     0.130    25.155     8.223
     9   6 C        2.916    -0.052    29.287     8.874
    10   6 C        2.919    -0.030    28.738     8.791
    11   6 C        2.918    -0.029    28.737     8.791
    12   6 C        2.921    -0.048    29.200     8.861
    13   6 C        2.926     0.048    26.923     8.509
    14   7 N        2.752    -0.022    21.676     6.915
    15   6 C        2.922     0.025    27.449     8.592
    16   6 C        2.918    -0.043    29.063     8.841
    17   6 C        2.909    -0.042    29.034     8.835
    18   6 C        3.026    -0.026    28.623     8.776
    19   6 C        3.156    -0.010    27.951     8.645
    20   6 C        3.026    -0.023    28.561     8.766
    21   6 C        2.909    -0.037    28.919     8.818
    22   6 C        2.917    -0.033    28.816     8.803
    23   6 C        2.917    -0.048    29.202     8.861
    24   6 C        2.973     0.004    27.937     8.670
    25   6 C        3.045     0.074    26.314     8.413
    26   7 N        1.840    -0.208    26.351     7.607
    27   6 C        2.959     0.061    26.620     8.463
    28   6 C        2.980    -0.014    28.367     8.736
    29   6 C        2.928    -0.019    28.488     8.753
    30   6 C        2.911    -0.041    29.007     8.831
    31   6 C        2.904     0.057    26.726     8.477
    32   7 N        1.841    -0.226    26.777     7.669
    33   6 C        2.969     0.082    26.172     8.391
    34   6 C        2.968     0.083    26.141     8.386
    35   7 N        1.841    -0.227    26.801     7.672
    36   6 C        2.904     0.058    26.698     8.472
    37   6 C        2.911    -0.041    29.012     8.832
    38   6 C        2.928    -0.019    28.474     8.751
    39   6 C        2.981    -0.014    28.359     8.735
    40   6 C        2.959     0.065    26.543     8.450
    41   7 N        1.840    -0.209    26.378     7.611
    42   6 C        3.045     0.067    26.451     8.435
    43   1 H        0.926     0.059     2.214     2.327
    44   1 H        0.926     0.056     2.248     2.345
    45   1 H        0.926     0.054     2.276     2.359
    46   1 H        0.926     0.064     2.147     2.291
    47   1 H        0.926     0.064     2.147     2.291
    48   1 H        0.926     0.059     2.215     2.327
    49   1 H        0.926     0.055     2.254     2.348
    50   1 H        0.926     0.052     2.294     2.369
    51   1 H        0.925     0.039     2.467     2.456
    52   1 H        0.926     0.036     2.503     2.474
    53   1 H        0.926     0.030     2.580     2.512
    54   1 H        0.926     0.033     2.551     2.498
    55   1 H        0.926     0.023     2.687     2.563
    56   1 H        0.926     0.052     2.298     2.371
    57   1 H        0.926     0.050     2.324     2.384
    58   1 H        0.925     0.045     2.388     2.416
    59   1 H        0.925     0.045     2.378     2.412
    60   1 H        0.926     0.050     2.314     2.379
    61   1 H        0.926     0.053     2.283     2.363

molecular dipole:
                 x           y           z       tot (Debye)
 q only:       -4.157       0.259       0.117
   full:       -4.644       0.171       0.083      11.814

 projected vibrational frequencies (cm⁻¹)
eigval :       -0.00    -0.00     0.00     0.00     0.00     0.00
eigval :       15.35    16.77    29.21    32.32    48.28    53.80
eigval :       80.91    83.76    96.32   111.51   116.06   126.66
eigval :      145.85   162.47   167.29   193.59   196.79   216.44
eigval :      231.34   243.54   257.77   263.53   268.43   313.80
eigval :      317.49   347.47   355.75   387.62   393.89   397.11
eigval :      401.06   410.23   411.92   428.10   431.40   438.37
eigval :      447.21   461.51   465.42   490.99   498.02   511.32
eigval :      516.70   523.78   526.33   530.89   545.77   562.92
eigval :      566.62   578.61   581.23   589.65   616.45   618.04
eigval :      630.60   645.68   659.75   664.69   668.02   672.16
eigval :      689.96   694.63   699.09   706.93   713.48   751.44
eigval :      763.77   775.53   777.87   778.67   786.86   792.10
eigval :      799.14   801.30   807.47   841.44   849.35   855.27
eigval :      867.33   868.55   889.27   898.57   902.35   903.19
eigval :      904.88   909.95   912.94   913.91   914.56   916.41
eigval :      918.25   918.42   945.17  1013.87  1031.68  1047.14
eigval :     1066.23  1081.16  1082.98  1086.77  1091.89  1103.09
eigval :     1111.53  1112.74  1128.09  1129.60  1132.70  1154.02
eigval :     1168.38  1169.86  1181.14  1184.72  1191.98  1200.88
eigval :     1205.87  1216.58  1221.40  1235.40  1249.18  1255.59
eigval :     1270.34  1273.40  1288.88  1292.56  1295.44  1306.03
eigval :     1308.64  1316.67  1319.68  1335.07  1346.59  1351.77
eigval :     1360.08  1377.85  1380.48  1384.10  1413.36  1415.55
eigval :     1417.53  1432.31  1435.42  1438.89  1440.15  1469.33
eigval :     1477.00  1490.75  1505.78  1516.14  1527.41  1530.09
eigval :     1538.46  1552.81  1561.36  1562.40  1562.85  1568.73
eigval :     1579.37  1584.72  3054.29  3054.71  3067.85  3073.15
eigval :     3079.95  3081.22  3081.42  3093.37  3093.71  3094.57
eigval :     3095.35  3096.67  3100.40  3103.74  3104.20  3111.95
eigval :     3112.80  3115.34  3116.00

   temp. (K)  partition function   enthalpy   heat capacity  entropy
                                   cal/mol     cal/K/mol   cal/K/mol   J/K/mol
 298.15  VIB  0.113E+13            17238.964    115.188    103.662
         ROT  0.546E+08              888.752      2.981     38.384
         INT  0.615E+20            18127.716    118.169    142.046
         TR   0.121E+29             1481.254      4.968     44.711
         TOT                       19608.9703   123.1367   186.7574   781.3928

       T/K    H(0)-H(T)+PV         H(T)/Eh          T*S/Eh         G(T)/Eh
   ------------------------------------------------------------------------
    298.15    0.312489E-01    0.471039E+00    0.887344E-01    0.382305E+00
   ------------------------------------------------------------------------

         :::::::::::::::::::::::::::::::::::::::::::::::::::::
         ::                  THERMODYNAMIC                  ::
         :::::::::::::::::::::::::::::::::::::::::::::::::::::
         :: total free energy        -105.140278067298 Eh   ::
         ::.................................................::
         :: total energy             -105.522583033200 Eh   ::
         :: zero point energy           0.439790532389 Eh   ::
         :: G(RRHO) w/o ZPVE           -0.057485566488 Eh   ::
         :: G(RRHO) contrib.            0.382304965902 Eh   ::
         :::::::::::::::::::::::::::::::::::::::::::::::::::::

           -------------------------------------------------
          | TOTAL ENERGY             -105.522583033200 Eh   |
          | TOTAL ENTHALPY           -105.051543617632 Eh   |
          | TOTAL FREE ENERGY        -105.140278067298 Eh   |
          | GRADIENT NORM               0.000036209298 Eh/α |
          | HOMO-LUMO GAP               0.326273889593 eV   |
           -------------------------------------------------

 * finished run on 2025/07/20 at 20:25:57.844
