   * xtb version 6.7.1 (edcfbbe) compiled by 'albert@albert-system' on 2024-07-22

   ID    Z sym.   atoms
    1    7 N      1, 9, 24, 26, 32
    2    6 C      2-8, 10-23, 25, 27-31, 33-46
    3    1 H      47-75

          program call               : xtb data2507/toluene/TPAPm/TPAPm_toluene_S0_crest.xyz --gfn 2 --gbsa toluene --ohess vtight --parallel 40 --molden --ceasefiles --namespace data2507/toluene/TPAPm/TPAPm_toluene_S0_finalOpt
      * Solvation model:               GBSA
        Solvent                        toluene
        Solvent mass                       9.2140E+01 g/mol
          :  Hamiltonian                  GFN2-xTB          :
 * total energy  :  -117.2209484 Eh     change       -0.6144063E-09 Eh
 * total energy  :  -117.2210242 Eh     change       -0.7579495E-04 Eh
 * total energy  :  -117.2210601 Eh     change       -0.3590879E-04 Eh
 * total energy  :  -117.2210722 Eh     change       -0.1205939E-04 Eh
 * total energy  :  -117.2210836 Eh     change       -0.1138192E-04 Eh
 * total energy  :  -117.2210937 Eh     change       -0.1010932E-04 Eh
 * total energy  :  -117.2211029 Eh     change       -0.9200348E-05 Eh
 * total energy  :  -117.2211105 Eh     change       -0.7644164E-05 Eh
 * total energy  :  -117.2211155 Eh     change       -0.4969037E-05 Eh
 * total energy  :  -117.2211187 Eh     change       -0.3208240E-05 Eh
 * total energy  :  -117.2211253 Eh     change       -0.7874000E-06 Eh
 * total energy  :  -117.2211258 Eh     change       -0.4818459E-06 Eh
 * total energy  :  -117.2211261 Eh     change       -0.3188731E-06 Eh
 * total energy  :  -117.2211265 Eh     change       -0.3483891E-06 Eh
 * total energy  :  -117.2211268 Eh     change       -0.3688157E-06 Eh
 * total energy  :  -117.2211272 Eh     change       -0.3622684E-06 Eh
 * total energy  :  -117.2211274 Eh     change       -0.2468327E-06 Eh
 * total energy  :  -117.2211274 Eh     change        0.2747313E-08 Eh
 * total energy  :  -117.2211275 Eh     change       -0.8299530E-07 Eh
   *** GEOMETRY OPTIMIZATION CONVERGED AFTER 23 ITERATIONS ***

 final structure:
================
75
 xtb: 6.7.1 (edcfbbe)
N            0.00483561049593        1.22367808759181       -0.89726316895592
C            0.00187933941080        0.12578693125696       -0.55097590038670
C           -0.00049054637751       -1.24452737995037       -0.24860581636947
C            1.20581576680629       -1.97963938242712       -0.17211602845718
C            2.51617296537809       -1.35579786532151       -0.09701325096496
C            2.71862700144532       -0.11434633084500        0.51257289174170
C            3.97385993665574        0.44310591868866        0.57518088417404
C            5.08090834069638       -0.21492921367963        0.02283404729351
N            6.33829931364891        0.35643950867603        0.07098238645832
C            7.49418795001931       -0.44480311672128        0.11245287336115
C            7.53849283948667       -1.58355742652619        0.91477622693853
C            8.68276896765236       -2.35779570125685        0.95716519864278
C            9.79649201887993       -2.00402055835202        0.21250963641116
C            9.75820632300106       -0.86861678373068       -0.58071984463283
C            8.61581459121762       -0.09238053383724       -0.63556363031291
C            6.49369859128194        1.75480563202148        0.07572850393699
C            5.70834533399174        2.55858504646760       -0.74878299825053
C            5.87773250291197        3.93037503148466       -0.74440049068491
C            6.83318742755551        4.51634373858661        0.07039497191849
C            7.62053061549630        3.71956107075225        0.88585928247371
C            7.45313521760745        2.34753450950933        0.89430847055716
C            4.88104613631363       -1.47001722473555       -0.56912331146681
C            3.62765210950426       -2.02977009286382       -0.61586594702099
N            1.17540785360431       -3.31562522631834       -0.18011428508607
C           -0.00229687659076       -3.90041073593195       -0.22650665441254
N           -1.17898533025289       -3.31385503176962       -0.17895063718308
C           -1.20789638169466       -1.97770463826919       -0.17177541191992
C           -2.51784501657641       -1.35292651871628       -0.09745490078419
C           -2.71900470612974       -0.10691863779890        0.50328094166685
C           -3.97403271782737        0.45126460406215        0.56383473641051
C           -5.08232604016913       -0.21132471373151        0.01964849991404
N           -6.33972012056329        0.36075246880968        0.06624257293939
C           -6.49399514258914        1.75903985497782        0.05004546819191
C           -7.45049821372947        2.36569956062713        0.86184690820110
C           -7.61608425655841        3.73767149778772        0.83252109709169
C           -6.82972491124776        4.52072254685027        0.00290147418431
C           -5.87710831117693        3.92091722267440       -0.80511717182671
C           -5.70955021074485        2.54902673016415       -0.78860818077434
C           -7.49466125084017       -0.44044729549325        0.12500305052612
C           -8.62218096764507       -0.09786847041632       -0.61874802661119
C           -9.76325259993645       -0.87463768325061       -0.54659949078381
C           -9.79443155394965       -2.00107166581020        0.25963004948874
C           -8.67483090724842       -2.34516850453516        0.99999083789909
C           -7.53186123952116       -1.57017943146546        0.94043901348326
C           -4.88404622672425       -1.47113787814471       -0.56257585163267
C           -3.63060337680687       -2.03080182588740       -0.60867466933025
H            1.89171709059746        0.40155765360072        0.97785913141573
H            4.11229580147300        1.39319866835460        1.06871483991825
H            6.67459177438615       -1.85294477374369        1.50480156693973
H            8.70659730076952       -3.23780505696562        1.58301461846625
H           10.68957681661829       -2.60931977960455        0.25108184233235
H           10.62118577324871       -0.58783339021349       -1.16637860519465
H            8.58392879506081        0.79003086953710       -1.25768286695510
H            4.96966317981301        2.10242444772100       -1.39187227586090
H            5.26375762631154        4.54327336997592       -1.38782335071234
H            6.96431382564627        5.58789639041375        0.06821580192297
H            8.36559547078201        4.16897588636793        1.52574100949513
H            8.06265519517703        1.72660666752863        1.53436497295038
H            5.71995657763962       -1.99293567592802       -1.00279388242419
H            3.47543214482910       -2.99221048772469       -1.07943810335911
H           -0.00315388265041       -4.98267146694638       -0.28084708456987
H           -1.89126026384400        0.41254084435767        0.96298817613775
H           -4.11147080749509        1.40551897306485        1.04958559146299
H           -8.05920555003968        1.75565143614803        1.51304704416952
H           -8.35892938519596        4.19794807324067        1.46726431864147
H           -6.95940917893655        5.59229905971217       -0.01562183354911
H           -5.26391244441588        4.52290899339019       -1.45949400262474
H           -4.97310227871621        2.08196748671135       -1.42642564774587
H           -8.59595255630671        0.77727065437977       -1.25129494631402
H          -10.63080939642061       -0.60141842149189       -1.12905666559483
H          -10.68649316048074       -2.60687281431525        0.31160376217782
H           -8.69296658295978       -3.21810316568336        1.63586538529932
H           -6.66340309910936       -1.83187028045098        1.52723568296104
H           -5.72419539226086       -1.99756338057552       -0.98956946667115
H           -3.47925403247944       -2.99656856906200       -1.06552426117283

          :  Hamiltonian                  GFN2-xTB          :
         :: gradient norm              0.000043675680 Eh/a0 ::
         :: HOMO-LUMO gap              1.745248364129 eV    ::
         :: SCC energy              -119.412032241217 Eh    ::
         :: -> dispersion             -0.102028735050 Eh    ::
         :: -> Gsolv                  -0.054275025135 Eh    ::
         :: repulsion energy           2.190904719390 Eh    ::

    * Orbital Energies and Occupations

         #    Occupation            Energy/Eh            Energy/eV
      -------------------------------------------------------------
         1        2.0000           -0.6919268             -18.8283
       ...           ...                  ...                  ...
        97        2.0000           -0.4183609             -11.3842
        98        2.0000           -0.4137822             -11.2596
        99        2.0000           -0.4134860             -11.2515
       100        2.0000           -0.4129932             -11.2381
       101        2.0000           -0.4129420             -11.2367
       102        2.0000           -0.4102592             -11.1637
       103        2.0000           -0.4102333             -11.1630
       104        2.0000           -0.4090717             -11.1314
       105        2.0000           -0.4087645             -11.1230
       106        2.0000           -0.4067682             -11.0687
       107        2.0000           -0.3794614             -10.3257
       108        2.0000           -0.3599658              -9.7952
       109        2.0000           -0.3587152              -9.7611 (HOMO)
       110                         -0.2945786              -8.0159 (LUMO)
       111                         -0.2899218              -7.8892
       112                         -0.2379877              -6.4760
       113                         -0.2363406              -6.4312
       114                         -0.2358267              -6.4172
       115                         -0.2349519              -6.3934
       116                         -0.2345679              -6.3829
       117                         -0.2291698              -6.2360
       118                         -0.2288885              -6.2284
       119                         -0.2265775              -6.1655
       120                         -0.2264094              -6.1609
       ...                                ...                  ...
       213                          1.1468730              31.2080
      -------------------------------------------------------------
                  HL-Gap            0.0641366 Eh            1.7452 eV

     #   Z          covCN         q      C6AA      α(0)
     1   7 N        0.911    -0.290    27.463     7.579
     2   6 C        1.906     0.116    28.257     8.585
     3   6 C        2.962    -0.027    28.670     8.783
     4   6 C        2.977     0.119    25.383     8.264
     5   6 C        2.979    -0.015    28.372     8.737
     6   6 C        2.920    -0.028    28.696     8.784
     7   6 C        2.920    -0.048    29.199     8.861
     8   6 C        2.921     0.074    26.356     8.419
     9   7 N        2.752    -0.063    22.458     7.038
    10   6 C        2.925     0.063    26.593     8.457
    11   6 C        2.922    -0.045    29.115     8.849
    12   6 C        2.919    -0.028    28.707     8.786
    13   6 C        2.919    -0.035    28.874     8.812
    14   6 C        2.919    -0.028    28.703     8.786
    15   6 C        2.922    -0.044    29.097     8.846
    16   6 C        2.926     0.063    26.596     8.457
    17   6 C        2.921    -0.045    29.106     8.847
    18   6 C        2.919    -0.028    28.703     8.786
    19   6 C        2.919    -0.035    28.874     8.812
    20   6 C        2.919    -0.028    28.708     8.786
    21   6 C        2.922    -0.045    29.106     8.847
    22   6 C        2.920    -0.049    29.211     8.863
    23   6 C        2.924    -0.024    28.602     8.770
    24   7 N        1.842    -0.279    28.079     7.853
    25   6 C        2.895     0.161    24.516     8.118
    26   7 N        1.842    -0.279    28.078     7.853
    27   6 C        2.976     0.119    25.385     8.264
    28   6 C        2.979    -0.015    28.370     8.737
    29   6 C        2.920    -0.028    28.697     8.785
    30   6 C        2.920    -0.048    29.195     8.861
    31   6 C        2.922     0.074    26.356     8.419
    32   7 N        2.752    -0.063    22.458     7.038
    33   6 C        2.926     0.063    26.596     8.457
    34   6 C        2.922    -0.045    29.107     8.847
    35   6 C        2.919    -0.028    28.708     8.786
    36   6 C        2.919    -0.035    28.874     8.812
    37   6 C        2.919    -0.028    28.703     8.786
    38   6 C        2.921    -0.045    29.107     8.847
    39   6 C        2.925     0.063    26.593     8.457
    40   6 C        2.922    -0.044    29.099     8.846
    41   6 C        2.919    -0.028    28.704     8.786
    42   6 C        2.919    -0.035    28.875     8.812
    43   6 C        2.919    -0.028    28.707     8.786
    44   6 C        2.922    -0.045    29.117     8.849
    45   6 C        2.919    -0.049    29.208     8.863
    46   6 C        2.924    -0.024    28.602     8.770
    47   1 H        0.926     0.031     2.573     2.508
    48   1 H        0.926     0.044     2.400     2.423
    49   1 H        0.926     0.036     2.505     2.475
    50   1 H        0.926     0.039     2.466     2.456
    51   1 H        0.926     0.038     2.478     2.462
    52   1 H        0.926     0.039     2.460     2.453
    53   1 H        0.926     0.037     2.494     2.469
    54   1 H        0.926     0.034     2.528     2.486
    55   1 H        0.926     0.038     2.472     2.459
    56   1 H        0.926     0.038     2.477     2.461
    57   1 H        0.926     0.039     2.457     2.451
    58   1 H        0.926     0.037     2.487     2.466
    59   1 H        0.926     0.047     2.362     2.403
    60   1 H        0.926     0.053     2.288     2.365
    61   1 H        0.925     0.039     2.466     2.456
    62   1 H        0.926     0.031     2.570     2.507
    63   1 H        0.926     0.044     2.400     2.422
    64   1 H        0.926     0.037     2.487     2.466
    65   1 H        0.926     0.039     2.457     2.451
    66   1 H        0.926     0.038     2.478     2.462
    67   1 H        0.926     0.038     2.472     2.459
    68   1 H        0.926     0.034     2.530     2.487
    69   1 H        0.926     0.037     2.494     2.470
    70   1 H        0.926     0.039     2.461     2.453
    71   1 H        0.926     0.038     2.479     2.462
    72   1 H        0.926     0.039     2.467     2.456
    73   1 H        0.926     0.036     2.507     2.476
    74   1 H        0.926     0.047     2.361     2.403
    75   1 H        0.926     0.053     2.284     2.364

molecular dipole:
                 x           y           z       tot (Debye)
 q only:        0.004       0.595       0.374
   full:        0.004       0.446       0.468       1.642

 projected vibrational frequencies (cm⁻¹)
eigval :       -0.00    -0.00    -0.00     0.00     0.00     0.00
eigval :        9.35    11.51    11.78    25.08    31.09    31.56
eigval :       39.09    45.64    47.64    59.73    60.85    70.31
eigval :       71.03    74.68    85.49    93.69   108.90   122.92
eigval :      126.67   146.21   162.40   179.98   186.34   211.24
eigval :      214.61   218.23   234.93   238.74   280.73   284.65
eigval :      305.29   307.66   308.99   329.51   367.81   373.94
eigval :      376.36   377.60   378.79   379.65   387.97   389.53
eigval :      394.81   399.26   402.31   425.08   431.63   476.54
eigval :      479.66   490.69   491.45   504.29   508.28   546.87
eigval :      560.47   573.38   582.72   583.97   584.16   586.18
eigval :      593.30   593.31   598.95   609.18   610.26   631.17
eigval :      636.19   660.28   661.02   665.20   668.07   680.37
eigval :      693.18   699.34   725.10   745.50   758.68   758.87
eigval :      760.87   762.35   816.75   818.55   827.12   836.32
eigval :      862.00   863.19   874.59   875.18   875.75   876.15
eigval :      895.73   896.17   896.42   897.15   897.25   908.99
eigval :      909.05   915.04   917.30   919.17   924.38   925.71
eigval :      926.30   927.66   928.01   928.53   929.06   931.14
eigval :      932.01   932.09   932.50   979.97   984.70  1004.15
eigval :     1004.23  1005.85  1016.35  1068.31  1080.34  1080.52
eigval :     1081.53  1081.68  1118.44  1118.87  1120.40  1120.64
eigval :     1142.52  1143.86  1159.75  1176.69  1177.45  1177.90
eigval :     1178.85  1182.17  1182.73  1189.51  1191.02  1191.42
eigval :     1192.91  1197.37  1211.22  1213.26  1223.59  1266.64
eigval :     1267.32  1274.51  1274.78  1276.69  1278.78  1281.16
eigval :     1296.61  1299.45  1306.69  1314.42  1315.17  1322.07
eigval :     1322.30  1329.41  1330.15  1333.21  1344.11  1377.82
eigval :     1379.06  1419.73  1420.69  1433.82  1434.17  1438.42
eigval :     1438.64  1465.34  1465.73  1469.14  1469.41  1473.85
eigval :     1490.18  1492.30  1505.63  1542.48  1543.11  1577.36
eigval :     1577.37  1580.73  1580.76  1586.32  1586.50  1589.76
eigval :     1589.84  1596.95  1597.09  2324.54  3041.80  3074.84
eigval :     3075.18  3075.42  3075.71  3075.80  3075.86  3076.20
eigval :     3076.66  3081.47  3081.87  3084.16  3084.25  3084.54
eigval :     3084.62  3087.08  3087.12  3088.22  3088.25  3090.56
eigval :     3090.61  3096.13  3096.33  3096.58  3096.60  3097.13
eigval :     3097.31  3102.99  3103.23

   temp. (K)  partition function   enthalpy   heat capacity  entropy
                                   cal/mol     cal/K/mol   cal/K/mol   J/K/mol
 298.15  VIB  0.125E+19            22071.302    136.186    139.610
         ROT  0.102E+09              888.752      2.981     39.634
         INT  0.128E+27            22960.054    139.167    179.244
         TR   0.139E+29             1481.254      4.968     44.997
         TOT                       24441.3079   144.1355   224.2411   938.2250

       T/K    H(0)-H(T)+PV         H(T)/Eh          T*S/Eh         G(T)/Eh
   ------------------------------------------------------------------------
    298.15    0.389497E-01    0.611775E+00    0.106544E+00    0.505231E+00
   ------------------------------------------------------------------------

         :::::::::::::::::::::::::::::::::::::::::::::::::::::
         ::                  THERMODYNAMIC                  ::
         :::::::::::::::::::::::::::::::::::::::::::::::::::::
         :: total free energy        -116.715896460980 Eh   ::
         ::.................................................::
         :: total energy             -117.221127521952 Eh   ::
         :: zero point energy           0.572825563600 Eh   ::
         :: G(RRHO) w/o ZPVE           -0.067594502627 Eh   ::
         :: G(RRHO) contrib.            0.505231060973 Eh   ::
         :::::::::::::::::::::::::::::::::::::::::::::::::::::

           -------------------------------------------------
          | TOTAL ENERGY             -117.221127521952 Eh   |
          | TOTAL ENTHALPY           -116.609352254917 Eh   |
          | TOTAL FREE ENERGY        -116.715896460980 Eh   |
          | GRADIENT NORM               0.000043547156 Eh/α |
          | HOMO-LUMO GAP               1.745246202980 eV   |
           -------------------------------------------------

 * finished run on 2025/09/14 at 11:36:07.993
