   * xtb version 6.7.1 (edcfbbe) compiled by 'albert@albert-system' on 2024-07-22

   ID    Z sym.   atoms
    1    7 N      1, 9, 24, 26, 32
    2    6 C      2-8, 10-23, 25, 27-31, 33-46
    3    1 H      47-75

          program call               : xtb data2507/toluene/TPAPm/TPAPm_toluene_T1_crest.xyz --gfn 2 --uhf 2 --gbsa toluene --ohess vtight --parallel 40 --molden --ceasefiles --namespace data2507/toluene/TPAPm/TPAPm_toluene_T1_finalOpt
      * Solvation model:               GBSA
        Solvent                        toluene
        Solvent mass                       9.2140E+01 g/mol
          :  Hamiltonian                  GFN2-xTB          :
 * total energy  :  -117.1464646 Eh     change       -0.1251365E-08 Eh
 * total energy  :  -117.1466147 Eh     change       -0.1501052E-03 Eh
 * total energy  :  -117.1466775 Eh     change       -0.6286962E-04 Eh
 * total energy  :  -117.1466949 Eh     change       -0.1736805E-04 Eh
 * total energy  :  -117.1467062 Eh     change       -0.1131913E-04 Eh
 * total energy  :  -117.1467145 Eh     change       -0.8323007E-05 Eh
 * total energy  :  -117.1467187 Eh     change       -0.4112272E-05 Eh
 * total energy  :  -117.1467217 Eh     change       -0.3085135E-05 Eh
 * total energy  :  -117.1467238 Eh     change       -0.2031840E-05 Eh
 * total energy  :  -117.1467252 Eh     change       -0.1414793E-05 Eh
 * total energy  :  -117.1467370 Eh     change       -0.7964740E-06 Eh
 * total energy  :  -117.1467380 Eh     change       -0.1001127E-05 Eh
 * total energy  :  -117.1467392 Eh     change       -0.1205254E-05 Eh
 * total energy  :  -117.1467406 Eh     change       -0.1355524E-05 Eh
 * total energy  :  -117.1467420 Eh     change       -0.1356512E-05 Eh
 * total energy  :  -117.1467431 Eh     change       -0.1158950E-05 Eh
 * total energy  :  -117.1467443 Eh     change       -0.1155119E-05 Eh
 * total energy  :  -117.1467455 Eh     change       -0.1232830E-05 Eh
 * total energy  :  -117.1467456 Eh     change       -0.5405916E-07 Eh
   *** GEOMETRY OPTIMIZATION CONVERGED AFTER 44 ITERATIONS ***

 final structure:
================
75
 xtb: 6.7.1 (edcfbbe)
N           -0.31498587132155        0.95798192962978        1.24731838716142
C           -0.16623987470489       -0.00296776198055        0.61510889039292
C           -0.04925939327907       -1.19634505087835       -0.08103878665963
C            1.22117721105016       -1.86376292835466       -0.35644731014281
C            2.50351384131609       -1.26729112937619       -0.27432785853748
C            2.72331955635266        0.12361861840591       -0.10734942336005
C            3.98838885614889        0.64166125460225       -0.04052440631692
C            5.11667273593453       -0.19115144491547       -0.12742970457314
N            6.40515500485312        0.33821149045900       -0.04109679981834
C            7.38897143585526       -0.35766372552307        0.65817766397753
C            7.05438791619639       -1.09523019312213        1.79884134401130
C            8.02893146195499       -1.79139750193223        2.48470898452252
C            9.34644352275595       -1.76847626318117        2.05051270121459
C            9.68360445641351       -1.04239650734053        0.91721219577277
C            8.71843174372925       -0.34232743291753        0.22226042147870
C            6.69464658914762        1.55834399967290       -0.64874720183688
C            6.08461348720436        1.90547916868772       -1.85856108009943
C            6.36467745978927        3.11916549997519       -2.45298529727994
C            7.25108916672145        4.00544652738805       -1.85826275382728
C            7.85739138099819        3.66767602081578       -0.65696413860218
C            7.58469988692536        2.45759280952022       -0.05186753141360
C            4.91836608330703       -1.57375128423329       -0.30998947495078
C            3.65834120489191       -2.09092340821224       -0.38584890000866
N            1.16348371892067       -3.17082471820852       -0.70889791998836
C            0.02716830682526       -3.76346498512462       -0.88003135989867
N           -1.18170863505197       -3.17771106978191       -0.81230717066794
C           -1.21283804618560       -1.91095522590609       -0.41309342547639
C           -2.54120637032670       -1.29818049254633       -0.30684798995762
C           -2.77292663811454        0.02629865902761       -0.67784951850500
C           -4.02790386963453        0.58031421080335       -0.55699270909538
C           -5.09386229308761       -0.17477213246868       -0.05700558637266
N           -6.35464251244795        0.39405608665862        0.09184986353365
C           -6.48191372687088        1.73995623372248        0.45851781366109
C           -5.59540014056650        2.31138933082612        1.37316589796468
C           -5.72933957268951        3.63906468225620        1.73064993335884
C           -6.74582733778417        4.41239098786683        1.19137433935712
C           -7.63071792760435        3.84784591169889        0.28575922870236
C           -7.50299575810080        2.52269299762310       -0.08302346747457
C           -7.50567923854763       -0.37874346702149       -0.11337210228823
C           -7.55205529388071       -1.31266608499882       -1.14957889982638
C           -8.69109204301200       -2.06797924577150       -1.35111803081278
C           -9.79643356272640       -1.90305782171841       -0.53075784723065
C           -9.75500048194627       -0.97541982124816        0.49861595649378
C           -8.62008156634457       -0.21678316757993        0.71094360511605
C           -4.86912513961886       -1.51265629347793        0.28560468677677
C           -3.61473381469309       -2.06304947173694        0.15269407925033
H            1.88004572795215        0.79074961575231       -0.03185687890187
H            4.12656046680629        1.70342765538934        0.10553411313341
H            6.03139919692629       -1.09809517204173        2.14482698269352
H            7.76012956203957       -2.34950029444477        3.36917891805459
H           10.10476061372807       -2.31422716740975        2.59071102915390
H           10.70522656507491       -1.02951039456416        0.56788501226289
H            8.97782879413062        0.20518113365580       -0.67156686758473
H            5.40730604624201        1.20772719174398       -2.32816089635536
H            5.89352645558906        3.37267840472864       -3.39096795886352
H            7.46635491287615        4.95336070200735       -2.32713278100330
H            8.54032793311634        4.35703172813884       -0.18340825167043
H            8.03962719839211        2.20516601085030        0.89434334154756
H            5.77913281657927       -2.21860605871429       -0.41457194255097
H            3.50286483113141       -3.14706016486794       -0.54313535348507
H            0.03718943534168       -4.81507293764598       -1.13505794331327
H           -1.96884869102329        0.62024057673575       -1.08666492837373
H           -4.19492104554789        1.60280764481826       -0.86073563383483
H           -4.80958560498734        1.70782881458361        1.80351535626365
H           -5.03851610692643        4.06902265092483        2.44057690100315
H           -6.84713347716748        5.44867717310112        1.47569709573021
H           -8.42100898476722        4.44574486327831       -0.14326171694230
H           -8.18398882769497        2.08673308227718       -0.79882348920125
H           -6.69526053915765       -1.43161729223489       -1.79628901790380
H           -8.71806270523276       -2.78369869949034       -2.15926219025374
H          -10.68469888248002       -2.49439823985528       -0.69291223075783
H          -10.60977996616640       -0.84663128125214        1.14573370051466
H           -8.58301985020583        0.49740589875665        1.52012145136985
H           -5.68183570497084       -2.10826206309869        0.67346328133886
H           -3.43748809384124       -3.09229945089525        0.42514686900321

          :  Hamiltonian                  GFN2-xTB          :
         :: gradient norm              0.000198943579 Eh/a0 ::
         :: HOMO-LUMO gap              0.240345793144 eV    ::
         :: SCC energy              -119.323029834438 Eh    ::
         :: -> dispersion             -0.101911449040 Eh    ::
         :: -> Gsolv                  -0.061928343556 Eh    ::
         :: repulsion energy           2.176284269645 Eh    ::

    * Orbital Energies and Occupations

         #    Occupation            Energy/Eh            Energy/eV
      -------------------------------------------------------------
         1        2.0000           -0.6811729             -18.5357
       ...           ...                  ...                  ...
        98        2.0000           -0.4179180             -11.3721
        99        2.0000           -0.4171742             -11.3519
       100        2.0000           -0.4158063             -11.3147
       101        2.0000           -0.4144778             -11.2785
       102        2.0000           -0.4139052             -11.2629
       103        2.0000           -0.4109680             -11.1830
       104        2.0000           -0.4079488             -11.1009
       105        2.0000           -0.3948019             -10.7431
       106        2.0000           -0.3916889             -10.6584
       107        1.9483           -0.3640835              -9.9072
       108        1.7666           -0.3624499              -9.8628
       109        1.2852           -0.3604473              -9.8083
       110        0.9905           -0.2817570              -7.6670 (HOMO)
       111        0.0095           -0.2729249              -7.4267 (LUMO)
       112                         -0.2434019              -6.6233
       113                         -0.2405378              -6.5454
       114                         -0.2376154              -6.4658
       115                         -0.2366064              -6.4384
       116                         -0.2348759              -6.3913
       117                         -0.2325081              -6.3269
       118                         -0.2321452              -6.3170
       119                         -0.2302679              -6.2659
       120                         -0.2227061              -6.0601
       121                         -0.2199876              -5.9862
       ...                                ...                  ...
       213                          1.1547037              31.4211
      -------------------------------------------------------------
                  HL-Gap            0.0088321 Eh            0.2403 eV

     #   Z          covCN         q      C6AA      α(0)
     1   7 N        0.911    -0.354    29.110     7.803
     2   6 C        1.909     0.103    28.559     8.631
     3   6 C        2.957    -0.041    29.005     8.834
     4   6 C        2.947     0.067    26.504     8.444
     5   6 C        2.972    -0.008    28.213     8.713
     6   6 C        2.916    -0.048    29.194     8.860
     7   6 C        2.914    -0.041    29.008     8.832
     8   6 C        2.926     0.041    27.072     8.533
     9   7 N        2.752    -0.023    21.683     6.916
    10   6 C        2.926     0.064    26.566     8.453
    11   6 C        2.921    -0.039    28.971     8.827
    12   6 C        2.918    -0.025    28.630     8.774
    13   6 C        2.919    -0.029    28.736     8.791
    14   6 C        2.918    -0.026    28.640     8.776
    15   6 C        2.920    -0.041    29.020     8.834
    16   6 C        2.926     0.064    26.570     8.453
    17   6 C        2.921    -0.039    28.978     8.828
    18   6 C        2.918    -0.025    28.637     8.775
    19   6 C        2.919    -0.030    28.740     8.791
    20   6 C        2.918    -0.026    28.641     8.776
    21   6 C        2.921    -0.041    29.021     8.834
    22   6 C        2.913    -0.042    29.042     8.837
    23   6 C        2.922    -0.040    29.003     8.832
    24   7 N        1.842    -0.264    27.700     7.800
    25   6 C        2.867     0.145    24.837     8.169
    26   7 N        1.841    -0.309    28.866     7.962
    27   6 C        2.973     0.118    25.404     8.267
    28   6 C        2.981    -0.003    28.098     8.695
    29   6 C        2.921    -0.026    28.656     8.778
    30   6 C        2.920    -0.043    29.065     8.841
    31   6 C        2.924     0.068    26.473     8.438
    32   7 N        2.752    -0.044    22.095     6.981
    33   6 C        2.925     0.064    26.576     8.454
    34   6 C        2.921    -0.041    29.031     8.836
    35   6 C        2.919    -0.026    28.644     8.777
    36   6 C        2.919    -0.031    28.780     8.797
    37   6 C        2.919    -0.026    28.663     8.779
    38   6 C        2.921    -0.043    29.056     8.840
    39   6 C        2.925     0.063    26.578     8.455
    40   6 C        2.921    -0.042    29.045     8.838
    41   6 C        2.919    -0.026    28.653     8.778
    42   6 C        2.919    -0.031    28.780     8.797
    43   6 C        2.919    -0.026    28.656     8.778
    44   6 C        2.921    -0.042    29.039     8.837
    45   6 C        2.920    -0.044    29.098     8.846
    46   6 C        2.924    -0.024    28.615     8.772
    47   1 H        0.926     0.026     2.646     2.544
    48   1 H        0.926     0.034     2.530     2.488
    49   1 H        0.926     0.042     2.426     2.436
    50   1 H        0.926     0.044     2.392     2.419
    51   1 H        0.926     0.045     2.383     2.414
    52   1 H        0.926     0.047     2.359     2.402
    53   1 H        0.926     0.046     2.375     2.410
    54   1 H        0.926     0.042     2.426     2.436
    55   1 H        0.926     0.044     2.395     2.420
    56   1 H        0.926     0.045     2.385     2.415
    57   1 H        0.926     0.047     2.360     2.403
    58   1 H        0.926     0.045     2.379     2.412
    59   1 H        0.926     0.038     2.473     2.459
    60   1 H        0.926     0.045     2.380     2.413
    61   1 H        0.925     0.021     2.715     2.577
    62   1 H        0.926     0.032     2.553     2.498
    63   1 H        0.926     0.047     2.355     2.400
    64   1 H        0.926     0.037     2.483     2.464
    65   1 H        0.926     0.042     2.418     2.432
    66   1 H        0.926     0.043     2.410     2.428
    67   1 H        0.926     0.045     2.384     2.415
    68   1 H        0.926     0.043     2.406     2.426
    69   1 H        0.926     0.040     2.455     2.450
    70   1 H        0.926     0.043     2.406     2.426
    71   1 H        0.926     0.043     2.409     2.427
    72   1 H        0.926     0.045     2.389     2.417
    73   1 H        0.926     0.043     2.415     2.430
    74   1 H        0.926     0.050     2.322     2.383
    75   1 H        0.926     0.049     2.332     2.388

molecular dipole:
                 x           y           z       tot (Debye)
 q only:        0.256       1.576      -0.190
   full:        0.308       1.411      -0.298       3.749

 projected vibrational frequencies (cm⁻¹)
eigval :       -0.00    -0.00    -0.00     0.00     0.00     0.00
eigval :        6.01     9.39    11.44    25.55    29.26    33.37
eigval :       39.27    42.28    51.01    57.80    59.82    67.36
eigval :       71.46    78.51    89.08    94.58   106.61   119.75
eigval :      121.95   144.69   160.12   176.38   187.33   207.55
eigval :      213.61   219.45   230.95   236.50   275.28   282.50
eigval :      304.90   307.41   312.40   325.59   348.87   365.67
eigval :      374.49   375.43   376.55   379.62   382.69   385.21
eigval :      387.69   394.29   398.31   415.39   423.94   460.10
eigval :      467.43   479.47   487.03   503.96   510.16   513.51
eigval :      539.64   555.72   571.91   578.96   580.17   584.21
eigval :      586.33   590.30   593.56   595.95   607.57   611.48
eigval :      634.49   650.48   656.91   659.42   659.85   664.57
eigval :      673.59   691.91   697.54   719.01   753.51   756.67
eigval :      759.28   761.11   778.03   792.69   810.79   820.53
eigval :      827.52   835.04   864.35   865.20   868.56   874.31
eigval :      875.34   892.25   894.50   897.47   897.73   898.08
eigval :      905.66   907.34   908.06   908.66   912.60   918.05
eigval :      925.53   926.19   926.51   926.79   928.06   929.06
eigval :      930.37   932.06   933.25   968.57   978.63   989.20
eigval :      997.84  1001.39  1002.48  1022.97  1076.25  1078.43
eigval :     1078.80  1079.74  1081.06  1119.17  1119.68  1122.22
eigval :     1122.38  1125.84  1137.91  1142.11  1162.11  1172.11
eigval :     1176.09  1176.38  1176.74  1177.70  1179.30  1187.77
eigval :     1189.51  1191.12  1191.28  1210.48  1212.20  1248.57
eigval :     1256.85  1264.53  1271.48  1273.19  1274.17  1274.34
eigval :     1279.60  1294.64  1297.83  1299.75  1311.41  1314.70
eigval :     1317.49  1322.92  1325.85  1327.18  1328.71  1346.42
eigval :     1352.03  1379.03  1411.29  1426.80  1428.67  1431.16
eigval :     1436.39  1437.18  1447.01  1448.52  1453.47  1459.15
eigval :     1459.57  1461.26  1477.14  1495.47  1543.69  1555.68
eigval :     1558.12  1560.64  1569.10  1570.59  1571.91  1577.01
eigval :     1580.37  1581.33  1590.47  2233.78  3043.04  3073.72
eigval :     3076.42  3078.47  3079.50  3079.97  3080.66  3081.02
eigval :     3081.31  3081.68  3081.85  3082.57  3087.22  3087.33
eigval :     3088.93  3089.43  3090.44  3090.66  3092.10  3092.40
eigval :     3093.51  3095.16  3098.01  3098.86  3099.53  3099.82
eigval :     3100.71  3101.00  3120.22

   temp. (K)  partition function   enthalpy   heat capacity  entropy
                                   cal/mol     cal/K/mol   cal/K/mol   J/K/mol
 298.15  VIB  0.329E+19            22345.016    137.966    141.725
         ROT  0.103E+09              888.752      2.981     39.652
         INT  0.340E+27            23233.768    140.947    181.377
         TR   0.139E+29             1481.254      4.968     44.997
         TOT                       24715.0224   145.9147   226.3740   947.1489

       T/K    H(0)-H(T)+PV         H(T)/Eh          T*S/Eh         G(T)/Eh
   ------------------------------------------------------------------------
    298.15    0.393859E-01    0.608229E+00    0.107558E+00    0.500671E+00
   ------------------------------------------------------------------------

         :::::::::::::::::::::::::::::::::::::::::::::::::::::
         ::                  THERMODYNAMIC                  ::
         :::::::::::::::::::::::::::::::::::::::::::::::::::::
         :: total free energy        -116.646074593709 Eh   ::
         ::.................................................::
         :: total energy             -117.146745564128 Eh   ::
         :: zero point energy           0.568842675187 Eh   ::
         :: G(RRHO) w/o ZPVE           -0.068171704768 Eh   ::
         :: G(RRHO) contrib.            0.500670970419 Eh   ::
         :::::::::::::::::::::::::::::::::::::::::::::::::::::

           -------------------------------------------------
          | TOTAL ENERGY             -117.146745564128 Eh   |
          | TOTAL ENTHALPY           -116.538516993764 Eh   |
          | TOTAL FREE ENERGY        -116.646074593709 Eh   |
          | GRADIENT NORM               0.000201007472 Eh/α |
          | HOMO-LUMO GAP               0.240333172060 eV   |
           -------------------------------------------------

 * finished run on 2025/09/14 at 11:47:40.445
