   * xtb version 6.7.1 (edcfbbe) compiled by 'albert@albert-system' on 2024-07-22

   ID    Z sym.   atoms
    1    7 N      1, 9, 24, 26, 32
    2    6 C      2-8, 10-23, 25, 27-31, 33-46
    3    1 H      47-75

          program call               : xtb data2507/toluene/TPAPm/TPAPm_toluene_S0_finalOpt.xtbopt.xyz --gfn 2 --uhf 2 --gbsa toluene --ohess vtight --parallel 40 --molden --ceasefiles --namespace data2507/toluene/TPAPm/TPAPm_toluene_T1_preOpt
      * Solvation model:               GBSA
        Solvent                        toluene
        Solvent mass                       9.2140E+01 g/mol
          :  Hamiltonian                  GFN2-xTB          :
 * total energy  :  -117.1426274 Eh     change       -0.1503172E-07 Eh
 * total energy  :  -117.1441921 Eh     change       -0.1564674E-02 Eh
 * total energy  :  -117.1445928 Eh     change       -0.4006496E-03 Eh
 * total energy  :  -117.1446823 Eh     change       -0.8948370E-04 Eh
 * total energy  :  -117.1448111 Eh     change       -0.1288318E-03 Eh
 * total energy  :  -117.1449071 Eh     change       -0.9604704E-04 Eh
 * total energy  :  -117.1449924 Eh     change       -0.8526953E-04 Eh
 * total energy  :  -117.1450603 Eh     change       -0.6787892E-04 Eh
 * total energy  :  -117.1451180 Eh     change       -0.5773410E-04 Eh
 * total energy  :  -117.1451875 Eh     change       -0.6952774E-04 Eh
 * total energy  :  -117.1464248 Eh     change       -0.5249658E-06 Eh
 * total energy  :  -117.1464253 Eh     change       -0.4937512E-06 Eh
 * total energy  :  -117.1464258 Eh     change       -0.4685769E-06 Eh
 * total energy  :  -117.1464263 Eh     change       -0.4811298E-06 Eh
 * total energy  :  -117.1464268 Eh     change       -0.4975234E-06 Eh
 * total energy  :  -117.1464273 Eh     change       -0.5097958E-06 Eh
 * total energy  :  -117.1464273 Eh     change        0.1527563E-07 Eh
 * total energy  :  -117.1464273 Eh     change        0.2940737E-08 Eh
 * total energy  :  -117.1464273 Eh     change       -0.1910513E-07 Eh
   *** GEOMETRY OPTIMIZATION CONVERGED AFTER 96 ITERATIONS ***

 final structure:
================
75
 xtb: 6.7.1 (edcfbbe)
N            0.27102264089641        1.41310982999238       -0.86550202096667
C            0.14943542840570        0.27956948259201       -0.65051296206087
C            0.04040344276719       -1.09022595208434       -0.47285893008884
C            1.19948879636823       -1.88631027420849       -0.41727719694126
C            2.53032392168427       -1.29927484017350       -0.24391003657793
C            2.74932997720835       -0.18364735872256        0.56547548423204
C            4.01147316533631        0.35022713560776        0.70001483280770
C            5.10012571029590       -0.21916206785096        0.03137147266141
N            6.37156820396325        0.33319592664603        0.15152905774039
C            7.50075121388541       -0.49617076262917        0.16541035298912
C            7.46638431951273       -1.72125981576343        0.83359125045563
C            8.58336460160027       -2.53396475791799        0.84875414430750
C            9.74688184444953       -2.13940488422099        0.20643066556253
C            9.78608280395978       -0.92227923600048       -0.45609691052583
C            8.67357334964487       -0.10364197207996       -0.48132309993038
C            6.52880611846865        1.72137703225778        0.24991103406742
C            5.70554655343400        2.57949833240947       -0.48147527652511
C            5.87094253975119        3.94757195431852       -0.38473642620472
C            6.85584743833216        4.47971592114201        0.43309289391668
C            7.67656773391248        3.63115015281434        1.15988917287179
C            7.51704366738715        2.26170927946868        1.07454790401064
C            4.88785812750971       -1.35710570050489       -0.75506779789252
C            3.62496558222263       -1.88750985576737       -0.88253635234373
N            1.15490036073226       -3.20686054039560       -0.55910945965008
C           -0.05195080093172       -3.76398668925708       -0.75880173409581
N           -1.18705239799968       -3.14262820467837       -0.72517573819858
C           -1.23303050168023       -1.80509206568547       -0.52626533047607
C           -2.51331850652527       -1.21396625145229       -0.37148464362377
C           -2.72098505175131        0.10259162104366        0.11171988652302
C           -3.98087082066352        0.61788222978274        0.25478027305576
C           -5.11580134276641       -0.14263299045489       -0.07542201935198
N           -6.39759000217021        0.38930208759677        0.06218067878524
C           -6.62764567210768        1.73448898137867       -0.22034457566458
C           -7.54858822972873        2.46893724213210        0.53489766354638
C           -7.76464903013954        3.80357291269918        0.25845108170027
C           -7.07162685096630        4.42988227502121       -0.76745477360447
C           -6.15575446130531        3.70725675565240       -1.51857947093457
C           -5.93121234400418        2.37165917565505       -1.25271116282387
C           -7.44483904102758       -0.42930924779040        0.48405323491371
C           -8.72919642800714       -0.26732596190909       -0.04619571990029
C           -9.75759325103744       -1.09053847206663        0.36552836174287
C           -9.52855762136451       -2.08517364421360        1.30535872150940
C           -8.25673972986378       -2.25052838024331        1.83451679217644
C           -7.21995222284037       -1.43348494295375        1.43133177393937
C           -4.92858922793065       -1.45882981803068       -0.54069511469626
C           -3.67339371896555       -1.97768757005028       -0.67542527962429
H            1.92847976753969        0.25455237396934        1.11347259704098
H            4.16735454983402        1.20677642755851        1.33867982414874
H            6.56413234169906       -2.02236357791422        1.34525004074297
H            8.54698438418689       -3.47738145048994        1.37292760055811
H           10.61789457390663       -2.77663187900246        0.22248029868028
H           10.68673092475204       -0.61146886834933       -0.96424588969488
H            8.70029660598276        0.83854297774827       -1.00824253194716
H            4.94513521305791        2.16692497236271       -1.12830255691938
H            5.23011754773812        4.60065755883410       -0.95824589583640
H            6.98251680780324        5.54926441830503        0.50335671087546
H            8.44123064301633        4.03854826400717        1.80434128645056
H            8.14747050845850        1.60148766517076        1.65148852061084
H            5.71899185485341       -1.80710214255835       -1.27712983278507
H            3.45653481737589       -2.75917242553915       -1.49629196135419
H           -0.06357692216709       -4.83089413846504       -0.93907328785885
H           -1.87361692625753        0.70364002653861        0.40081952382850
H           -4.11084128658555        1.61389244608232        0.65322115002190
H           -8.07236692097218        1.98747125198791        1.34721735569793
H           -8.47130209801187        4.36248318719085        0.85355369655026
H           -7.24232168214312        5.47424890572904       -0.97910373182080
H           -5.61668164488849        4.18627447414154       -2.32226686365390
H           -5.22930118519219        1.80534379440091       -1.84675460826533
H           -8.90274648239847        0.49304605532551       -0.79305420353384
H          -10.74298972683771       -0.96281762082057       -0.05703618804185
H          -10.33549516101277       -2.72769792348251        1.62275705691434
H           -8.07291504916309       -3.01782484597261        2.57170242504293
H           -6.23287563888124       -1.55073988135038        1.85335680614046
H           -5.79127676180677       -2.04855720086764       -0.81520236965544
H           -3.52983585049763       -2.98221323557815       -1.04141174238269

          :  Hamiltonian                  GFN2-xTB          :
         :: gradient norm              0.000068498139 Eh/a0 ::
         :: HOMO-LUMO gap              0.188604006472 eV    ::
         :: SCC energy              -119.321958561017 Eh    ::
         :: -> dispersion             -0.101943130811 Eh    ::
         :: -> Gsolv                  -0.061951300654 Eh    ::
         :: repulsion energy           2.175531256493 Eh    ::

    * Orbital Energies and Occupations

         #    Occupation            Energy/Eh            Energy/eV
      -------------------------------------------------------------
         1        2.0000           -0.6813127             -18.5395
       ...           ...                  ...                  ...
        98        2.0000           -0.4177702             -11.3681
        99        2.0000           -0.4172045             -11.3527
       100        2.0000           -0.4156081             -11.3093
       101        2.0000           -0.4144754             -11.2785
       102        2.0000           -0.4139236             -11.2634
       103        2.0000           -0.4103618             -11.1665
       104        2.0000           -0.4078403             -11.0979
       105        2.0000           -0.3964909             -10.7891
       106        2.0000           -0.3903716             -10.6226
       107        1.8823           -0.3633143              -9.8863
       108        1.7791           -0.3625979              -9.8668
       109        1.3387           -0.3607649              -9.8169
       110        0.9746           -0.2810018              -7.6464 (HOMO)
       111        0.0254           -0.2740707              -7.4578 (LUMO)
       112                         -0.2433434              -6.6217
       113                         -0.2406045              -6.5472
       114                         -0.2375544              -6.4642
       115                         -0.2365690              -6.4374
       116                         -0.2344622              -6.3800
       117                         -0.2323303              -6.3220
       118                         -0.2321055              -6.3159
       119                         -0.2303457              -6.2680
       120                         -0.2227892              -6.0624
       121                         -0.2203326              -5.9956
       ...                                ...                  ...
       213                          1.1550671              31.4310
      -------------------------------------------------------------
                  HL-Gap            0.0069311 Eh            0.1886 eV

     #   Z          covCN         q      C6AA      α(0)
     1   7 N        0.911    -0.353    29.094     7.801
     2   6 C        1.907     0.102    28.573     8.633
     3   6 C        2.957    -0.040    28.998     8.832
     4   6 C        2.968     0.117    25.433     8.272
     5   6 C        2.980    -0.004    28.117     8.698
     6   6 C        2.921    -0.027    28.670     8.781
     7   6 C        2.920    -0.043    29.064     8.841
     8   6 C        2.925     0.068    26.480     8.439
     9   7 N        2.752    -0.044    22.090     6.980
    10   6 C        2.925     0.063    26.578     8.454
    11   6 C        2.921    -0.042    29.047     8.838
    12   6 C        2.919    -0.026    28.653     8.778
    13   6 C        2.919    -0.031    28.781     8.798
    14   6 C        2.919    -0.026    28.657     8.778
    15   6 C        2.921    -0.042    29.042     8.837
    16   6 C        2.925     0.064    26.577     8.454
    17   6 C        2.921    -0.042    29.032     8.836
    18   6 C        2.919    -0.026    28.644     8.777
    19   6 C        2.919    -0.031    28.780     8.797
    20   6 C        2.919    -0.026    28.663     8.779
    21   6 C        2.921    -0.043    29.056     8.840
    22   6 C        2.919    -0.044    29.092     8.845
    23   6 C        2.924    -0.025    28.621     8.773
    24   7 N        1.841    -0.307    28.800     7.953
    25   6 C        2.867     0.145    24.854     8.172
    26   7 N        1.841    -0.267    27.791     7.813
    27   6 C        2.950     0.068    26.473     8.439
    28   6 C        2.973    -0.007    28.201     8.711
    29   6 C        2.916    -0.047    29.156     8.854
    30   6 C        2.914    -0.041    29.014     8.833
    31   6 C        2.925     0.042    27.052     8.529
    32   7 N        2.752    -0.022    21.677     6.915
    33   6 C        2.926     0.064    26.574     8.454
    34   6 C        2.921    -0.041    29.025     8.835
    35   6 C        2.918    -0.026    28.643     8.776
    36   6 C        2.919    -0.029    28.736     8.791
    37   6 C        2.918    -0.025    28.630     8.774
    38   6 C        2.921    -0.039    28.965     8.826
    39   6 C        2.927     0.064    26.574     8.454
    40   6 C        2.921    -0.041    29.012     8.833
    41   6 C        2.918    -0.025    28.639     8.776
    42   6 C        2.919    -0.029    28.736     8.791
    43   6 C        2.918    -0.025    28.633     8.775
    44   6 C        2.921    -0.039    28.969     8.826
    45   6 C        2.913    -0.042    29.054     8.839
    46   6 C        2.922    -0.040    28.991     8.830
    47   1 H        0.926     0.033     2.545     2.495
    48   1 H        0.926     0.047     2.360     2.402
    49   1 H        0.926     0.039     2.459     2.452
    50   1 H        0.926     0.043     2.408     2.427
    51   1 H        0.926     0.043     2.410     2.428
    52   1 H        0.926     0.045     2.389     2.417
    53   1 H        0.926     0.043     2.414     2.430
    54   1 H        0.926     0.037     2.487     2.466
    55   1 H        0.926     0.042     2.418     2.432
    56   1 H        0.926     0.043     2.410     2.428
    57   1 H        0.926     0.045     2.384     2.415
    58   1 H        0.926     0.043     2.405     2.425
    59   1 H        0.926     0.050     2.325     2.384
    60   1 H        0.926     0.051     2.312     2.378
    61   1 H        0.925     0.020     2.727     2.583
    62   1 H        0.926     0.024     2.670     2.555
    63   1 H        0.926     0.035     2.522     2.483
    64   1 H        0.926     0.045     2.377     2.411
    65   1 H        0.926     0.047     2.358     2.401
    66   1 H        0.926     0.045     2.382     2.414
    67   1 H        0.926     0.044     2.395     2.420
    68   1 H        0.926     0.041     2.431     2.438
    69   1 H        0.926     0.045     2.381     2.413
    70   1 H        0.926     0.047     2.360     2.402
    71   1 H        0.926     0.045     2.382     2.414
    72   1 H        0.926     0.045     2.386     2.415
    73   1 H        0.926     0.043     2.413     2.429
    74   1 H        0.926     0.038     2.469     2.457
    75   1 H        0.926     0.044     2.391     2.418

molecular dipole:
                 x           y           z       tot (Debye)
 q only:       -0.248       1.354       0.913
   full:       -0.279       1.164       0.962       3.904

 projected vibrational frequencies (cm⁻¹)
eigval :       -0.00    -0.00    -0.00    -0.00     0.00     0.00
eigval :        2.48     9.85    12.18    23.56    30.71    34.61
eigval :       39.48    44.25    51.09    59.11    60.24    70.77
eigval :       74.67    76.24    87.08    95.05   107.74   121.74
eigval :      123.12   144.49   162.49   175.98   187.19   207.92
eigval :      212.93   219.40   230.88   236.00   276.35   285.18
eigval :      299.84   307.46   311.33   321.69   355.50   366.64
eigval :      369.15   375.16   375.65   376.28   378.53   384.08
eigval :      388.25   395.24   402.63   413.22   424.85   460.44
eigval :      467.34   476.30   485.37   498.00   508.97   513.21
eigval :      539.46   554.30   568.37   578.47   580.33   584.24
eigval :      585.83   590.34   594.46   595.21   606.30   611.67
eigval :      634.05   650.21   657.22   658.63   659.72   663.80
eigval :      671.16   692.28   695.99   719.11   754.05   755.58
eigval :      757.22   758.07   777.05   797.40   810.01   819.34
eigval :      831.65   837.57   861.38   866.77   868.56   869.83
eigval :      871.53   892.46   895.36   895.74   896.36   902.60
eigval :      906.16   908.00   908.84   910.78   914.63   917.20
eigval :      923.57   925.57   926.53   927.32   927.98   928.04
eigval :      928.25   929.12   929.86   965.75   977.97   986.10
eigval :      997.60   999.63  1002.35  1017.48  1064.35  1077.07
eigval :     1077.92  1079.73  1080.76  1119.56  1120.18  1121.73
eigval :     1121.98  1122.92  1138.63  1140.87  1161.09  1168.12
eigval :     1175.34  1177.10  1177.33  1177.78  1178.28  1186.77
eigval :     1187.90  1190.60  1191.87  1210.71  1212.30  1239.83
eigval :     1258.80  1261.87  1269.63  1271.24  1273.48  1274.46
eigval :     1278.61  1287.04  1294.68  1297.83  1304.73  1313.04
eigval :     1315.33  1317.51  1323.25  1325.60  1327.79  1330.85
eigval :     1343.56  1372.57  1412.08  1427.04  1428.83  1431.29
eigval :     1431.97  1437.15  1437.91  1448.04  1453.08  1457.87
eigval :     1459.21  1459.49  1474.93  1486.38  1541.01  1555.28
eigval :     1555.92  1559.90  1568.85  1570.01  1571.55  1576.10
eigval :     1579.76  1581.42  1590.20  2227.24  3043.40  3075.26
eigval :     3077.11  3079.52  3079.92  3080.51  3080.62  3081.07
eigval :     3081.24  3081.66  3082.20  3082.46  3086.50  3088.10
eigval :     3088.84  3089.06  3090.04  3091.12  3092.24  3092.37
eigval :     3093.19  3094.23  3099.48  3099.77  3099.91  3100.16
eigval :     3100.56  3102.44  3111.14

   temp. (K)  partition function   enthalpy   heat capacity  entropy
                                   cal/mol     cal/K/mol   cal/K/mol   J/K/mol
 298.15  VIB  0.627E+19            22355.663    138.270    142.501
         ROT  0.103E+09              888.752      2.981     39.648
         INT  0.647E+27            23244.415    141.251    182.150
         TR   0.139E+29             1481.254      4.968     44.997
         TOT                       24725.6693   146.2192   227.1465   950.3808

       T/K    H(0)-H(T)+PV         H(T)/Eh          T*S/Eh         G(T)/Eh
   ------------------------------------------------------------------------
    298.15    0.394029E-01    0.607796E+00    0.107925E+00    0.499871E+00
   ------------------------------------------------------------------------

         :::::::::::::::::::::::::::::::::::::::::::::::::::::
         ::                  THERMODYNAMIC                  ::
         :::::::::::::::::::::::::::::::::::::::::::::::::::::
         :: total free energy        -116.646556337846 Eh   ::
         ::.................................................::
         :: total energy             -117.146427303348 Eh   ::
         :: zero point energy           0.568392721777 Eh   ::
         :: G(RRHO) w/o ZPVE           -0.068521756276 Eh   ::
         :: G(RRHO) contrib.            0.499870965501 Eh   ::
         :::::::::::::::::::::::::::::::::::::::::::::::::::::

           -------------------------------------------------
          | TOTAL ENERGY             -117.146427303348 Eh   |
          | TOTAL ENTHALPY           -116.538631719447 Eh   |
          | TOTAL FREE ENERGY        -116.646556337846 Eh   |
          | GRADIENT NORM               0.000066854307 Eh/α |
          | HOMO-LUMO GAP               0.188604932644 eV   |
           -------------------------------------------------

 * finished run on 2025/09/14 at 11:36:20.898
