   * xtb version 6.7.1 (edcfbbe) compiled by 'albert@albert-system' on 2024-07-22

   ID    Z sym.   atoms
    1    7 N      1, 9, 24, 26, 32
    2    6 C      2-8, 10-23, 25, 27-31, 33-46
    3    1 H      47-75

          program call               : xtb data2507/toluene/TPAPm/TPAPm.xyz --gfn 2 --gbsa toluene --ohess vtight --parallel 40 --molden --ceasefiles --namespace data2507/toluene/TPAPm/TPAPm_toluene_S0_preOpt
      * Solvation model:               GBSA
        Solvent                        toluene
        Solvent mass                       9.2140E+01 g/mol
          :  Hamiltonian                  GFN2-xTB          :
 * total energy  :  -117.1897354 Eh     change       -0.1777792E-08 Eh
 * total energy  :  -117.2053702 Eh     change       -0.1563483E-01 Eh
 * total energy  :  -117.2115939 Eh     change       -0.6223679E-02 Eh
 * total energy  :  -117.2139415 Eh     change       -0.2347624E-02 Eh
 * total energy  :  -117.2158992 Eh     change       -0.1957628E-02 Eh
 * total energy  :  -117.2171263 Eh     change       -0.1227093E-02 Eh
 * total energy  :  -117.2178607 Eh     change       -0.7344388E-03 Eh
 * total energy  :  -117.2184507 Eh     change       -0.5900378E-03 Eh
 * total energy  :  -117.2189497 Eh     change       -0.4989989E-03 Eh
 * total energy  :  -117.2193184 Eh     change       -0.3687085E-03 Eh
 * total energy  :  -117.2210867 Eh     change       -0.4410941E-06 Eh
 * total energy  :  -117.2210873 Eh     change       -0.5163777E-06 Eh
 * total energy  :  -117.2210878 Eh     change       -0.5690714E-06 Eh
 * total energy  :  -117.2210883 Eh     change       -0.5047922E-06 Eh
 * total energy  :  -117.2210888 Eh     change       -0.4285058E-06 Eh
 * total energy  :  -117.2210892 Eh     change       -0.4256773E-06 Eh
 * total energy  :  -117.2210897 Eh     change       -0.4972569E-06 Eh
 * total energy  :  -117.2210903 Eh     change       -0.6413624E-06 Eh
 * total energy  :  -117.2210903 Eh     change       -0.7798690E-08 Eh
   *** GEOMETRY OPTIMIZATION CONVERGED AFTER 68 ITERATIONS ***

 final structure:
================
75
 xtb: 6.7.1 (edcfbbe)
N            0.00002237536073        1.02866555295330       -0.85882245419970
C           -0.00002448280718       -0.05266714872699       -0.46403956668471
C           -0.00000602465541       -1.40742687870861       -0.09747762270123
C            1.20693320364886       -2.13690037602309        0.01139045061575
C            2.51724794268219       -1.50854577719924        0.03561297721584
C            2.72651440501892       -0.23797038960527        0.57905446002006
C            3.98005528810815        0.32674118990488        0.58657622082610
C            5.07756430634478       -0.35206999308382        0.04032864827880
N            6.33110616007028        0.22966980044226        0.02516635961924
C            7.49474397305285       -0.56001100475089        0.07038574693357
C            7.57308297411010       -1.65870354356325        0.92435245916752
C            8.72423596261438       -2.42266396363808        0.96754115975776
C            9.81110140679931       -2.09826793525570        0.17156128533426
C            9.73967336275455       -1.00152133795256       -0.67216255242953
C            8.58992708254114       -0.23629422127661       -0.72808233145953
C            6.47386986133805        1.62771459076832       -0.04507386046115
C            5.65826611461985        2.38266505893383       -0.88629775508667
C            5.81383077874427        3.75434525141060       -0.95483443746726
C            6.78534530310996        4.38852095337444       -0.19711829591777
C            7.60301108681771        3.64021325654146        0.63427417529731
C            7.44999642712979        2.26879430078145        0.71522770204019
C            4.87168668413693       -1.63671816647567       -0.48200149248428
C            3.62064837879876       -2.20373201621271       -0.47201350134187
N            1.17750194806055       -3.47123159890503        0.07934204378038
C           -0.00000043563121       -4.05829005331925        0.07112126258407
N           -1.17750191521735       -3.47123030055561        0.07940287480883
C           -1.20693514544614       -2.13690074234039        0.01143199819762
C           -2.51725179105142       -1.50854589364184        0.03566147543084
C           -2.72651861967152       -0.23796758360589        0.57909479005794
C           -3.98006025312420        0.32674318793184        0.58661500738178
C           -5.07756835306245       -0.35207281392593        0.04037188504654
N           -6.33110924205531        0.22966818431469        0.02519822210824
C           -6.47386873096038        1.62771099001957       -0.04506947074342
C           -7.45000525117307        2.26880660989493        0.71520571815661
C           -7.60300574167650        3.64022610516104        0.63423510431168
C           -6.78531144284594        4.38851900555205       -0.19714294103896
C           -5.81378867716274        3.75432688386126       -0.95483504326446
C           -5.65824414529435        2.38264506977544       -0.88628789157715
C           -7.49474938829136       -0.56000984691793        0.07040298352852
C           -8.58990755222497       -0.23630376212268       -0.72810326267070
C           -9.73965754338521       -1.00152626579392       -0.67220411636925
C           -9.81111855547405       -2.09824862043614        0.17154861329253
C           -8.72427819652260       -2.42263255879567        0.96756786201251
C           -7.57311528358318       -1.65868613746406        0.92438756708949
C           -4.87169022136156       -1.63672272273345       -0.48195215170176
C           -3.62065099585910       -2.20373459664116       -0.47196373398684
H            1.90718779778486        0.29683847612126        1.03634113300618
H            4.12425938165782        1.30049907276339        1.02963451095131
H            6.73011361980738       -1.90497025397053        1.55352215440317
H            8.77458986872429       -3.27150988019822        1.63354941891282
H           10.70934109124326       -2.69589661708570        0.21015668050368
H           10.58171818380641       -0.74329557672149       -1.29733184077908
H            8.53164347086065        0.61502059578423       -1.39031639779202
H            4.90682047752467        1.88865946196969       -1.48515566714860
H            5.17618810075634        4.32888013520161       -1.61054755085305
H            6.90499374668010        5.45981853826216       -0.25584578620173
H            8.36098281163887        4.12739689512380        1.22985553818114
H            8.08356828785497        1.68587436709718        1.36760734728842
H            5.70324729608502       -2.17672002590303       -0.90874227884442
H            3.46352598317300       -3.18888482865359       -0.88327883231857
H           -0.00000208085568       -5.14187184574608        0.08348150087951
H           -1.90718994528900        0.29684894762335        1.03636949089109
H           -4.12426398559115        1.30050630754313        1.02966186011890
H           -8.08358747648907        1.68590000554751        1.36758712220366
H           -8.36097819482840        4.12742373694258        1.22980356176135
H           -6.90495538625773        5.45981569225009       -0.25589070571443
H           -5.17614494393477        4.32884578081325       -1.61056091754052
H           -4.90679827780287        1.88862500644836       -1.48513356826139
H           -8.53160427582631        0.61500668758134       -1.39034118217280
H          -10.58169913601620       -0.74328117943522       -1.29736957452418
H          -10.70937157006075       -2.69585680933994        0.21014954044858
H           -8.77464852415843       -3.27147659657882        1.63357723594170
H           -6.73015358943094       -1.90496225052291        1.55356391143080
H           -5.70325080913615       -2.17672444304749       -0.90869324443108
H           -3.46352995918159       -3.18888714177415       -0.88323003172300

          :  Hamiltonian                  GFN2-xTB          :
         :: gradient norm              0.000079710209 Eh/a0 ::
         :: HOMO-LUMO gap              1.747359583553 eV    ::
         :: SCC energy              -119.412000156273 Eh    ::
         :: -> dispersion             -0.102049296347 Eh    ::
         :: -> Gsolv                  -0.054237044890 Eh    ::
         :: repulsion energy           2.190909825373 Eh    ::

    * Orbital Energies and Occupations

         #    Occupation            Energy/Eh            Energy/eV
      -------------------------------------------------------------
         1        2.0000           -0.6920507             -18.8317
       ...           ...                  ...                  ...
        97        2.0000           -0.4182765             -11.3819
        98        2.0000           -0.4138507             -11.2615
        99        2.0000           -0.4134412             -11.2503
       100        2.0000           -0.4129665             -11.2374
       101        2.0000           -0.4129623             -11.2373
       102        2.0000           -0.4102207             -11.1627
       103        2.0000           -0.4102136             -11.1625
       104        2.0000           -0.4090692             -11.1313
       105        2.0000           -0.4087520             -11.1227
       106        2.0000           -0.4068188             -11.0701
       107        2.0000           -0.3794736             -10.3260
       108        2.0000           -0.3599202              -9.7939
       109        2.0000           -0.3586721              -9.7600 (HOMO)
       110                         -0.2944578              -8.0126 (LUMO)
       111                         -0.2898014              -7.8859
       112                         -0.2380368              -6.4773
       113                         -0.2363632              -6.4318
       114                         -0.2358286              -6.4172
       115                         -0.2349056              -6.3921
       116                         -0.2345037              -6.3812
       117                         -0.2291555              -6.2356
       118                         -0.2288611              -6.2276
       119                         -0.2265969              -6.1660
       120                         -0.2264146              -6.1611
       ...                                ...                  ...
       213                          1.1470123              31.2118
      -------------------------------------------------------------
                  HL-Gap            0.0642143 Eh            1.7474 eV

     #   Z          covCN         q      C6AA      α(0)
     1   7 N        0.911    -0.289    27.450     7.577
     2   6 C        1.906     0.116    28.256     8.585
     3   6 C        2.962    -0.027    28.668     8.782
     4   6 C        2.976     0.119    25.380     8.264
     5   6 C        2.979    -0.015    28.372     8.737
     6   6 C        2.920    -0.028    28.696     8.785
     7   6 C        2.920    -0.048    29.199     8.861
     8   6 C        2.921     0.074    26.357     8.419
     9   7 N        2.752    -0.063    22.459     7.039
    10   6 C        2.925     0.063    26.593     8.457
    11   6 C        2.922    -0.045    29.116     8.849
    12   6 C        2.919    -0.028    28.707     8.786
    13   6 C        2.919    -0.035    28.874     8.812
    14   6 C        2.919    -0.028    28.704     8.786
    15   6 C        2.922    -0.044    29.098     8.846
    16   6 C        2.926     0.063    26.596     8.457
    17   6 C        2.921    -0.045    29.105     8.847
    18   6 C        2.919    -0.028    28.703     8.786
    19   6 C        2.919    -0.035    28.873     8.812
    20   6 C        2.919    -0.028    28.708     8.786
    21   6 C        2.922    -0.045    29.106     8.847
    22   6 C        2.920    -0.049    29.214     8.863
    23   6 C        2.924    -0.024    28.602     8.770
    24   7 N        1.842    -0.279    28.078     7.853
    25   6 C        2.896     0.161    24.514     8.118
    26   7 N        1.842    -0.279    28.078     7.853
    27   6 C        2.976     0.119    25.380     8.264
    28   6 C        2.979    -0.015    28.372     8.737
    29   6 C        2.920    -0.028    28.696     8.785
    30   6 C        2.920    -0.048    29.199     8.861
    31   6 C        2.921     0.074    26.357     8.419
    32   7 N        2.752    -0.063    22.459     7.039
    33   6 C        2.926     0.063    26.596     8.457
    34   6 C        2.922    -0.045    29.106     8.847
    35   6 C        2.919    -0.028    28.708     8.786
    36   6 C        2.919    -0.035    28.873     8.812
    37   6 C        2.919    -0.028    28.703     8.786
    38   6 C        2.921    -0.045    29.106     8.847
    39   6 C        2.925     0.063    26.593     8.457
    40   6 C        2.922    -0.044    29.098     8.846
    41   6 C        2.919    -0.028    28.704     8.786
    42   6 C        2.919    -0.035    28.874     8.812
    43   6 C        2.919    -0.028    28.707     8.786
    44   6 C        2.922    -0.045    29.116     8.849
    45   6 C        2.920    -0.049    29.214     8.863
    46   6 C        2.924    -0.024    28.602     8.770
    47   1 H        0.926     0.031     2.573     2.508
    48   1 H        0.926     0.044     2.400     2.422
    49   1 H        0.926     0.036     2.504     2.474
    50   1 H        0.926     0.039     2.466     2.456
    51   1 H        0.926     0.038     2.479     2.462
    52   1 H        0.926     0.039     2.461     2.453
    53   1 H        0.926     0.037     2.495     2.470
    54   1 H        0.926     0.034     2.529     2.487
    55   1 H        0.926     0.038     2.472     2.458
    56   1 H        0.926     0.038     2.477     2.461
    57   1 H        0.926     0.039     2.457     2.451
    58   1 H        0.926     0.037     2.487     2.466
    59   1 H        0.926     0.047     2.362     2.403
    60   1 H        0.926     0.052     2.292     2.367
    61   1 H        0.925     0.039     2.465     2.455
    62   1 H        0.926     0.031     2.573     2.508
    63   1 H        0.926     0.044     2.400     2.422
    64   1 H        0.926     0.037     2.487     2.466
    65   1 H        0.926     0.039     2.457     2.451
    66   1 H        0.926     0.038     2.477     2.461
    67   1 H        0.926     0.038     2.472     2.458
    68   1 H        0.926     0.034     2.529     2.487
    69   1 H        0.926     0.037     2.495     2.470
    70   1 H        0.926     0.039     2.461     2.453
    71   1 H        0.926     0.038     2.479     2.462
    72   1 H        0.926     0.039     2.466     2.456
    73   1 H        0.926     0.036     2.504     2.474
    74   1 H        0.926     0.047     2.362     2.403
    75   1 H        0.926     0.052     2.292     2.367

molecular dipole:
                 x           y           z       tot (Debye)
 q only:        0.000       0.632       0.260
   full:        0.000       0.485       0.364       1.543

 projected vibrational frequencies (cm⁻¹)
eigval :       -0.00    -0.00     0.00     0.00     0.00     0.00
eigval :        7.99    11.53    13.68    24.87    31.78    32.71
eigval :       39.09    45.31    46.52    60.12    60.98    71.36
eigval :       72.53    74.90    85.17    94.15   109.25   122.08
eigval :      126.79   146.62   163.06   181.51   186.12   212.32
eigval :      215.11   218.20   236.54   239.92   279.87   284.13
eigval :      305.53   307.39   309.06   329.34   367.70   373.43
eigval :      376.44   377.00   380.76   381.21   388.48   388.98
eigval :      393.66   399.05   401.45   424.38   431.36   476.05
eigval :      479.89   490.55   492.17   503.22   507.65   546.42
eigval :      560.34   573.33   582.74   583.91   584.34   586.20
eigval :      593.46   593.77   599.15   608.64   610.27   632.66
eigval :      636.46   661.23   661.81   665.97   668.75   679.53
eigval :      692.75   699.56   725.09   747.31   756.73   757.09
eigval :      760.01   761.41   816.29   818.05   827.22   836.26
eigval :      861.97   862.89   872.37   872.64   874.61   874.72
eigval :      896.35   896.83   897.20   897.21   899.96   909.16
eigval :      909.20   915.14   917.42   918.93   922.75   923.42
eigval :      925.11   926.28   926.49   927.15   927.16   928.34
eigval :      928.58   931.64   931.66   980.00   984.77  1004.28
eigval :     1004.36  1005.68  1016.09  1068.48  1080.23  1080.23
eigval :     1081.66  1081.67  1118.48  1118.48  1121.06  1121.07
eigval :     1142.40  1143.57  1160.16  1176.22  1176.23  1178.63
eigval :     1178.66  1182.41  1182.99  1189.39  1190.67  1191.37
eigval :     1193.15  1197.09  1211.09  1212.90  1223.88  1266.19
eigval :     1266.90  1274.75  1274.80  1276.95  1278.84  1281.55
eigval :     1296.74  1299.53  1306.56  1314.33  1315.08  1322.00
eigval :     1322.23  1328.92  1329.70  1333.08  1343.81  1377.90
eigval :     1379.81  1419.45  1420.39  1433.69  1434.03  1438.41
eigval :     1438.64  1465.31  1465.78  1469.22  1469.41  1474.32
eigval :     1490.09  1492.21  1505.93  1542.45  1543.06  1577.32
eigval :     1577.33  1580.70  1580.73  1586.14  1586.37  1589.85
eigval :     1589.86  1596.95  1597.10  2325.16  3041.57  3074.61
eigval :     3074.61  3075.23  3075.24  3075.47  3075.48  3076.75
eigval :     3076.76  3080.51  3080.83  3083.89  3083.90  3084.20
eigval :     3084.22  3087.02  3087.03  3088.13  3088.14  3091.10
eigval :     3091.13  3095.98  3095.99  3096.16  3096.20  3096.83
eigval :     3096.88  3103.88  3104.06

   temp. (K)  partition function   enthalpy   heat capacity  entropy
                                   cal/mol     cal/K/mol   cal/K/mol   J/K/mol
 298.15  VIB  0.117E+19            22064.611    136.242    139.527
         ROT  0.102E+09              888.752      2.981     39.629
         INT  0.120E+27            22953.364    139.223    179.156
         TR   0.139E+29             1481.254      4.968     44.997
         TOT                       24434.6177   144.1911   224.1529   937.8556

       T/K    H(0)-H(T)+PV         H(T)/Eh          T*S/Eh         G(T)/Eh
   ------------------------------------------------------------------------
    298.15    0.389390E-01    0.611715E+00    0.106502E+00    0.505213E+00
   ------------------------------------------------------------------------

         :::::::::::::::::::::::::::::::::::::::::::::::::::::
         ::                  THERMODYNAMIC                  ::
         :::::::::::::::::::::::::::::::::::::::::::::::::::::
         :: total free energy        -116.715877656880 Eh   ::
         ::.................................................::
         :: total energy             -117.221090329641 Eh   ::
         :: zero point energy           0.572775887582 Eh   ::
         :: G(RRHO) w/o ZPVE           -0.067563214821 Eh   ::
         :: G(RRHO) contrib.            0.505212672761 Eh   ::
         :::::::::::::::::::::::::::::::::::::::::::::::::::::

           -------------------------------------------------
          | TOTAL ENERGY             -117.221090329641 Eh   |
          | TOTAL ENTHALPY           -116.609375400123 Eh   |
          | TOTAL FREE ENERGY        -116.715877656880 Eh   |
          | GRADIENT NORM               0.000079761437 Eh/α |
          | HOMO-LUMO GAP               1.747358685356 eV   |
           -------------------------------------------------

 * finished run on 2025/09/14 at 11:28:46.603
