   * xtb version 6.7.1 (edcfbbe) compiled by 'albert@albert-system' on 2024-07-22

   ID    Z sym.   atoms
    1    6 C      1-4, 6-18, 20-34
    2   15 P      5, 19
    3    1 H      35-62

          program call               : xtb data2507/gas/dpmb/dpmb.xyz --gfn 2 --ohess vtight --parallel 40 --molden --ceasefiles --namespace data2507/gas/dpmb/dpmb_gas_S0_preOpt
          :  Hamiltonian                  GFN2-xTB          :
 * total energy  :   -87.7718025 Eh     change       -0.3618439E-08 Eh
 * total energy  :   -87.7836502 Eh     change       -0.1184773E-01 Eh
 * total energy  :   -87.7877645 Eh     change       -0.4114232E-02 Eh
 * total energy  :   -87.7900481 Eh     change       -0.2283679E-02 Eh
 * total energy  :   -87.7914453 Eh     change       -0.1397116E-02 Eh
 * total energy  :   -87.7921723 Eh     change       -0.7269917E-03 Eh
 * total energy  :   -87.7926119 Eh     change       -0.4396084E-03 Eh
 * total energy  :   -87.7928897 Eh     change       -0.2778485E-03 Eh
 * total energy  :   -87.7929784 Eh     change       -0.8866405E-04 Eh
 * total energy  :   -87.7930370 Eh     change       -0.5858637E-04 Eh
 * total energy  :   -87.7986171 Eh     change       -0.6065619E-06 Eh
 * total energy  :   -87.7986172 Eh     change       -0.1525289E-06 Eh
 * total energy  :   -87.7986174 Eh     change       -0.1661256E-06 Eh
 * total energy  :   -87.7986174 Eh     change        0.1044981E-08 Eh
 * total energy  :   -87.7986176 Eh     change       -0.1809864E-06 Eh
 * total energy  :   -87.7986179 Eh     change       -0.2913865E-06 Eh
 * total energy  :   -87.7986181 Eh     change       -0.1939307E-06 Eh
 * total energy  :   -87.7986182 Eh     change       -0.1216946E-06 Eh
 * total energy  :   -87.7986182 Eh     change       -0.2980840E-07 Eh
   *** GEOMETRY OPTIMIZATION CONVERGED AFTER 90 ITERATIONS ***

 final structure:
================
62
 xtb: 6.7.1 (edcfbbe)
C            1.48000725480995       -2.79462642213177       -3.19767530893552
C            0.70231870434896       -2.19675307149842       -2.06544830224040
C            1.35539569559303       -1.45937318428181       -1.08832524246228
C            0.65156998597436       -0.90293572277673       -0.03169558785458
P            1.36165074222457        0.09553438186437        1.31716440754366
C            3.07750282278909       -0.55871834882359        1.28242822654973
C            3.21861892361982       -1.88746368683099        1.67932214440183
C            4.46497869802972       -2.48038595269207        1.71861050531469
C            5.58993589704959       -1.74609342776617        1.37656581556426
C            5.45848902072859       -0.42107269376844        0.99819703122077
C            4.20979656430333        0.17529593513562        0.95315593012007
C            1.60629477515721        1.70568064063038        0.48031059513120
C            1.29333414609303        1.95562292342218       -0.84875964964750
C            1.46658566916110        3.22442849589788       -1.37303262957094
C            1.95193440242250        4.24998961167478       -0.58061449304248
C            2.26311420371067        4.00784230498508        0.74776642830060
C            2.08316723943868        2.74480401478690        1.27636760824755
C           -0.72985050135110       -1.08225970538566        0.05590169683504
P           -1.45873643397646       -0.28312838559380        1.52954555168751
C           -3.20458531986891       -0.82727652756800        1.38026018323267
C           -4.28073343306984        0.04471596115532        1.26715766056547
C           -5.57450736610342       -0.44667016845138        1.24841949236837
C           -5.80847037108585       -1.80692652878853        1.35618674186679
C           -4.74186548881697       -2.68071974491984        1.49883129635440
C           -3.45026414079886       -2.19226013845869        1.52328442324350
C           -1.57995651530456        1.41716668402888        0.85262386164475
C           -1.22494045541278        2.47628638006014        1.67823852648798
C           -1.26800055381848        3.77524989514923        1.20487483436431
C           -1.66402880029688        4.02175429371374       -0.09802564229153
C           -2.02388451220194        2.96899592999482       -0.92438190776723
C           -1.98201624551635        1.67033660140841       -0.45418180424890
C           -1.38504958527434       -1.81464208499040       -0.92129032968939
C           -0.68411244198988       -2.37402507693539       -1.98095126912010
C           -1.41414040613773       -3.16460827824898       -3.02335892903785
H            1.36510270929363       -3.87816094071210       -3.21167333003081
H            2.53723136043332       -2.56001834094311       -3.10263271022444
H            1.12359588256941       -2.41241349171872       -4.15412234326064
H            2.42696614635752       -1.32067209438158       -1.14953918563394
H            2.33450978857091       -2.45117872756604        1.94912138822930
H            4.56345963122078       -3.51350620856154        2.01961843128550
H            6.56700801622874       -2.20574512238426        1.40830353622385
H            6.33435522581263        0.15426821376214        0.73351486251982
H            4.11834304624458        1.20910967841888        0.65221553788511
H            0.90936890083313        1.16253812984753       -1.47446579494155
H            1.21921669720141        3.41273849982798       -2.40801215230047
H            2.08407219919964        5.23850024705855       -0.99576188204950
H            2.63896239629794        4.80688529667383        1.37070304570638
H            2.31048239050408        2.54831727051728        2.31637315918631
H           -4.10708859351782        1.10879426754522        1.18819255463676
H           -6.40527439013009        0.23778439295005        1.15081097134909
H           -6.81996828770624       -2.18589469144879        1.33830765017439
H           -4.92071309117235       -3.74209390095135        1.59711265494513
H           -2.61233193953207       -2.86709275363926        1.64633941586954
H           -0.90975725238130        2.27026621860302        2.69210031492296
H           -0.98637595360637        4.59525699119684        1.84935150454706
H           -1.69132638195374        5.03468121986287       -0.47251342422403
H           -2.33467458686092        3.16293900270580       -1.94127934678451
H           -2.25963396035593        0.84793938680998       -1.09987090623587
H           -2.45542310469447       -1.96046975750302       -0.86095991519226
H           -2.47837780739380       -3.20040230624445       -2.80408219559397
H           -1.03430494037424       -4.18513150658341       -3.06526689964684
H           -1.27697527553635       -2.72100487710103       -4.00935380655032

          :  Hamiltonian                  GFN2-xTB          :
         :: gradient norm              0.000066848485 Eh/a0 ::
         :: HOMO-LUMO gap              3.047519946139 eV    ::
         :: SCC energy               -89.423240280061 Eh    ::
         :: -> dispersion             -0.095229606178 Eh    ::
         :: repulsion energy           1.624622063502 Eh    ::

    * Orbital Energies and Occupations

         #    Occupation            Energy/Eh            Energy/eV
      -------------------------------------------------------------
         1        2.0000           -0.6651123             -18.0986
       ...           ...                  ...                  ...
        71        2.0000           -0.4098963             -11.1538
        72        2.0000           -0.4084129             -11.1135
        73        2.0000           -0.4063147             -11.0564
        74        2.0000           -0.4042551             -11.0003
        75        2.0000           -0.4031068             -10.9691
        76        2.0000           -0.4008151             -10.9067
        77        2.0000           -0.4000431             -10.8857
        78        2.0000           -0.3995210             -10.8715
        79        2.0000           -0.3957635             -10.7693
        80        2.0000           -0.3940630             -10.7230
        81        2.0000           -0.3889425             -10.5837
        82        2.0000           -0.3728684             -10.1463
        83        2.0000           -0.3539301              -9.6309 (HOMO)
        84                         -0.2419357              -6.5834 (LUMO)
        85                         -0.2388379              -6.4991
        86                         -0.2334730              -6.3531
        87                         -0.2303705              -6.2687
        88                         -0.2254786              -6.1356
        89                         -0.2249703              -6.1218
        90                         -0.2223822              -6.0513
        91                         -0.2205171              -6.0006
        92                         -0.2195860              -5.9752
        93                         -0.2184376              -5.9440
        94                         -0.1680353              -4.5725
       ...                                ...                  ...
       174                          1.1974289              32.5837
      -------------------------------------------------------------
                  HL-Gap            0.1119943 Eh            3.0475 eV

     #   Z          covCN         q      C6AA      α(0)
     1   6 C        3.758    -0.105    22.556     6.771
     2   6 C        2.969     0.006    27.894     8.663
     3   6 C        2.961    -0.039    28.968     8.828
     4   6 C        3.067     0.011    27.693     8.629
     5  15 P        3.855    -0.117   165.537    23.112
     6   6 C        2.917     0.021    27.545     8.606
     7   6 C        3.031    -0.025    28.598     8.772
     8   6 C        2.918    -0.029    28.727     8.789
     9   6 C        2.920    -0.030    28.753     8.793
    10   6 C        2.920    -0.029    28.737     8.791
    11   6 C        2.956    -0.030    28.739     8.793
    12   6 C        2.918     0.023    27.488     8.598
    13   6 C        2.963    -0.026    28.649     8.779
    14   6 C        2.920    -0.029    28.721     8.788
    15   6 C        2.920    -0.030    28.743     8.792
    16   6 C        2.918    -0.030    28.750     8.793
    17   6 C        3.027    -0.026    28.619     8.775
    18   6 C        3.051     0.014    27.652     8.624
    19  15 P        3.843    -0.133   166.267    23.163
    20   6 C        2.916     0.020    27.560     8.609
    21   6 C        2.964    -0.028    28.704     8.788
    22   6 C        2.919    -0.029    28.736     8.791
    23   6 C        2.920    -0.031    28.762     8.795
    24   6 C        2.918    -0.030    28.758     8.794
    25   6 C        3.017    -0.026    28.629     8.777
    26   6 C        2.919     0.026    27.420     8.587
    27   6 C        3.007    -0.024    28.587     8.771
    28   6 C        2.919    -0.029    28.716     8.788
    29   6 C        2.921    -0.028    28.702     8.786
    30   6 C        2.920    -0.030    28.744     8.792
    31   6 C        2.973    -0.025    28.617     8.775
    32   6 C        2.952    -0.042    29.046     8.840
    33   6 C        2.970     0.007    27.866     8.659
    34   6 C        3.758    -0.105    22.558     6.771
    35   1 H        0.925     0.045     2.377     2.411
    36   1 H        0.925     0.040     2.445     2.445
    37   1 H        0.925     0.045     2.387     2.416
    38   1 H        0.925     0.034     2.527     2.486
    39   1 H        0.925     0.039     2.457     2.451
    40   1 H        0.926     0.031     2.576     2.510
    41   1 H        0.926     0.030     2.593     2.518
    42   1 H        0.926     0.029     2.599     2.521
    43   1 H        0.926     0.033     2.539     2.492
    44   1 H        0.926     0.031     2.572     2.508
    45   1 H        0.926     0.028     2.609     2.526
    46   1 H        0.926     0.030     2.586     2.515
    47   1 H        0.926     0.031     2.568     2.506
    48   1 H        0.925     0.041     2.440     2.443
    49   1 H        0.926     0.031     2.570     2.507
    50   1 H        0.926     0.028     2.618     2.530
    51   1 H        0.926     0.028     2.615     2.529
    52   1 H        0.926     0.028     2.609     2.526
    53   1 H        0.925     0.037     2.487     2.466
    54   1 H        0.925     0.047     2.362     2.403
    55   1 H        0.926     0.030     2.580     2.512
    56   1 H        0.926     0.029     2.597     2.520
    57   1 H        0.926     0.029     2.604     2.524
    58   1 H        0.925     0.035     2.520     2.482
    59   1 H        0.925     0.036     2.507     2.476
    60   1 H        0.925     0.040     2.443     2.444
    61   1 H        0.925     0.046     2.373     2.409
    62   1 H        0.925     0.045     2.386     2.415

molecular dipole:
                 x           y           z       tot (Debye)
 q only:        0.143      -0.100      -0.789
   full:        0.117      -0.042      -1.379       3.519

 projected vibrational frequencies (cm⁻¹)
eigval :       -0.00     0.00     0.00     0.00     0.00     0.00
eigval :       16.39    22.25    24.67    31.03    38.47    42.75
eigval :       47.32    52.37    55.00    64.72    67.15    79.67
eigval :       91.53   112.39   120.20   151.83   160.24   183.41
eigval :      187.05   189.12   193.93   215.92   222.57   236.13
eigval :      241.16   244.53   269.07   302.66   348.79   359.38
eigval :      360.70   361.75   364.86   366.92   392.02   396.14
eigval :      407.22   413.99   423.18   438.77   453.78   457.86
eigval :      465.80   490.00   510.40   559.92   575.86   585.63
eigval :      586.00   586.28   587.75   655.10   655.63   656.33
eigval :      656.89   662.04   677.26   683.37   691.91   694.30
eigval :      696.93   735.26   738.99   740.19   742.55   803.36
eigval :      854.74   872.25   874.03   876.11   876.92   887.53
eigval :      895.69   897.69   899.69   900.08   924.27   925.86
eigval :      927.25   928.37   930.33   931.61   932.20   932.66
eigval :      942.06   968.07   968.88   969.30   970.01  1011.08
eigval :     1018.91  1022.04  1033.12  1080.62  1081.73  1081.85
eigval :     1082.58  1109.71  1111.62  1115.92  1116.35  1118.39
eigval :     1118.48  1118.90  1119.68  1141.78  1154.45  1180.46
eigval :     1181.12  1181.45  1182.74  1194.36  1198.40  1198.81
eigval :     1200.51  1250.67  1272.51  1274.75  1275.52  1277.33
eigval :     1277.98  1316.18  1316.51  1317.84  1318.54  1321.70
eigval :     1384.91  1404.42  1410.13  1421.58  1422.01  1424.17
eigval :     1426.20  1452.22  1452.41  1453.84  1454.32  1455.52
eigval :     1475.12  1480.30  1489.25  1492.39  1552.53  1575.93
eigval :     1576.48  1578.79  1579.34  1580.78  1585.84  1586.51
eigval :     1588.16  1588.66  2996.37  2998.07  3009.17  3014.80
eigval :     3043.25  3044.85  3046.59  3048.79  3050.61  3057.01
eigval :     3059.59  3060.50  3062.17  3065.74  3067.54  3067.84
eigval :     3070.54  3070.88  3073.04  3073.82  3076.70  3077.38
eigval :     3079.75  3080.27  3086.98  3087.60  3088.16  3089.12

   temp. (K)  partition function   enthalpy   heat capacity  entropy
                                   cal/mol     cal/K/mol   cal/K/mol   J/K/mol
 298.15  VIB  0.296E+15            18337.563    110.917    115.458
         ROT  0.245E+08              888.752      2.981     36.792
         INT  0.724E+22            19226.315    113.898    152.250
         TR   0.100E+29             1481.254      4.968     44.339
         TOT                       20707.5693   118.8665   196.5897   822.5313

       T/K    H(0)-H(T)+PV         H(T)/Eh          T*S/Eh         G(T)/Eh
   ------------------------------------------------------------------------
    298.15    0.329996E-01    0.519720E+00    0.934061E-01    0.426314E+00
   ------------------------------------------------------------------------

         :::::::::::::::::::::::::::::::::::::::::::::::::::::
         ::                  THERMODYNAMIC                  ::
         :::::::::::::::::::::::::::::::::::::::::::::::::::::
         :: total free energy         -87.372303960173 Eh   ::
         ::.................................................::
         :: total energy              -87.798618216558 Eh   ::
         :: zero point energy           0.486720748578 Eh   ::
         :: G(RRHO) w/o ZPVE           -0.060406492194 Eh   ::
         :: G(RRHO) contrib.            0.426314256384 Eh   ::
         :::::::::::::::::::::::::::::::::::::::::::::::::::::

           -------------------------------------------------
          | TOTAL ENERGY              -87.798618216558 Eh   |
          | TOTAL ENTHALPY            -87.278897855734 Eh   |
          | TOTAL FREE ENERGY         -87.372303960173 Eh   |
          | GRADIENT NORM               0.000066846258 Eh/α |
          | HOMO-LUMO GAP               3.047521025280 eV   |
           -------------------------------------------------

 * finished run on 2025/08/30 at 19:42:51.983
