   * xtb version 6.7.1 (edcfbbe) compiled by 'albert@albert-system' on 2024-07-22

   ID    Z sym.   atoms
    1    6 C      1-4, 6-18, 20-34
    2   15 P      5, 19
    3    1 H      35-62

          program call               : xtb data2507/gas/dpmb/dpmb_gas_T1_crest.xyz --gfn 2 --spinpol --tblite --uhf 2 --ohess vtight --parallel 40 --molden --ceasefiles --namespace data2507/gas/dpmb/dpmb_gas_T1_finalOpt
 * total energy  :   -87.7080205 Eh     change       -0.5259324E-08 Eh
 * total energy  :   -87.7080267 Eh     change       -0.6193956E-05 Eh
 * total energy  :   -87.7080281 Eh     change       -0.1373171E-05 Eh
 * total energy  :   -87.7080290 Eh     change       -0.8847505E-06 Eh
 * total energy  :   -87.7080299 Eh     change       -0.9014412E-06 Eh
 * total energy  :   -87.7080309 Eh     change       -0.1059842E-05 Eh
 * total energy  :   -87.7080319 Eh     change       -0.9822236E-06 Eh
 * total energy  :   -87.7080327 Eh     change       -0.8217521E-06 Eh
 * total energy  :   -87.7080333 Eh     change       -0.5909380E-06 Eh
 * total energy  :   -87.7080337 Eh     change       -0.4077589E-06 Eh
 * total energy  :   -87.7080349 Eh     change       -0.1898551E-06 Eh
 * total energy  :   -87.7080351 Eh     change       -0.2837703E-06 Eh
 * total energy  :   -87.7080353 Eh     change       -0.1677417E-06 Eh
 * total energy  :   -87.7080354 Eh     change       -0.1384211E-06 Eh
 * total energy  :   -87.7080355 Eh     change       -0.1000948E-06 Eh
 * total energy  :   -87.7080357 Eh     change       -0.1772017E-06 Eh
 * total energy  :   -87.7080359 Eh     change       -0.1576604E-06 Eh
 * total energy  :   -87.7080360 Eh     change       -0.1474423E-06 Eh
 * total energy  :   -87.7080360 Eh     change       -0.6681105E-08 Eh
   *** GEOMETRY OPTIMIZATION CONVERGED AFTER 22 ITERATIONS ***

 final structure:
================
62
 xtb: 6.7.1 (edcfbbe)
C            1.43536425842936       -0.04859134787787       -4.77354115089446
C            0.69385050866308       -0.03402001132409       -3.47193159935794
C            1.39116214726331       -0.01431067020282       -2.28110050701646
C            0.70261393664059        0.02318940526242       -1.07399692944397
P            1.25892628921215       -0.18208324418364        0.61888907220299
C            1.28400076566969       -1.96496109723159        0.92318361552055
C            0.19602262522293       -2.57546813872974        1.55237528649169
C            0.09738735991191       -3.95072384874731        1.59354708628464
C            1.07254173836554       -4.73745398563516        0.99721642081957
C            2.14838587223982       -4.13538442520376        0.35282012970382
C            2.25241185593459       -2.76333055419997        0.30152270311897
C            2.98552988174455        0.35367626971284        0.67392500130851
C            3.33397441502699        1.52473382786324       -0.00509530356523
C            4.60756264370403        2.04025920111092        0.11573470123792
C            5.53243614028644        1.42520247284815        0.94875675866317
C            5.17125163193935        0.29592397357089        1.67169920737901
C            3.90013546829358       -0.22738654274635        1.55548075984055
C           -0.71575437141061       -0.04453075140384       -1.06724763388418
P           -1.25690419890911        0.18694341748084        0.62728442481969
C           -2.98918289395073       -0.32991547690341        0.69902220077257
C           -3.89665763429387        0.28007022137515        1.56813783626213
C           -5.17312562525764       -0.22713977819037        1.69681026855256
C           -5.54687237475089       -1.36834300269625        0.99945714121436
C           -4.62934233589292       -2.01145522128760        0.17966129431444
C           -3.35057969845799       -1.51199036057778        0.04637185312771
C           -1.26446161389495        1.97449844762846        0.90660248297739
C           -0.17540460642104        2.58248336436398        1.53600100333207
C           -0.06337530327078        3.95720672222962        1.55975015418152
C           -1.02615355530148        4.74536768803630        0.94561797596805
C           -2.10331602212517        4.14545797936133        0.30148849620061
C           -2.22050786637887        2.77384904697564        0.26773771577804
C           -1.41482456729772       -0.02970062311647       -2.26851739982431
C           -0.72799064819458       -0.03292361496127       -3.46572428272876
C           -1.48097939007177       -0.04411821435236       -4.76076420060211
H            2.50901259481989       -0.05974880926866       -4.60233583969980
H            1.18968388702660        0.83151304330112       -5.36821998456033
H            1.16936077113642       -0.92806170998271       -5.35969175652675
H            2.47363901750411       -0.00787063683708       -2.28585060072888
H           -0.55491342890954       -1.95739502904867        2.03242774255786
H           -0.74119826510660       -4.41513576221812        2.09255860709691
H            0.99452223666972       -5.81383802011386        1.02784702253277
H            2.90370004659141       -4.74821718165975       -0.11847103909944
H            3.07951816372776       -2.29217622685683       -0.21263388107836
H            2.59772488422513        2.00675706233901       -0.63515178102450
H            4.88263826690538        2.93119377921738       -0.43056820212114
H            6.52627690125907        1.83540673017267        1.04914909081949
H            5.88600466864801       -0.17024121012377        2.33470126966511
H            3.60965196215591       -1.10165713770643        2.12265571226913
H           -3.59665890262787        1.16366343266187        2.11552358608468
H           -5.88235175109094        0.26129989387907        2.34963579058066
H           -6.54490107250205       -1.76566912461126        1.10963286143362
H           -4.91426747162364       -2.91139546112774       -0.34646166114940
H           -2.62008630703784       -2.01536366677230       -0.57366486663415
H            0.56546268667341        1.96363598303614        2.03039137606646
H            0.77608941029098        4.41987359766949        2.05888626979052
H           -0.93749727246101        5.82123954654791        0.96231888489599
H           -2.84900554967094        4.75937117389970       -0.18350902142179
H           -3.04843021863286        2.30378631104082       -0.24616857854863
H           -2.49730364184285       -0.03620462713934       -2.26380715650028
H           -1.24091449451733       -0.93622292366961       -5.33967216930592
H           -1.21990076204490        0.82315186434383       -5.36696891276386
H           -2.55306939243491       -0.02897106702135       -4.58030844968674

 projected vibrational frequencies (cm⁻¹)
eigval :       -0.00    -0.00    -0.00     0.00     0.00     0.00
eigval :       12.55    21.27    27.49    30.18    40.05    40.64
eigval :       47.66    50.26    62.35    63.05    68.16    76.04
eigval :      101.38   121.17   132.68   134.45   148.31   175.15
eigval :      177.44   182.30   188.38   197.74   219.67   231.43
eigval :      245.75   251.21   273.47   305.59   306.78   315.86
eigval :      364.55   365.20   370.15   371.30   380.11   383.83
eigval :      385.67   403.33   412.91   427.75   428.74   435.80
eigval :      436.48   485.73   503.01   514.24   564.76   582.49
eigval :      582.86   583.45   583.46   620.85   632.55   634.92
eigval :      640.34   642.02   678.55   680.76   691.00   701.38
eigval :      718.03   721.22   724.47   736.33   737.90   778.65
eigval :      842.43   849.44   850.03   867.43   869.59   873.53
eigval :      873.89   881.56   890.43   892.17   914.91   915.05
eigval :      917.50   917.77   924.58   924.80   926.28   926.55
eigval :      931.37   960.93   961.22   966.28   967.04  1010.79
eigval :     1016.33  1021.34  1024.22  1029.46  1060.56  1063.59
eigval :     1070.80  1071.49  1072.64  1073.93  1081.43  1101.85
eigval :     1113.83  1114.25  1116.08  1116.76  1148.69  1176.54
eigval :     1176.62  1178.59  1178.75  1190.27  1190.45  1192.46
eigval :     1193.87  1230.57  1240.23  1261.90  1262.24  1268.91
eigval :     1268.99  1323.12  1323.45  1326.30  1327.64  1349.29
eigval :     1363.74  1402.45  1408.70  1411.56  1412.19  1418.15
eigval :     1419.91  1422.78  1425.88  1429.49  1433.90  1436.35
eigval :     1470.63  1474.76  1485.65  1490.11  1502.41  1517.33
eigval :     1521.76  1523.39  1541.49  1541.78  1549.15  1550.73
eigval :     1560.85  1574.92  2989.99  2990.24  3003.59  3010.45
eigval :     3012.77  3013.46  3040.48  3041.60  3048.60  3049.14
eigval :     3052.83  3053.20  3055.61  3055.85  3058.81  3058.98
eigval :     3070.98  3071.16  3072.68  3072.82  3074.54  3074.72
eigval :     3077.17  3077.25  3090.70  3090.79  3091.10  3091.83

   temp. (K)  partition function   enthalpy   heat capacity  entropy
                                   cal/mol     cal/K/mol   cal/K/mol   J/K/mol
 298.15  VIB  0.515E+15            18652.865    112.806    117.468
         ROT  0.253E+08              888.752      2.981     36.858
         INT  0.130E+23            19541.617    115.787    154.326
         TR   0.100E+29             1481.254      4.968     44.339
         TOT                       21022.8709   120.7548   198.6650   831.2144

       T/K    H(0)-H(T)+PV         H(T)/Eh          T*S/Eh         G(T)/Eh
   ------------------------------------------------------------------------
    298.15    0.335021E-01    0.515899E+00    0.943922E-01    0.421507E+00
   ------------------------------------------------------------------------

         :::::::::::::::::::::::::::::::::::::::::::::::::::::
         ::                  THERMODYNAMIC                  ::
         :::::::::::::::::::::::::::::::::::::::::::::::::::::
         :: total free energy         -87.286529413781 Eh   ::
         ::.................................................::
         :: total energy              -87.708036036069 Eh   ::
         :: zero point energy           0.482396699769 Eh   ::
         :: G(RRHO) w/o ZPVE           -0.060890077481 Eh   ::
         :: G(RRHO) contrib.            0.421506622288 Eh   ::
         :::::::::::::::::::::::::::::::::::::::::::::::::::::

           -------------------------------------------------
          | TOTAL ENERGY              -87.708036036069 Eh   |
          | TOTAL ENTHALPY            -87.192137258980 Eh   |
          | TOTAL FREE ENERGY         -87.286529413781 Eh   |
          | GRADIENT NORM               0.000035300677 Eh/α |
           -------------------------------------------------

 * finished run on 2025/08/30 at 19:47:13.600
