   * xtb version 6.7.1 (edcfbbe) compiled by 'albert@albert-system' on 2024-07-22

   ID    Z sym.   atoms
    1    6 C      1-4, 6-18, 20-34
    2   15 P      5, 19
    3    1 H      35-62

          program call               : xtb data2507/gas/dpmb/dpmb_gas_S0_crest.xyz --gfn 2 --ohess vtight --parallel 40 --molden --ceasefiles --namespace data2507/gas/dpmb/dpmb_gas_S0_finalOpt
          :  Hamiltonian                  GFN2-xTB          :
 * total energy  :   -87.7986114 Eh     change       -0.4140048E-08 Eh
 * total energy  :   -87.7986124 Eh     change       -0.1007826E-05 Eh
 * total energy  :   -87.7986135 Eh     change       -0.1051691E-05 Eh
 * total energy  :   -87.7986148 Eh     change       -0.1389303E-05 Eh
 * total energy  :   -87.7986160 Eh     change       -0.1142271E-05 Eh
 * total energy  :   -87.7986165 Eh     change       -0.5489143E-06 Eh
 * total energy  :   -87.7986168 Eh     change       -0.2563634E-06 Eh
 * total energy  :   -87.7986171 Eh     change       -0.2587722E-06 Eh
 * total energy  :   -87.7986173 Eh     change       -0.2670724E-06 Eh
 * total energy  :   -87.7986176 Eh     change       -0.3188391E-06 Eh
 * total energy  :   -87.7986180 Eh     change       -0.3794860E-06 Eh
 * total energy  :   -87.7986183 Eh     change       -0.2498233E-06 Eh
 * total energy  :   -87.7986183 Eh     change       -0.2021137E-07 Eh
   *** GEOMETRY OPTIMIZATION CONVERGED AFTER 13 ITERATIONS ***

 final structure:
================
62
 xtb: 6.7.1 (edcfbbe)
C            1.71728590734118       -3.50132534756447       -2.90391825195567
C            0.91645636854488       -2.65934676046777       -1.95823644164591
C            1.56397669023912       -1.87946911215934       -1.00975144828480
C            0.84336250461839       -1.09494560424164       -0.12333916911016
P            1.49777853157118       -0.02007849248043        1.20239232852928
C            3.29251683310133       -0.37988695136781        1.07519338930520
C            3.69775124033730       -1.67444217136489        1.39737674213255
C            5.03702765779601       -2.01192777066466        1.40004407939266
C            5.99227140487558       -1.05181693351437        1.10481690716722
C            5.59972544132485        0.24437631284771        0.81767121778044
C            4.25795005894054        0.58367294597572        0.80904406500790
C            1.41344602060523        1.57189468830212        0.29565823075439
C            1.75850996055519        1.68220331759162       -1.04683120665450
C            1.64640007640961        2.89960455551889       -1.69069559059983
C            1.18896112044759        4.01260538051528       -1.00314734270822
C            0.84909170767322        3.90893628937527        0.33430410292512
C            0.95976886967914        2.69139788981813        0.98133694182899
C           -0.55080589347202       -1.08654376638937       -0.19125601378880
P           -1.35011874589849        0.00784827758485        1.02698967886245
C           -2.98307931746203       -0.82610872653612        1.13273861957584
C           -4.19425666469040       -0.27048443174940        0.74084207818224
C           -5.36872922572678       -0.98530395350547        0.90401066269261
C           -5.34749111103614       -2.25150143122391        1.46288399376939
C           -4.14337451737609       -2.80635103180031        1.86787008526345
C           -2.97079156342788       -2.09436903858094        1.71100528898438
C           -1.78460555451724        1.44891816892261       -0.01602551064023
C           -2.35560583427869        2.53446824420323        0.64456158943934
C           -2.68300208228925        3.68381712613902       -0.04744671465019
C           -2.42769161568534        3.76633929990390       -1.40687835646039
C           -1.85024995468850        2.69529695869052       -2.06618400846799
C           -1.52867754825944        1.53906622836952       -1.37732878690789
C           -1.20146507318250       -1.86406501648288       -1.13653326883576
C           -0.48236109149466       -2.65479946055520       -2.02127288600836
C           -1.20283262635656       -3.49380706591413       -3.03182437971082
H            1.45784669825663       -4.55389039166713       -2.79318092930462
H            2.78171241903995       -3.38565390641392       -2.71522392465342
H            1.51459584462884       -3.21867555461313       -3.93680560715463
H            2.64486834381235       -1.89314101156783       -0.96397372261597
H            2.94634345554722       -2.41600610570074        1.63845985670993
H            5.33979545174824       -3.02181356307310        1.63803029843607
H            7.04065834811719       -1.31246637483897        1.10768651598959
H            6.34336931153971        0.99805611726443        0.60055786033478
H            3.96035300147394        1.59949023705056        0.58953246645544
H            2.11240989303967        0.81235159687929       -1.58385841055478
H            1.91309003738519        2.98228319255526       -2.73487454501165
H            1.09645047603012        4.96057836210753       -1.51283107093208
H            0.49144144513248        4.77573966509470        0.87080858512241
H            0.68991184830693        2.59609863270556        2.02430995877476
H           -4.22201786489549        0.71548831496914        0.29948254716132
H           -6.30654746424376       -0.54935957577881        0.58988241760510
H           -6.26723071614177       -2.80453790510537        1.58612883934891
H           -4.12278758564645       -3.79227048404248        2.30969198124479
H           -2.02598132310544       -2.51717311351334        2.02850412353184
H           -2.53866701499144        2.46468987200150        1.70920671497242
H           -3.13057070441700        4.51931273885199        0.47160296495967
H           -2.67523656892810        4.66661621036506       -1.95018988574852
H           -1.64655668917712        2.75975451155767       -3.12551288045433
H           -1.07359609683090        0.70994807453905       -1.90021955381556
H           -2.28272761889363       -1.85771826200772       -1.18233851048352
H           -0.96266918321410       -4.54798115732060       -2.89563342395083
H           -0.90841889021829       -3.21618990243626       -4.04380821971401
H           -2.27858116587285       -3.36908889135728       -2.93689292751634

          :  Hamiltonian                  GFN2-xTB          :
         :: gradient norm              0.000155745200 Eh/a0 ::
         :: HOMO-LUMO gap              3.044985827489 eV    ::
         :: SCC energy               -89.423242314117 Eh    ::
         :: -> dispersion             -0.095243767331 Eh    ::
         :: repulsion energy           1.624624027334 Eh    ::

    * Orbital Energies and Occupations

         #    Occupation            Energy/Eh            Energy/eV
      -------------------------------------------------------------
         1        2.0000           -0.6651056             -18.0984
       ...           ...                  ...                  ...
        71        2.0000           -0.4099188             -11.1545
        72        2.0000           -0.4085723             -11.1178
        73        2.0000           -0.4062990             -11.0560
        74        2.0000           -0.4042431             -11.0000
        75        2.0000           -0.4031123             -10.9692
        76        2.0000           -0.4008138             -10.9067
        77        2.0000           -0.3999976             -10.8845
        78        2.0000           -0.3994270             -10.8690
        79        2.0000           -0.3957558             -10.7691
        80        2.0000           -0.3941108             -10.7243
        81        2.0000           -0.3889486             -10.5838
        82        2.0000           -0.3728207             -10.1450
        83        2.0000           -0.3539369              -9.6311 (HOMO)
        84                         -0.2420357              -6.5861 (LUMO)
        85                         -0.2388081              -6.4983
        86                         -0.2335335              -6.3548
        87                         -0.2302395              -6.2651
        88                         -0.2254532              -6.1349
        89                         -0.2250290              -6.1234
        90                         -0.2224356              -6.0528
        91                         -0.2205199              -6.0007
        92                         -0.2195775              -5.9750
        93                         -0.2183700              -5.9422
        94                         -0.1680099              -4.5718
       ...                                ...                  ...
       174                          1.1988474              32.6223
      -------------------------------------------------------------
                  HL-Gap            0.1119012 Eh            3.0450 eV

     #   Z          covCN         q      C6AA      α(0)
     1   6 C        3.758    -0.105    22.557     6.771
     2   6 C        2.970     0.007    27.866     8.659
     3   6 C        2.952    -0.042    29.046     8.840
     4   6 C        3.052     0.014    27.651     8.624
     5  15 P        3.843    -0.133   166.266    23.163
     6   6 C        2.916     0.020    27.560     8.609
     7   6 C        3.017    -0.026    28.629     8.777
     8   6 C        2.918    -0.030    28.758     8.794
     9   6 C        2.920    -0.031    28.762     8.795
    10   6 C        2.919    -0.029    28.735     8.791
    11   6 C        2.964    -0.028    28.704     8.788
    12   6 C        2.919     0.026    27.420     8.587
    13   6 C        2.973    -0.025    28.617     8.775
    14   6 C        2.920    -0.030    28.744     8.792
    15   6 C        2.921    -0.028    28.703     8.786
    16   6 C        2.919    -0.029    28.716     8.788
    17   6 C        3.007    -0.024    28.588     8.771
    18   6 C        3.066     0.011    27.693     8.629
    19  15 P        3.855    -0.117   165.535    23.112
    20   6 C        2.917     0.021    27.545     8.606
    21   6 C        2.956    -0.030    28.739     8.793
    22   6 C        2.920    -0.029    28.736     8.791
    23   6 C        2.920    -0.030    28.753     8.793
    24   6 C        2.918    -0.029    28.728     8.789
    25   6 C        3.031    -0.025    28.599     8.772
    26   6 C        2.918     0.023    27.488     8.598
    27   6 C        3.027    -0.026    28.619     8.775
    28   6 C        2.918    -0.030    28.750     8.793
    29   6 C        2.920    -0.030    28.743     8.792
    30   6 C        2.920    -0.029    28.722     8.788
    31   6 C        2.963    -0.026    28.649     8.779
    32   6 C        2.960    -0.039    28.969     8.828
    33   6 C        2.969     0.006    27.894     8.663
    34   6 C        3.758    -0.105    22.556     6.771
    35   1 H        0.925     0.046     2.373     2.409
    36   1 H        0.925     0.040     2.443     2.444
    37   1 H        0.925     0.045     2.386     2.416
    38   1 H        0.925     0.036     2.507     2.476
    39   1 H        0.925     0.037     2.487     2.466
    40   1 H        0.926     0.028     2.609     2.526
    41   1 H        0.926     0.028     2.615     2.529
    42   1 H        0.926     0.028     2.618     2.530
    43   1 H        0.926     0.031     2.570     2.507
    44   1 H        0.925     0.035     2.520     2.482
    45   1 H        0.926     0.029     2.604     2.524
    46   1 H        0.926     0.029     2.597     2.520
    47   1 H        0.926     0.030     2.580     2.512
    48   1 H        0.925     0.047     2.363     2.404
    49   1 H        0.926     0.033     2.539     2.492
    50   1 H        0.926     0.029     2.599     2.521
    51   1 H        0.926     0.030     2.593     2.518
    52   1 H        0.926     0.031     2.576     2.510
    53   1 H        0.925     0.039     2.457     2.451
    54   1 H        0.925     0.041     2.439     2.442
    55   1 H        0.926     0.031     2.568     2.506
    56   1 H        0.926     0.030     2.586     2.515
    57   1 H        0.926     0.028     2.608     2.526
    58   1 H        0.926     0.031     2.571     2.507
    59   1 H        0.925     0.034     2.527     2.486
    60   1 H        0.925     0.045     2.377     2.411
    61   1 H        0.925     0.045     2.387     2.416
    62   1 H        0.925     0.040     2.445     2.445

molecular dipole:
                 x           y           z       tot (Debye)
 q only:       -0.141      -0.225      -0.762
   full:       -0.131      -0.246      -1.355       3.517

 projected vibrational frequencies (cm⁻¹)
eigval :       -0.00    -0.00    -0.00     0.00     0.00     0.00
eigval :       16.13    22.01    24.65    30.99    38.43    42.59
eigval :       47.23    51.95    54.99    64.52    67.57    79.63
eigval :       91.55   112.32   120.33   151.96   160.16   183.44
eigval :      187.04   189.16   193.87   215.98   222.65   235.99
eigval :      241.14   244.45   269.01   302.67   348.68   359.43
eigval :      360.71   361.67   364.79   366.84   392.09   396.11
eigval :      407.16   414.01   423.19   438.80   453.76   457.77
eigval :      465.80   489.99   510.39   559.90   575.91   585.65
eigval :      586.00   586.29   587.77   655.07   655.62   656.33
eigval :      656.89   662.01   677.25   683.39   691.90   694.32
eigval :      696.88   735.17   738.97   740.20   742.53   803.38
eigval :      854.80   872.21   874.01   876.15   876.88   887.57
eigval :      895.69   897.61   899.67   900.04   924.23   925.89
eigval :      927.23   928.35   930.28   931.62   932.18   932.64
eigval :      942.03   968.09   968.88   969.26   970.05  1011.12
eigval :     1018.92  1022.07  1033.14  1080.62  1081.73  1081.82
eigval :     1082.56  1109.73  1111.59  1115.96  1116.35  1118.43
eigval :     1118.57  1118.93  1119.67  1141.70  1154.44  1180.44
eigval :     1181.14  1181.45  1182.77  1194.38  1198.42  1198.87
eigval :     1200.51  1250.70  1272.52  1274.76  1275.54  1277.35
eigval :     1277.94  1316.19  1316.52  1317.76  1318.56  1321.69
eigval :     1384.90  1404.42  1410.16  1421.61  1422.03  1424.14
eigval :     1426.23  1452.25  1452.34  1453.87  1454.38  1455.51
eigval :     1475.14  1480.32  1489.27  1492.42  1552.51  1575.94
eigval :     1576.49  1578.78  1579.34  1580.84  1585.89  1586.52
eigval :     1588.20  1588.69  2996.35  2998.06  3009.13  3014.77
eigval :     3043.15  3044.82  3046.71  3048.76  3050.80  3056.97
eigval :     3059.67  3060.54  3062.19  3065.79  3067.51  3067.82
eigval :     3070.58  3070.88  3073.01  3073.73  3076.75  3077.35
eigval :     3079.71  3080.19  3087.01  3087.56  3088.11  3089.12

   temp. (K)  partition function   enthalpy   heat capacity  entropy
                                   cal/mol     cal/K/mol   cal/K/mol   J/K/mol
 298.15  VIB  0.307E+15            18339.255    110.903    115.481
         ROT  0.245E+08              888.752      2.981     36.792
         INT  0.753E+22            19228.007    113.884    152.273
         TR   0.100E+29             1481.254      4.968     44.339
         TOT                       20709.2612   118.8522   196.6128   822.6279

       T/K    H(0)-H(T)+PV         H(T)/Eh          T*S/Eh         G(T)/Eh
   ------------------------------------------------------------------------
    298.15    0.330023E-01    0.519720E+00    0.934171E-01    0.426303E+00
   ------------------------------------------------------------------------

         :::::::::::::::::::::::::::::::::::::::::::::::::::::
         ::                  THERMODYNAMIC                  ::
         :::::::::::::::::::::::::::::::::::::::::::::::::::::
         :: total free energy         -87.372315030852 Eh   ::
         ::.................................................::
         :: total energy              -87.798618286782 Eh   ::
         :: zero point energy           0.486718032334 Eh   ::
         :: G(RRHO) w/o ZPVE           -0.060414776405 Eh   ::
         :: G(RRHO) contrib.            0.426303255930 Eh   ::
         :::::::::::::::::::::::::::::::::::::::::::::::::::::

           -------------------------------------------------
          | TOTAL ENERGY              -87.798618286782 Eh   |
          | TOTAL ENTHALPY            -87.278897946088 Eh   |
          | TOTAL FREE ENERGY         -87.372315030852 Eh   |
          | GRADIENT NORM               0.000155763917 Eh/α |
          | HOMO-LUMO GAP               3.044986732504 eV   |
           -------------------------------------------------

 * finished run on 2025/08/30 at 19:45:02.944
