   * xtb version 6.7.1 (edcfbbe) compiled by 'albert@albert-system' on 2024-07-22

   ID    Z sym.   atoms
    1    6 C      1-4, 6-18, 20-34
    2   15 P      5, 19
    3    1 H      35-62

          program call               : xtb data2507/gas/dpmb/dpmb_gas_S0_finalOpt.xtbopt.xyz --gfn 2 --spinpol --tblite --uhf 2 --ohess vtight --parallel 40 --molden --ceasefiles --namespace data2507/gas/dpmb/dpmb_gas_T1_preOpt
 * total energy  :   -87.6831570 Eh     change       -0.3970200E-08 Eh
 * total energy  :   -87.6893741 Eh     change       -0.6217025E-02 Eh
 * total energy  :   -87.6914078 Eh     change       -0.2033728E-02 Eh
 * total energy  :   -87.6931835 Eh     change       -0.1775727E-02 Eh
 * total energy  :   -87.6943212 Eh     change       -0.1137697E-02 Eh
 * total energy  :   -87.6952512 Eh     change       -0.9299956E-03 Eh
 * total energy  :   -87.6958314 Eh     change       -0.5802340E-03 Eh
 * total energy  :   -87.6963165 Eh     change       -0.4851043E-03 Eh
 * total energy  :   -87.6967969 Eh     change       -0.4803767E-03 Eh
 * total energy  :   -87.6972260 Eh     change       -0.4290374E-03 Eh
 * total energy  :   -87.7004964 Eh     change       -0.1716783E-05 Eh
 * total energy  :   -87.7004978 Eh     change       -0.1425523E-05 Eh
 * total energy  :   -87.7004988 Eh     change       -0.1054305E-05 Eh
 * total energy  :   -87.7004998 Eh     change       -0.9270662E-06 Eh
 * total energy  :   -87.7005003 Eh     change       -0.4979415E-06 Eh
 * total energy  :   -87.7005005 Eh     change       -0.2721337E-06 Eh
 * total energy  :   -87.7005005 Eh     change        0.3140745E-07 Eh
 * total energy  :   -87.7005007 Eh     change       -0.2185159E-06 Eh
 * total energy  :   -87.7005007 Eh     change       -0.4892385E-08 Eh
   *** GEOMETRY OPTIMIZATION CONVERGED AFTER 65 ITERATIONS ***

 final structure:
================
62
 xtb: 6.7.1 (edcfbbe)
C            1.85711568573303       -3.34728123556771       -3.41664413898275
C            1.00094391589946       -2.63350394142154       -2.41552057596189
C            1.60698197471818       -1.81005135264724       -1.45723526314686
C            0.81111158427558       -1.13415412935273       -0.55191185129430
P            1.24737378127062        0.10090101787127        0.69650383489489
C            2.94367166679004       -0.37034058198919        1.19386556476570
C            3.16585522359551       -1.68541050518226        1.61528743176951
C            4.38993695429104       -2.04831872910914        2.13290495079490
C            5.39257983922569       -1.09682633446571        2.28313859015489
C            5.15913037971995        0.22030815918567        1.91220898069873
C            3.93683535380604        0.59240655290354        1.39089417757262
C            1.38921168382670        1.70744472827367       -0.10398718007303
C            1.50318219352507        1.81304163452776       -1.49663764907777
C            1.46151746320710        3.05278424876326       -2.09483369409109
C            1.29668880501833        4.20164574609921       -1.33096047921846
C            1.17644497492619        4.10118000561872        0.05101934644748
C            1.21008539512336        2.86872906018773        0.66118699519072
C           -0.57388443278943       -1.28524034768465       -0.57203827271912
P           -1.30058718152014       -0.17733911124761        0.66110675932435
C           -2.87041288987162       -1.00286833393940        1.11008980526680
C           -4.05574036471388       -0.27896883870248        1.26205182708323
C           -5.18431755434768       -0.90551965672436        1.74990394527703
C           -5.13736779862845       -2.23917585947349        2.13216242291410
C           -3.94692924858173       -2.94982092904117        2.02677122828278
C           -2.81480425045983       -2.33197333527193        1.54258366318387
C           -1.75829055295491        1.36047772181913       -0.15546689206953
C           -1.87558356803902        2.52880106930839        0.61076857866547
C           -2.09441532226868        3.74027216970556       -0.00332784802735
C           -2.17841962418923        3.81727436947772       -1.38932963984793
C           -2.05086825938459        2.66402143876932       -2.15369307441867
C           -1.83776591406168        1.44381690686398       -1.55177787434834
C           -1.17984926225005       -2.11534770354862       -1.49457334776395
C           -0.38434635944277       -2.78592232460633       -2.43416260544263
C           -1.03862164422529       -3.66578465761233       -3.45514500998373
H            1.71960842686563       -4.42573200188181       -3.34072588205417
H            2.90782188703994       -3.12042220844085       -3.25523313947871
H            1.59028091165894       -3.05205260625306       -4.43136240559270
H            2.68339185223794       -1.71238845292923       -1.42248832636556
H            2.37535145719531       -2.41559743097470        1.49717594183989
H            4.57051961563149       -3.07210009701666        2.42794535571489
H            6.34796456553551       -1.38034546412594        2.69877614748727
H            5.93740808609830        0.96000002304801        2.03543058544046
H            3.75065301040780        1.61559457995066        1.09482377290371
H            1.62787885666541        0.91835728642603       -2.09095761431988
H            1.55605526390153        3.13133594154635       -3.16868742326565
H            1.26241892189892        5.16901301094155       -1.80840210461771
H            1.05164394784897        4.99446247333070        0.64612089569181
H            1.10983022421803        2.77934147225212        1.73481307263294
H           -4.08781092009487        0.75786438185652        0.95681385923867
H           -6.10887229635333       -0.35281008786889        1.83796675496618
H           -6.02119818265320       -2.72136497894121        2.52226879910596
H           -3.90954360565473       -3.98603160061563        2.33132623646686
H           -1.88048123223148       -2.87262179954345        1.45969551905230
H           -1.80123521579798        2.45946544398314        1.68798554886511
H           -2.19692821814728        4.63613312611814        0.59212480468010
H           -2.34270976532417        4.76976642004979       -1.86964380204619
H           -2.11705051067009        2.72409460815593       -3.23082718421099
H           -1.73495875910303        0.54678360735529       -2.14668646827027
H           -2.25244078173894       -2.25287899019650       -1.48904947492462
H           -0.67217400093043       -4.68886690186800       -3.37262480898319
H           -0.81625862292616       -3.31687994852745       -4.46355579965527
H           -2.11733185623506       -3.67309424928946       -3.32159974750845

 projected vibrational frequencies (cm⁻¹)
eigval :       -0.00    -0.00    -0.00     0.00     0.00     0.00
eigval :       18.74    23.34    26.10    33.47    39.19    40.47
eigval :       41.35    44.93    48.71    49.59    55.26    82.79
eigval :       82.98   116.26   135.95   144.94   147.12   157.22
eigval :      163.13   181.52   183.96   200.24   209.76   220.36
eigval :      222.29   225.89   267.13   295.54   304.82   332.51
eigval :      357.11   358.02   361.39   366.32   370.92   375.49
eigval :      391.71   394.12   402.14   425.84   427.40   429.22
eigval :      446.04   455.29   491.61   506.08   565.42   580.65
eigval :      580.77   582.83   583.42   622.73   625.08   632.48
eigval :      634.52   637.35   662.37   668.64   690.08   693.99
eigval :      708.03   712.42   722.87   729.33   729.75   790.54
eigval :      816.02   844.54   852.56   856.75   859.98   861.21
eigval :      864.10   869.35   880.63   881.05   911.79   913.32
eigval :      914.01   916.60   916.90   918.07   920.87   921.15
eigval :      927.49   960.34   960.70   962.33   962.94  1001.71
eigval :     1005.18  1018.62  1030.50  1034.97  1044.39  1065.18
eigval :     1069.36  1070.88  1071.43  1078.25  1086.26  1113.30
eigval :     1113.53  1114.02  1114.18  1116.14  1149.82  1175.77
eigval :     1177.21  1177.54  1178.39  1189.20  1190.28  1193.19
eigval :     1197.18  1213.86  1247.76  1266.27  1266.86  1268.94
eigval :     1269.91  1325.19  1325.29  1327.44  1329.05  1342.89
eigval :     1350.22  1401.98  1409.15  1409.73  1414.13  1415.09
eigval :     1415.82  1419.93  1425.86  1426.58  1430.80  1431.77
eigval :     1438.87  1473.79  1485.21  1488.13  1491.28  1502.41
eigval :     1514.70  1525.00  1525.68  1533.48  1542.48  1547.59
eigval :     1550.71  1577.30  2993.13  2995.71  3007.20  3012.48
eigval :     3045.29  3046.34  3046.65  3047.29  3050.99  3053.99
eigval :     3060.56  3061.88  3062.51  3063.23  3063.57  3063.72
eigval :     3071.25  3072.14  3072.42  3073.06  3073.70  3076.19
eigval :     3076.34  3077.04  3090.77  3091.55  3091.73  3094.56

   temp. (K)  partition function   enthalpy   heat capacity  entropy
                                   cal/mol     cal/K/mol   cal/K/mol   J/K/mol
 298.15  VIB  0.115E+16            18926.822    112.796    119.109
         ROT  0.252E+08              888.752      2.981     36.850
         INT  0.291E+23            19815.575    115.777    155.959
         TR   0.100E+29             1481.254      4.968     44.339
         TOT                       21296.8287   120.7449   200.2987   838.0497

       T/K    H(0)-H(T)+PV         H(T)/Eh          T*S/Eh         G(T)/Eh
   ------------------------------------------------------------------------
    298.15    0.339387E-01    0.515186E+00    0.951684E-01    0.420017E+00
   ------------------------------------------------------------------------

         :::::::::::::::::::::::::::::::::::::::::::::::::::::
         ::                  THERMODYNAMIC                  ::
         :::::::::::::::::::::::::::::::::::::::::::::::::::::
         :: total free energy         -87.280483252335 Eh   ::
         ::.................................................::
         :: total energy              -87.700500750046 Eh   ::
         :: zero point energy           0.481247213787 Eh   ::
         :: G(RRHO) w/o ZPVE           -0.061229716076 Eh   ::
         :: G(RRHO) contrib.            0.420017497711 Eh   ::
         :::::::::::::::::::::::::::::::::::::::::::::::::::::

           -------------------------------------------------
          | TOTAL ENERGY              -87.700500750046 Eh   |
          | TOTAL ENTHALPY            -87.185314879372 Eh   |
          | TOTAL FREE ENERGY         -87.280483252335 Eh   |
          | GRADIENT NORM               0.000170461405 Eh/α |
           -------------------------------------------------

 * finished run on 2025/08/30 at 19:45:11.301
