   * xtb version 6.7.1 (edcfbbe) compiled by 'albert@albert-system' on 2024-07-22

   ID    Z sym.   atoms
    1    7 N      1, 19
    2    6 C      2-18, 20-41
    3    1 H      42-65

          program call               : xtb data2507/toluene/pCzAnBzt/pCzAnBzt.xyz --gfn 2 --gbsa toluene --ohess vtight --parallel 40 --molden --ceasefiles --namespace data2507/toluene/pCzAnBzt/pCzAnBzt_toluene_S0_preOpt
      * Solvation model:               GBSA
        Solvent                        toluene
        Solvent mass                       9.2140E+01 g/mol
          :  Hamiltonian                  GFN2-xTB          :
 * total energy  :  -101.6178622 Eh     change       -0.1168672E-08 Eh
 * total energy  :  -101.6324506 Eh     change       -0.1458841E-01 Eh
 * total energy  :  -101.6357565 Eh     change       -0.3305876E-02 Eh
 * total energy  :  -101.6361263 Eh     change       -0.3698357E-03 Eh
 * total energy  :  -101.6363701 Eh     change       -0.2437295E-03 Eh
 * total energy  :  -101.6364705 Eh     change       -0.1004252E-03 Eh
 * total energy  :  -101.6365573 Eh     change       -0.8682305E-04 Eh
 * total energy  :  -101.6366215 Eh     change       -0.6414565E-04 Eh
 * total energy  :  -101.6366628 Eh     change       -0.4131024E-04 Eh
 * total energy  :  -101.6367074 Eh     change       -0.4467021E-04 Eh
 * total energy  :  -101.6369978 Eh     change       -0.2187105E-06 Eh
 * total energy  :  -101.6369980 Eh     change       -0.2201659E-06 Eh
 * total energy  :  -101.6369983 Eh     change       -0.2254320E-06 Eh
 * total energy  :  -101.6369985 Eh     change       -0.2243183E-06 Eh
 * total energy  :  -101.6369987 Eh     change       -0.2317152E-06 Eh
 * total energy  :  -101.6369990 Eh     change       -0.2344610E-06 Eh
 * total energy  :  -101.6369992 Eh     change       -0.2281500E-06 Eh
 * total energy  :  -101.6369994 Eh     change       -0.2175771E-06 Eh
 * total energy  :  -101.6369994 Eh     change       -0.1143391E-08 Eh
   *** GEOMETRY OPTIMIZATION CONVERGED AFTER 152 ITERATIONS ***

 final structure:
================
65
 xtb: 6.7.1 (edcfbbe)
N          -10.88488421611479        0.00909904544444        0.00276066257562
C           -9.73650705717797        0.00712410476336        0.00211289603111
C           -8.32517187584352        0.00474088695939        0.00143962605827
C           -7.62552347607773        0.11663469707593        1.20540430679345
C           -6.24576147971990        0.11259304619526        1.19780888030482
C           -5.54018928258290        0.00062736416762        0.00015676591734
C           -4.06250762369473       -0.00099013181054       -0.00036841824416
C           -3.36478154997237        1.08353373866204       -0.55330115629455
C           -4.03567481075198        2.21514691457177       -1.08884612639440
C           -3.34498763521828        3.26237461596012       -1.61709149869518
C           -1.93558961993237        3.25091061167537       -1.63241214433279
C           -1.25359284483146        2.19476342209571       -1.11158631192111
C           -1.93471714735239        1.07856490489203       -0.55729564266140
C           -1.23946636732149       -0.00330324954143       -0.00009818708332
C            0.24099386364069       -0.00401695127254        0.00018189878190
C            0.94774240406606       -0.28101894618678       -1.16619455439784
C            2.32936078261596       -0.27892538078972       -1.17035257660356
C            3.03044535745663       -0.00256053081187        0.00005688731412
N            4.43448034119615       -0.00076077434942       -0.00007067931139
C            5.24376824959264       -1.01792234432420       -0.46482218922684
C            4.89588461135712       -2.25861092056717       -0.98091336454420
C            5.91650983463308       -3.11218046015601       -1.35395707319128
C            7.25525674353716       -2.75110129361810       -1.21295186925717
C            7.60788435239963       -1.52742595673441       -0.67921082426470
C            6.59960007618953       -0.65180902095219       -0.29624676365181
C            6.59768690278690        0.65673102325076        0.29597093052319
C            7.60339091340057        1.53535363803309        0.67885380542503
C            7.24715251870332        2.75801508080275        1.21251986336410
C            5.90734449209408        3.11516919990699        1.35347653324417
C            4.88923856514139        2.25855820223926        0.98052153581255
C            5.24079178661347        1.01883464253216        0.46458728749987
C            2.32914729596228        0.27246424695291        1.17065384306332
C            0.94752980889102        0.27313137577193        1.16664452972939
C           -1.93656741056208       -1.08410818417779        0.55677425375175
C           -1.25734007882947       -2.20139237849418        1.11119514869173
C           -1.94116511145468       -3.25659269883839        1.63155079848323
C           -3.35058149398287       -3.26591079335379        1.61562930605710
C           -4.03948369479083       -2.21746500139942        1.08746705773073
C           -3.36664446389400       -1.08676918002126        0.55242542521297
C           -6.24717615907328       -0.10940842679859       -1.19683231037387
C           -7.62695526177768       -0.10931353913862       -1.20315258522625
H           -8.17083041559966        0.20610031627738        2.13367876557577
H           -5.70174395040753        0.20289528768905        2.12655028310714
H           -5.11500341564309        2.23705716690198       -1.06536711026556
H           -3.87194940425409        4.11443954380971       -2.02140593085289
H           -1.40354121669015        4.09242290152585       -2.05165626947615
H           -0.17376711874452        2.19174527269947       -1.10730128432847
H            0.40669028088536       -0.49541822555146       -2.07646578929407
H            2.87224352271517       -0.47931288587437       -2.08212984047876
H            3.86227860103080       -2.55394681060716       -1.08052790725790
H            5.67147691796491       -4.08237013157563       -1.76149425524613
H            8.02462024319335       -3.44493302511562       -1.51902979135612
H            8.64547468715122       -1.25430841678769       -0.55660538617108
H            8.64178155166943        1.26530861966532        0.55621902554922
H            8.01445776691324        3.45414098217361        1.51856302134122
H            5.65945263921669        4.08467869526436        1.76090148898422
H            3.85475274750045        2.55085892009924        1.08007817056751
H            2.87193642289346        0.47340314330780        2.08236516920542
H            0.40635410802708        0.48698371821409        2.07697187157784
H           -0.17750187659933       -2.19992401081904        1.10732485916239
H           -1.41060719145086       -4.09901410511442        2.05086330602942
H           -3.87901010223020       -4.11730302458069        2.01944428832333
H           -5.11883945494191       -2.23776019474456        1.06354467278754
H           -5.70429565888694       -0.20133877756062       -2.12607918069603
H           -8.17336692303381       -0.19718955791127       -2.13092914347799

          :  Hamiltonian                  GFN2-xTB          :
         :: gradient norm              0.000067336795 Eh/a0 ::
         :: HOMO-LUMO gap              2.028071659316 eV    ::
         :: SCC energy              -103.630422241125 Eh    ::
         :: -> dispersion             -0.091918539095 Eh    ::
         :: -> Gsolv                  -0.045263477302 Eh    ::
         :: repulsion energy           1.993422843001 Eh    ::

    * Orbital Energies and Occupations

         #    Occupation            Energy/Eh            Energy/eV
      -------------------------------------------------------------
         1        2.0000           -0.6761916             -18.4001
       ...           ...                  ...                  ...
        83        2.0000           -0.4224697             -11.4960
        84        2.0000           -0.4190404             -11.4027
        85        2.0000           -0.4190261             -11.4023
        86        2.0000           -0.4148531             -11.2887
        87        2.0000           -0.4129944             -11.2382
        88        2.0000           -0.4101406             -11.1605
        89        2.0000           -0.4092932             -11.1374
        90        2.0000           -0.4052375             -11.0271
        91        2.0000           -0.4047017             -11.0125
        92        2.0000           -0.4038467             -10.9892
        93        2.0000           -0.3786522             -10.3037
        94        2.0000           -0.3648929              -9.9292
        95        2.0000           -0.3617890              -9.8448 (HOMO)
        96                         -0.2872588              -7.8167 (LUMO)
        97                         -0.2725998              -7.4178
        98                         -0.2462771              -6.7015
        99                         -0.2429953              -6.6122
       100                         -0.2360278              -6.4226
       101                         -0.2351438              -6.3986
       102                         -0.2331142              -6.3434
       103                         -0.2246402              -6.1128
       104                         -0.2220652              -6.0427
       105                         -0.2135998              -5.8123
       106                         -0.1915007              -5.2110
       ...                                ...                  ...
       188                          1.1580769              31.5129
      -------------------------------------------------------------
                  HL-Gap            0.0745303 Eh            2.0281 eV

     #   Z          covCN         q      C6AA      α(0)
     1   7 N        0.911    -0.276    27.139     7.534
     2   6 C        1.912     0.118    28.193     8.575
     3   6 C        2.973     0.014    27.708     8.634
     4   6 C        2.924    -0.019    28.480     8.752
     5   6 C        2.922    -0.027    28.676     8.782
     6   6 C        2.976     0.029    27.349     8.578
     7   6 C        2.976    -0.008    28.205     8.712
     8   6 C        2.983     0.008    27.840     8.655
     9   6 C        2.917    -0.036    28.885     8.813
    10   6 C        2.914    -0.029    28.729     8.789
    11   6 C        2.914    -0.030    28.740     8.791
    12   6 C        2.917    -0.034    28.845     8.807
    13   6 C        2.984     0.007    27.855     8.657
    14   6 C        2.977    -0.003    28.092     8.694
    15   6 C        2.976     0.014    27.689     8.631
    16   6 C        2.924    -0.031    28.772     8.796
    17   6 C        2.921    -0.042    29.054     8.839
    18   6 C        2.912     0.062    26.607     8.458
    19   7 N        2.802    -0.047    22.150     6.990
    20   6 C        3.076     0.047    26.856     8.497
    21   6 C        2.909    -0.052    29.293     8.875
    22   6 C        2.924    -0.035    28.877     8.812
    23   6 C        2.919    -0.043    29.066     8.841
    24   6 C        2.912    -0.035    28.872     8.811
    25   6 C        3.067    -0.019    28.412     8.740
    26   6 C        3.067    -0.019    28.412     8.740
    27   6 C        2.912    -0.035    28.872     8.811
    28   6 C        2.919    -0.043    29.066     8.841
    29   6 C        2.924    -0.035    28.877     8.812
    30   6 C        2.909    -0.052    29.293     8.875
    31   6 C        3.076     0.047    26.856     8.497
    32   6 C        2.921    -0.042    29.054     8.839
    33   6 C        2.924    -0.031    28.772     8.796
    34   6 C        2.984     0.007    27.855     8.657
    35   6 C        2.917    -0.034    28.845     8.807
    36   6 C        2.914    -0.030    28.740     8.791
    37   6 C        2.914    -0.029    28.729     8.789
    38   6 C        2.917    -0.036    28.885     8.813
    39   6 C        2.983     0.008    27.840     8.655
    40   6 C        2.922    -0.027    28.676     8.782
    41   6 C        2.924    -0.019    28.480     8.752
    42   1 H        0.926     0.043     2.409     2.427
    43   1 H        0.926     0.047     2.353     2.399
    44   1 H        0.926     0.032     2.563     2.503
    45   1 H        0.926     0.032     2.554     2.499
    46   1 H        0.926     0.033     2.551     2.498
    47   1 H        0.926     0.034     2.534     2.489
    48   1 H        0.926     0.040     2.452     2.449
    49   1 H        0.926     0.042     2.416     2.431
    50   1 H        0.926     0.030     2.593     2.518
    51   1 H        0.926     0.029     2.594     2.519
    52   1 H        0.926     0.027     2.629     2.536
    53   1 H        0.926     0.029     2.597     2.520
    54   1 H        0.926     0.029     2.597     2.520
    55   1 H        0.926     0.027     2.629     2.536
    56   1 H        0.926     0.029     2.594     2.519
    57   1 H        0.926     0.030     2.593     2.518
    58   1 H        0.926     0.042     2.416     2.431
    59   1 H        0.926     0.040     2.452     2.449
    60   1 H        0.926     0.034     2.534     2.489
    61   1 H        0.926     0.033     2.551     2.498
    62   1 H        0.926     0.032     2.554     2.499
    63   1 H        0.926     0.032     2.563     2.503
    64   1 H        0.926     0.047     2.352     2.398
    65   1 H        0.926     0.043     2.409     2.427

molecular dipole:
                 x           y           z       tot (Debye)
 q only:        1.124      -0.004      -0.001
   full:        1.470      -0.004      -0.001       3.737

 projected vibrational frequencies (cm⁻¹)
eigval :       -0.00    -0.00    -0.00    -0.00     0.00     0.00
eigval :        8.12     9.20    12.87    32.30    34.40    43.43
eigval :       61.71    65.52    70.73    75.72   102.59   103.74
eigval :      108.86   115.36   129.68   140.07   178.50   184.20
eigval :      184.39   209.95   215.30   227.77   259.58   266.40
eigval :      271.39   307.65   342.73   360.94   376.48   380.95
eigval :      388.25   389.95   396.82   411.67   413.96   426.04
eigval :      430.01   439.89   446.58   455.15   455.73   497.60
eigval :      518.30   519.29   531.48   534.00   537.53   542.81
eigval :      575.55   580.05   585.59   588.39   593.57   608.58
eigval :      611.26   624.15   639.20   651.58   670.60   685.88
eigval :      691.01   692.25   703.16   704.69   733.14   739.74
eigval :      756.36   768.45   771.86   772.81   779.78   785.64
eigval :      814.10   819.64   865.81   867.87   870.67   872.13
eigval :      874.38   880.17   895.99   898.67   900.45   901.57
eigval :      901.85   915.02   916.59   918.68   919.37   920.66
eigval :      924.10   924.75   925.55   926.25   929.76   931.34
eigval :      933.14   951.74  1010.96  1016.89  1024.12  1068.76
eigval :     1072.21  1080.07  1080.98  1115.36  1131.39  1132.15
eigval :     1133.39  1142.97  1150.16  1173.90  1178.82  1179.23
eigval :     1180.85  1182.86  1185.61  1195.38  1206.16  1216.97
eigval :     1227.69  1235.48  1241.42  1244.78  1257.50  1259.55
eigval :     1263.94  1266.22  1298.44  1300.29  1306.36  1307.11
eigval :     1323.09  1347.07  1354.18  1359.17  1359.98  1376.99
eigval :     1382.43  1391.21  1400.61  1416.45  1426.78  1427.30
eigval :     1429.01  1442.98  1469.89  1473.74  1486.47  1487.19
eigval :     1498.79  1524.55  1527.65  1540.00  1544.65  1558.93
eigval :     1572.43  1584.25  1586.89  1595.42  1597.02  1606.57
eigval :     1613.06  1620.98  2360.42  3070.53  3070.83  3072.06
eigval :     3072.09  3075.82  3076.56  3077.62  3078.37  3078.54
eigval :     3079.57  3080.22  3081.53  3083.14  3084.13  3088.14
eigval :     3088.36  3090.15  3090.90  3091.10  3092.20  3092.53
eigval :     3092.62  3093.32  3094.58

   temp. (K)  partition function   enthalpy   heat capacity  entropy
                                   cal/mol     cal/K/mol   cal/K/mol   J/K/mol
 298.15  VIB  0.305E+15            18305.016    117.480    114.342
         ROT  0.277E+08              888.752      2.981     37.034
         INT  0.843E+22            19193.768    120.461    151.375
         TR   0.115E+29             1481.254      4.968     44.616
         TOT                       20675.0220   125.4289   195.9909   820.0261

       T/K    H(0)-H(T)+PV         H(T)/Eh          T*S/Eh         G(T)/Eh
   ------------------------------------------------------------------------
    298.15    0.329477E-01    0.526577E+00    0.931216E-01    0.433455E+00
   ------------------------------------------------------------------------

         :::::::::::::::::::::::::::::::::::::::::::::::::::::
         ::                  THERMODYNAMIC                  ::
         :::::::::::::::::::::::::::::::::::::::::::::::::::::
         :: total free energy        -101.203544009866 Eh   ::
         ::.................................................::
         :: total energy             -101.636999401887 Eh   ::
         :: zero point energy           0.493629263719 Eh   ::
         :: G(RRHO) w/o ZPVE           -0.060173871697 Eh   ::
         :: G(RRHO) contrib.            0.433455392022 Eh   ::
         :::::::::::::::::::::::::::::::::::::::::::::::::::::

           -------------------------------------------------
          | TOTAL ENERGY             -101.636999401887 Eh   |
          | TOTAL ENTHALPY           -101.110422393410 Eh   |
          | TOTAL FREE ENERGY        -101.203544009866 Eh   |
          | GRADIENT NORM               0.000067337810 Eh/α |
          | HOMO-LUMO GAP               2.028071693816 eV   |
           -------------------------------------------------

 * finished run on 2025/09/09 at 21:20:44.902
