   * xtb version 6.7.1 (edcfbbe) compiled by 'albert@albert-system' on 2024-07-22

   ID    Z sym.   atoms
    1    7 N      1, 19
    2    6 C      2-18, 20-41
    3    1 H      42-65

          program call               : xtb data2507/toluene/pCzAnBzt/pCzAnBzt_toluene_S0_finalOpt.xtbopt.xyz --gfn 2 --uhf 2 --gbsa toluene --ohess vtight --parallel 40 --molden --ceasefiles --namespace data2507/toluene/pCzAnBzt/pCzAnBzt_toluene_T1_preOpt
      * Solvation model:               GBSA
        Solvent                        toluene
        Solvent mass                       9.2140E+01 g/mol
          :  Hamiltonian                  GFN2-xTB          :
 * total energy  :  -101.5607274 Eh     change       -0.9816333E-08 Eh
 * total energy  :  -101.5661343 Eh     change       -0.5406839E-02 Eh
 * total energy  :  -101.5676018 Eh     change       -0.1467533E-02 Eh
 * total energy  :  -101.5678326 Eh     change       -0.2307910E-03 Eh
 * total energy  :  -101.5681719 Eh     change       -0.3392608E-03 Eh
 * total energy  :  -101.5684220 Eh     change       -0.2501291E-03 Eh
 * total energy  :  -101.5686621 Eh     change       -0.2401091E-03 Eh
 * total energy  :  -101.5688908 Eh     change       -0.2286653E-03 Eh
 * total energy  :  -101.5690515 Eh     change       -0.1607227E-03 Eh
 * total energy  :  -101.5691530 Eh     change       -0.1014852E-03 Eh
 * total energy  :  -101.5707314 Eh     change       -0.4867048E-06 Eh
 * total energy  :  -101.5707319 Eh     change       -0.4673511E-06 Eh
 * total energy  :  -101.5707323 Eh     change       -0.4625870E-06 Eh
 * total energy  :  -101.5707328 Eh     change       -0.4451174E-06 Eh
 * total energy  :  -101.5707332 Eh     change       -0.4423741E-06 Eh
 * total energy  :  -101.5707337 Eh     change       -0.4301099E-06 Eh
 * total energy  :  -101.5707341 Eh     change       -0.4211158E-06 Eh
 * total energy  :  -101.5707345 Eh     change       -0.4175245E-06 Eh
 * total energy  :  -101.5707345 Eh     change       -0.4180450E-08 Eh
   *** GEOMETRY OPTIMIZATION CONVERGED AFTER 152 ITERATIONS ***

 final structure:
================
65
 xtb: 6.7.1 (edcfbbe)
N          -10.65755816330030       -0.00408038109264        0.00558285419854
C           -9.50623210141597       -0.00357159547820        0.00507381767937
C           -8.10193644477947       -0.00296458875554        0.00444902094680
C           -7.39290908842765       -0.69206357007348        0.99865552502880
C           -6.01888370427515       -0.69772931880927        0.98671310338477
C           -5.29527954936182       -0.00181920902167        0.00315282302551
C           -3.84314713969562       -0.00128857952920        0.00249013413236
C           -3.12824306481567        1.23728263681948       -0.03819646806998
C           -3.78616788071697        2.47089993269931        0.02099945730502
C           -3.09709198875773        3.67159429423112       -0.11065919304146
C           -1.73176182041729        3.65824919110198       -0.31617150943689
C           -1.04393930381013        2.45030823557440       -0.31067547278948
C           -1.70258389646621        1.23210387504492       -0.10552664568996
C           -0.98866790606109       -0.00032576511775        0.00145380656931
C            0.46645556493549        0.00013054155764        0.00096035735590
C            1.19066258181388       -0.79649718070918       -0.89680784885549
C            2.56743782964426       -0.78769526153370       -0.90829877223919
C            3.27597404104675        0.00079646349116        0.00016414093545
N            4.67349559369108        0.00108379689113       -0.00021556889253
C            5.48308104632168       -1.11933705157949       -0.02693380476962
C            5.13666314126120       -2.46346553107308       -0.00250956862217
C            6.15843568269649       -3.39470134023782       -0.00854152271150
C            7.49619253518784       -3.00671846296096       -0.02642719019384
C            7.84804303184184       -1.67035872359822       -0.02093996600966
C            6.83890284000081       -0.71719739628895       -0.01602891094436
C            6.83863268703315        0.72020204264722        0.01429679946500
C            7.84740785806043        1.67375217093688        0.01857540090605
C            7.49504602162424        3.00997613791512        0.02423526511668
C            6.15712886814037        3.39744162837947        0.00714033170090
C            5.13571064451977        2.46581243987333        0.00176130847561
C            5.48266154411250        1.12181833763583        0.02600374134069
C            2.56757936053174        0.78898760556077        0.90899611093852
C            1.19079091296865        0.79713132577482        0.89829111478171
C           -1.70167354396961       -1.23324127986798        0.10890949144090
C           -1.04207965497761       -2.45100949010252        0.31360457593856
C           -1.72908309956507       -3.65941520921981        0.31948100664892
C           -3.09453140985969       -3.67367466511107        0.11481876100306
C           -3.78450402609883       -2.47343282702888       -0.01628603536406
C           -3.12737242154333       -1.23937779938922        0.04256535818873
C           -6.02035205084944        0.69350664855696       -0.97973518693341
C           -7.39438547323517        0.68671530054688       -0.99040502527835
H           -7.93799100214882       -1.21132298626592        1.77406716584461
H           -5.48039741472316       -1.20975758458363        1.77075692792118
H           -4.85339614007892        2.49738713945024        0.17873365822505
H           -3.63778996677177        4.60532514968617       -0.06708581225928
H           -1.19077009891641        4.58097585809152       -0.46539704429763
H            0.02254316940198        2.45488900908102       -0.47441881901932
H            0.65431314068379       -1.38825677734680       -1.62393048608116
H            3.10700063019820       -1.37049449974163       -1.63977267120344
H            4.10470907046875       -2.77735223093895        0.03237452537003
H            5.91356704629313       -4.44673682843104        0.00523566562072
H            8.26614642695896       -3.76414687091534       -0.03374146580966
H            8.88507228264088       -1.36992247848521       -0.01558891326231
H            8.88454904352049        1.37371407891034        0.01261983928226
H            8.26471067851689        3.76770289750062        0.03106393855040
H            5.91184918202206        4.44938304739486       -0.00652168758626
H            4.10361482142121        2.77930152632760       -0.03251098891423
H            3.10728386714520        1.37204543961430        1.64016024462537
H            0.65457611735691        1.38862696431675        1.62572656054691
H            0.02450692616591       -2.45487960694686        0.47668200533241
H           -1.18737351711065       -4.58178332876787        0.46831953430757
H           -3.63462667953856       -4.60776722989976        0.07151781072120
H           -4.85181818932934       -2.50062217118415       -0.17332472463274
H           -5.48302251447051        1.20595292965335       -1.76429889308636
H           -7.94061698022328        1.20550838034438       -1.76532024365020

          :  Hamiltonian                  GFN2-xTB          :
         :: gradient norm              0.000054687412 Eh/a0 ::
         :: HOMO-LUMO gap              0.826281997752 eV    ::
         :: SCC energy              -103.544570244222 Eh    ::
         :: -> dispersion             -0.092281858012 Eh    ::
         :: -> Gsolv                  -0.045857801777 Eh    ::
         :: repulsion energy           1.973835735847 Eh    ::

    * Orbital Energies and Occupations

         #    Occupation            Energy/Eh            Energy/eV
      -------------------------------------------------------------
         1        2.0000           -0.6817733             -18.5520
       ...           ...                  ...                  ...
        84        2.0000           -0.4221843             -11.4882
        85        2.0000           -0.4196783             -11.4200
        86        2.0000           -0.4168390             -11.3428
        87        2.0000           -0.4121840             -11.2161
        88        2.0000           -0.4097390             -11.1496
        89        2.0000           -0.4092201             -11.1354
        90        2.0000           -0.4052177             -11.0265
        91        2.0000           -0.4034225             -10.9777
        92        2.0000           -0.4021378             -10.9427
        93        2.0000           -0.3834184             -10.4333
        94        1.9994           -0.3685360             -10.0284
        95        1.0006           -0.3545265              -9.6472
        96        1.0000           -0.2958933              -8.0517 (HOMO)
        97        0.0000           -0.2655280              -7.2254 (LUMO)
        98                         -0.2506304              -6.8200
        99                         -0.2391158              -6.5067
       100                         -0.2349205              -6.3925
       101                         -0.2344112              -6.3787
       102                         -0.2315990              -6.3021
       103                         -0.2269264              -6.1750
       104                         -0.2265824              -6.1656
       105                         -0.2054388              -5.5903
       106                         -0.1977439              -5.3809
       107                         -0.1907338              -5.1901
       ...                                ...                  ...
       188                          1.1617329              31.6124
      -------------------------------------------------------------
                  HL-Gap            0.0303653 Eh            0.8263 eV

     #   Z          covCN         q      C6AA      α(0)
     1   7 N        0.911    -0.300    27.723     7.615
     2   6 C        1.911     0.113    28.320     8.594
     3   6 C        2.972     0.004    27.925     8.668
     4   6 C        2.921    -0.023    28.582     8.767
     5   6 C        2.921    -0.031    28.765     8.795
     6   6 C        2.972     0.020    27.569     8.613
     7   6 C        2.972    -0.007    28.189     8.709
     8   6 C        2.977     0.008    27.827     8.653
     9   6 C        2.921    -0.036    28.892     8.815
    10   6 C        2.914    -0.032    28.791     8.799
    11   6 C        2.914    -0.029    28.735     8.790
    12   6 C        2.921    -0.038    28.938     8.822
    13   6 C        2.977     0.010    27.794     8.648
    14   6 C        2.972    -0.011    28.296     8.725
    15   6 C        2.973     0.016    27.657     8.626
    16   6 C        2.923    -0.031    28.764     8.795
    17   6 C        2.918    -0.043    29.059     8.840
    18   6 C        2.912     0.061    26.629     8.462
    19   7 N        2.801    -0.033    21.886     6.948
    20   6 C        3.072     0.047    26.879     8.501
    21   6 C        2.910    -0.049    29.218     8.863
    22   6 C        2.923    -0.034    28.840     8.807
    23   6 C        2.920    -0.040    28.983     8.828
    24   6 C        2.912    -0.033    28.824     8.804
    25   6 C        3.066    -0.016    28.340     8.729
    26   6 C        3.066    -0.016    28.340     8.729
    27   6 C        2.912    -0.033    28.824     8.804
    28   6 C        2.920    -0.040    28.983     8.828
    29   6 C        2.923    -0.034    28.840     8.807
    30   6 C        2.910    -0.049    29.218     8.863
    31   6 C        3.072     0.047    26.879     8.501
    32   6 C        2.918    -0.043    29.059     8.840
    33   6 C        2.923    -0.031    28.764     8.795
    34   6 C        2.977     0.010    27.794     8.648
    35   6 C        2.921    -0.038    28.938     8.822
    36   6 C        2.914    -0.029    28.735     8.790
    37   6 C        2.914    -0.032    28.791     8.799
    38   6 C        2.921    -0.036    28.892     8.815
    39   6 C        2.977     0.008    27.827     8.653
    40   6 C        2.921    -0.031    28.766     8.795
    41   6 C        2.921    -0.023    28.582     8.767
    42   1 H        0.926     0.035     2.520     2.482
    43   1 H        0.926     0.042     2.418     2.432
    44   1 H        0.926     0.034     2.523     2.484
    45   1 H        0.926     0.032     2.560     2.502
    46   1 H        0.926     0.033     2.537     2.491
    47   1 H        0.926     0.038     2.482     2.464
    48   1 H        0.926     0.044     2.391     2.418
    49   1 H        0.926     0.045     2.379     2.412
    50   1 H        0.926     0.035     2.519     2.482
    51   1 H        0.926     0.033     2.537     2.491
    52   1 H        0.926     0.031     2.568     2.506
    53   1 H        0.926     0.034     2.535     2.490
    54   1 H        0.926     0.034     2.535     2.490
    55   1 H        0.926     0.031     2.568     2.506
    56   1 H        0.926     0.033     2.537     2.491
    57   1 H        0.926     0.035     2.519     2.482
    58   1 H        0.926     0.045     2.379     2.412
    59   1 H        0.926     0.044     2.391     2.418
    60   1 H        0.926     0.038     2.482     2.464
    61   1 H        0.926     0.033     2.537     2.491
    62   1 H        0.926     0.032     2.560     2.502
    63   1 H        0.926     0.034     2.524     2.484
    64   1 H        0.926     0.042     2.418     2.431
    65   1 H        0.926     0.035     2.520     2.482

molecular dipole:
                 x           y           z       tot (Debye)
 q only:        3.403       0.001      -0.001
   full:        3.708       0.001      -0.002       9.424

 projected vibrational frequencies (cm⁻¹)
eigval :       -0.00    -0.00    -0.00    -0.00     0.00     0.00
eigval :        9.65    15.76    16.38    33.82    39.00    54.71
eigval :       60.63    70.92    82.99    91.21   106.30   109.59
eigval :      125.55   131.14   137.63   152.38   179.88   180.91
eigval :      208.32   210.52   228.71   234.14   266.19   269.94
eigval :      270.53   308.37   344.99   367.50   368.53   377.43
eigval :      380.89   390.01   393.61   399.82   412.32   417.75
eigval :      424.73   428.97   440.57   441.47   469.58   497.98
eigval :      517.44   518.10   529.20   535.89   538.63   539.79
eigval :      567.98   574.60   581.12   583.92   587.71   604.50
eigval :      607.04   618.47   627.42   646.19   673.10   675.75
eigval :      680.04   689.18   693.75   707.21   720.38   730.04
eigval :      749.18   756.06   761.59   770.30   779.42   780.53
eigval :      811.73   822.77   845.32   850.71   861.83   866.64
eigval :      874.88   880.92   892.14   894.19   894.86   896.75
eigval :      899.19   904.66   905.25   907.16   907.89   920.74
eigval :      921.90   922.83   923.02   930.80   932.14   939.06
eigval :      945.59   948.71  1007.60  1010.77  1017.14  1069.04
eigval :     1072.22  1102.81  1105.28  1114.75  1117.00  1127.52
eigval :     1131.65  1133.51  1149.01  1173.20  1176.21  1178.35
eigval :     1179.29  1180.27  1182.01  1189.15  1199.27  1208.55
eigval :     1231.49  1232.24  1241.32  1242.40  1254.33  1260.62
eigval :     1264.19  1286.34  1292.90  1295.33  1302.76  1304.77
eigval :     1308.43  1314.84  1336.06  1353.22  1353.46  1354.74
eigval :     1357.36  1366.95  1379.41  1406.92  1409.19  1410.57
eigval :     1416.45  1421.79  1422.30  1458.81  1467.97  1470.55
eigval :     1478.96  1483.76  1494.13  1498.89  1523.61  1527.12
eigval :     1528.17  1543.83  1563.24  1571.08  1571.36  1584.90
eigval :     1590.61  1606.91  2320.56  3073.69  3073.77  3074.07
eigval :     3074.91  3074.93  3075.31  3079.30  3079.96  3080.36
eigval :     3081.37  3083.47  3083.57  3086.09  3087.97  3088.27
eigval :     3089.35  3091.81  3093.57  3094.32  3094.69  3094.79
eigval :     3095.81  3097.73  3098.79

   temp. (K)  partition function   enthalpy   heat capacity  entropy
                                   cal/mol     cal/K/mol   cal/K/mol   J/K/mol
 298.15  VIB  0.395E+14            18206.845    118.726    111.931
         ROT  0.278E+08              888.752      2.981     37.043
         INT  0.110E+22            19095.597    121.707    148.974
         TR   0.115E+29             1481.254      4.968     44.616
         TOT                       20576.8513   126.6748   193.5895   809.9786

       T/K    H(0)-H(T)+PV         H(T)/Eh          T*S/Eh         G(T)/Eh
   ------------------------------------------------------------------------
    298.15    0.327913E-01    0.524363E+00    0.919806E-01    0.432382E+00
   ------------------------------------------------------------------------

         :::::::::::::::::::::::::::::::::::::::::::::::::::::
         ::                  THERMODYNAMIC                  ::
         :::::::::::::::::::::::::::::::::::::::::::::::::::::
         :: total free energy        -101.138352512705 Eh   ::
         ::.................................................::
         :: total energy             -101.570734507633 Eh   ::
         :: zero point energy           0.491571324446 Eh   ::
         :: G(RRHO) w/o ZPVE           -0.059189329517 Eh   ::
         :: G(RRHO) contrib.            0.432381994929 Eh   ::
         :::::::::::::::::::::::::::::::::::::::::::::::::::::

           -------------------------------------------------
          | TOTAL ENERGY             -101.570734507633 Eh   |
          | TOTAL ENTHALPY           -101.046371883458 Eh   |
          | TOTAL FREE ENERGY        -101.138352512705 Eh   |
          | GRADIENT NORM               0.000054687806 Eh/α |
          | HOMO-LUMO GAP               0.826281825657 eV   |
           -------------------------------------------------

 * finished run on 2025/09/09 at 21:26:28.548
