   * xtb version 6.7.1 (edcfbbe) compiled by 'albert@albert-system' on 2024-07-22

   ID    Z sym.   atoms
    1    7 N      1, 19
    2    6 C      2-18, 20-41
    3    1 H      42-65

          program call               : xtb data2507/toluene/pCzAnBzt/pCzAnBzt_toluene_S0_crest.xyz --gfn 2 --gbsa toluene --ohess vtight --parallel 40 --molden --ceasefiles --namespace data2507/toluene/pCzAnBzt/pCzAnBzt_toluene_S0_finalOpt
      * Solvation model:               GBSA
        Solvent                        toluene
        Solvent mass                       9.2140E+01 g/mol
          :  Hamiltonian                  GFN2-xTB          :
 * total energy  :  -101.6370353 Eh     change       -0.9200107E-09 Eh
 * total energy  :  -101.6370606 Eh     change       -0.2537679E-04 Eh
 * total energy  :  -101.6370754 Eh     change       -0.1477398E-04 Eh
 * total energy  :  -101.6370724 Eh     change        0.3018908E-05 Eh
 * total energy  :  -101.6370884 Eh     change       -0.1602434E-04 Eh
 * total energy  :  -101.6370938 Eh     change       -0.5369044E-05 Eh
 * total energy  :  -101.6370966 Eh     change       -0.2820167E-05 Eh
 * total energy  :  -101.6370998 Eh     change       -0.3204273E-05 Eh
 * total energy  :  -101.6371013 Eh     change       -0.1509491E-05 Eh
 * total energy  :  -101.6371022 Eh     change       -0.8882027E-06 Eh
 * total energy  :  -101.6371033 Eh     change       -0.5041069E-06 Eh
 * total energy  :  -101.6371038 Eh     change       -0.4862596E-06 Eh
 * total energy  :  -101.6371042 Eh     change       -0.3775814E-06 Eh
 * total energy  :  -101.6371044 Eh     change       -0.2896057E-06 Eh
 * total energy  :  -101.6371047 Eh     change       -0.2780217E-06 Eh
 * total energy  :  -101.6371051 Eh     change       -0.3390903E-06 Eh
 * total energy  :  -101.6371054 Eh     change       -0.3101948E-06 Eh
 * total energy  :  -101.6371056 Eh     change       -0.1804869E-06 Eh
 * total energy  :  -101.6371056 Eh     change       -0.2369178E-07 Eh
   *** GEOMETRY OPTIMIZATION CONVERGED AFTER 20 ITERATIONS ***

 final structure:
================
65
 xtb: 6.7.1 (edcfbbe)
N          -10.64571557505817        0.00398629663344       -0.01117770883609
C           -9.49736815520479        0.00333325913784       -0.00888175022160
C           -8.08606787841472        0.00226245254509       -0.00590929718525
C           -7.39042800819539       -0.25138607927458        1.17860880288688
C           -6.01056520518510       -0.25323794794100        1.17414720603064
C           -5.30247251730947       -0.00037041080312       -0.00002315019001
C           -3.82430418366627       -0.00177544716692        0.00327317281219
C           -3.12660699361332        1.20368532742621       -0.16179413587403
C           -3.79929679095635        2.44730376477519       -0.29846210364588
C           -3.11054871653885        3.60658198890287       -0.48317866278022
C           -1.70251017595101        3.59492913678059       -0.54639463983242
C           -1.01894347807637        2.42801960750056       -0.39419882206316
C           -1.69667472099908        1.19910738307960       -0.17580513581127
C           -1.00117462085170       -0.00446578638747        0.00930456633088
C            0.47791384388741       -0.00572377946705        0.01026279074285
C            1.18510790177770       -0.56734847014231       -1.04922164404714
C            2.56647071646559       -0.56097134717521       -1.05742211691165
C            3.26815798563629       -0.00362225105533        0.00788609305157
N            4.67163339584058       -0.00084190930838        0.00532898569013
C            5.48117429547332       -1.09867402216803       -0.20669308091957
C            5.13387819565438       -2.42712913536480       -0.40993457604984
C            6.15483205339378       -3.34370691195098       -0.57410490828059
C            7.49324191786939       -2.95744761517639       -0.53102035551652
C            7.84542463051783       -1.64143170641470       -0.30584023431772
C            6.83680267324189       -0.70108286845159       -0.13729438396286
C            6.83435364733547        0.71101525021887        0.12582221873364
C            7.83966057942283        1.65682342182536        0.28327643849978
C            7.48284860256611        2.97111494257089        0.51119385276028
C            6.14291024486848        3.35022826188523        0.56800287274311
C            5.12518289351246        2.42811472646469        0.41508475924611
C            5.47738119517014        1.10142922738762        0.20878344929542
C            2.56749696491732        0.55163196733453        1.07493296216145
C            1.18603954260619        0.55589627765310        1.06910053953103
C           -1.69973856343105       -1.20663414353976        0.19163509747467
C           -1.02516864199772       -2.43680319024907        0.41271528698441
C           -1.71153996107355       -3.60251870566909        0.56144668743902
C           -3.11930548088975       -3.61157890029102        0.49181059461695
C           -3.80515841289639       -2.45096744400216        0.30469021215789
C           -3.12960616587741       -1.20853553031125        0.17144350422446
C           -6.00510301925831        0.25388205798104       -1.17716975119223
C           -7.38495057990896        0.25462326143612       -1.18746252793792
H           -7.93893997385422       -0.44448717304554        2.08906854948301
H           -5.46849839124805       -0.44684389877358        2.08809830616053
H           -4.87810483596334        2.46084096815690       -0.25126840400075
H           -3.63774202246105        4.54394495378668       -0.58601673516435
H           -1.17240148125442        4.52146993330798       -0.71236338585525
H            0.05983543926600        2.41988882246837       -0.43966881887660
H            0.64381161360268       -0.99855460721759       -1.87886213431115
H            3.10884389079513       -0.97666119386460       -1.89355301373072
H            4.10041639517043       -2.73911898031568       -0.42998511255322
H            5.91034350490887       -4.38348365739178       -0.73679762501332
H            8.26277845655909       -3.70329881365732       -0.66709134100318
H            8.88292665345238       -1.34559143626692       -0.25763514368196
H            8.87814949049450        1.36643376706309        0.22434693394065
H            8.24974896178347        3.72122050193392        0.63850257500554
H            5.89457611023027        4.38880368982678        0.73253661833480
H            4.09037100601404        2.73471003363672        0.44565967642462
H            3.11066952693073        0.96817604922370        1.91012532153143
H            0.64553830437019        0.98636758883354        1.89964202163102
H            0.05343044326095       -2.43055369149765        0.46281454368874
H           -1.18391737840242       -4.53014101752532        0.72928854152933
H           -3.64866358904231       -4.54801660085993        0.59191889250857
H           -4.88378359698754       -2.46253496810196        0.25291262646506
H           -5.45883264646167        0.44659560218904       -2.08880473264186
H           -7.92926156536667        0.44879665536113       -2.10021390310862

          :  Hamiltonian                  GFN2-xTB          :
         :: gradient norm              0.000079536553 Eh/a0 ::
         :: HOMO-LUMO gap              2.013619529812 eV    ::
         :: SCC energy              -103.630550983943 Eh    ::
         :: -> dispersion             -0.092100664989 Eh    ::
         :: -> Gsolv                  -0.045219364159 Eh    ::
         :: repulsion energy           1.993445405278 Eh    ::

    * Orbital Energies and Occupations

         #    Occupation            Energy/Eh            Energy/eV
      -------------------------------------------------------------
         1        2.0000           -0.6762844             -18.4026
       ...           ...                  ...                  ...
        83        2.0000           -0.4225698             -11.4987
        84        2.0000           -0.4191400             -11.4054
        85        2.0000           -0.4187596             -11.3950
        86        2.0000           -0.4155690             -11.3082
        87        2.0000           -0.4130083             -11.2385
        88        2.0000           -0.4114897             -11.1972
        89        2.0000           -0.4076324             -11.0922
        90        2.0000           -0.4051935             -11.0259
        91        2.0000           -0.4045016             -11.0070
        92        2.0000           -0.4037301             -10.9861
        93        2.0000           -0.3787585             -10.3065
        94        2.0000           -0.3655003              -9.9458
        95        2.0000           -0.3611447              -9.8272 (HOMO)
        96                         -0.2871456              -7.8136 (LUMO)
        97                         -0.2729988              -7.4287
        98                         -0.2463458              -6.7034
        99                         -0.2431729              -6.6171
       100                         -0.2360033              -6.4220
       101                         -0.2351552              -6.3989
       102                         -0.2329587              -6.3391
       103                         -0.2245847              -6.1113
       104                         -0.2221696              -6.0455
       105                         -0.2136826              -5.8146
       106                         -0.1919854              -5.2242
       ...                                ...                  ...
       188                          1.1581235              31.5141
      -------------------------------------------------------------
                  HL-Gap            0.0739991 Eh            2.0136 eV

     #   Z          covCN         q      C6AA      α(0)
     1   7 N        0.911    -0.276    27.133     7.534
     2   6 C        1.912     0.118    28.192     8.575
     3   6 C        2.973     0.014    27.705     8.634
     4   6 C        2.924    -0.019    28.478     8.751
     5   6 C        2.922    -0.027    28.673     8.781
     6   6 C        2.976     0.029    27.345     8.578
     7   6 C        2.977    -0.008    28.207     8.712
     8   6 C        2.983     0.008    27.842     8.655
     9   6 C        2.917    -0.035    28.882     8.813
    10   6 C        2.914    -0.029    28.731     8.790
    11   6 C        2.914    -0.030    28.743     8.791
    12   6 C        2.917    -0.034    28.847     8.808
    13   6 C        2.983     0.007    27.856     8.658
    14   6 C        2.977    -0.003    28.099     8.695
    15   6 C        2.976     0.014    27.697     8.633
    16   6 C        2.924    -0.031    28.770     8.796
    17   6 C        2.920    -0.043    29.059     8.840
    18   6 C        2.913     0.062    26.604     8.458
    19   7 N        2.802    -0.047    22.144     6.989
    20   6 C        3.076     0.047    26.857     8.497
    21   6 C        2.909    -0.052    29.291     8.874
    22   6 C        2.924    -0.035    28.877     8.812
    23   6 C        2.919    -0.043    29.065     8.841
    24   6 C        2.912    -0.035    28.870     8.811
    25   6 C        3.067    -0.019    28.411     8.740
    26   6 C        3.067    -0.019    28.411     8.740
    27   6 C        2.912    -0.035    28.870     8.811
    28   6 C        2.919    -0.043    29.065     8.841
    29   6 C        2.924    -0.035    28.877     8.812
    30   6 C        2.909    -0.052    29.291     8.875
    31   6 C        3.076     0.047    26.857     8.497
    32   6 C        2.920    -0.043    29.060     8.840
    33   6 C        2.924    -0.031    28.770     8.796
    34   6 C        2.983     0.007    27.856     8.658
    35   6 C        2.917    -0.034    28.847     8.807
    36   6 C        2.914    -0.030    28.743     8.791
    37   6 C        2.914    -0.029    28.731     8.790
    38   6 C        2.917    -0.035    28.882     8.813
    39   6 C        2.983     0.008    27.842     8.655
    40   6 C        2.922    -0.027    28.673     8.781
    41   6 C        2.924    -0.019    28.478     8.751
    42   1 H        0.926     0.043     2.407     2.426
    43   1 H        0.926     0.047     2.355     2.400
    44   1 H        0.926     0.031     2.571     2.507
    45   1 H        0.926     0.032     2.556     2.500
    46   1 H        0.926     0.032     2.552     2.498
    47   1 H        0.926     0.034     2.532     2.488
    48   1 H        0.926     0.040     2.448     2.447
    49   1 H        0.926     0.042     2.416     2.431
    50   1 H        0.926     0.029     2.594     2.519
    51   1 H        0.926     0.030     2.593     2.518
    52   1 H        0.926     0.027     2.628     2.535
    53   1 H        0.926     0.029     2.596     2.520
    54   1 H        0.926     0.029     2.596     2.520
    55   1 H        0.926     0.027     2.628     2.535
    56   1 H        0.926     0.030     2.592     2.518
    57   1 H        0.926     0.029     2.594     2.519
    58   1 H        0.926     0.042     2.416     2.430
    59   1 H        0.926     0.040     2.448     2.447
    60   1 H        0.926     0.034     2.532     2.488
    61   1 H        0.926     0.032     2.552     2.498
    62   1 H        0.926     0.032     2.556     2.500
    63   1 H        0.926     0.031     2.571     2.507
    64   1 H        0.926     0.047     2.355     2.400
    65   1 H        0.926     0.043     2.407     2.426

molecular dipole:
                 x           y           z       tot (Debye)
 q only:        1.136      -0.003       0.006
   full:        1.478      -0.003       0.006       3.757

 projected vibrational frequencies (cm⁻¹)
eigval :       -0.00    -0.00    -0.00     0.00     0.00     0.00
eigval :        9.21    13.06    14.36    31.12    35.12    38.20
eigval :       62.50    65.74    73.15    77.42   103.54   105.55
eigval :      111.35   116.02   130.62   143.60   173.67   182.48
eigval :      192.88   208.44   216.56   225.37   260.27   262.01
eigval :      270.66   307.89   349.49   359.84   379.15   380.33
eigval :      388.35   388.67   396.81   408.14   414.78   426.80
eigval :      435.24   440.34   445.39   452.18   456.47   498.47
eigval :      518.58   518.97   533.76   533.95   540.98   542.41
eigval :      576.45   579.04   585.81   588.11   593.42   607.13
eigval :      611.42   623.23   640.37   651.66   674.46   686.64
eigval :      689.59   692.04   703.06   708.87   733.12   738.50
eigval :      756.64   767.44   772.02   773.45   778.65   785.89
eigval :      812.99   818.45   865.37   867.97   870.69   871.92
eigval :      873.26   879.44   896.96   898.24   900.47   901.15
eigval :      901.74   914.65   916.52   916.95   918.91   919.84
eigval :      923.80   924.36   926.04   926.93   928.19   931.60
eigval :      931.84   952.04  1011.04  1016.67  1023.33  1068.52
eigval :     1071.94  1079.98  1080.93  1115.24  1129.23  1130.93
eigval :     1134.09  1142.90  1150.14  1173.86  1179.30  1179.55
eigval :     1179.85  1182.84  1184.53  1194.53  1206.16  1216.57
eigval :     1226.66  1235.08  1241.18  1244.88  1257.23  1258.87
eigval :     1262.11  1265.18  1298.75  1300.87  1306.40  1307.23
eigval :     1322.86  1347.79  1354.52  1359.26  1360.54  1377.22
eigval :     1382.15  1390.74  1400.25  1416.36  1426.70  1427.28
eigval :     1429.02  1443.02  1469.36  1474.29  1486.73  1487.74
eigval :     1497.63  1525.06  1527.42  1539.99  1544.81  1558.16
eigval :     1573.03  1584.34  1587.25  1593.67  1597.12  1606.63
eigval :     1613.10  1620.92  2360.74  3070.05  3070.37  3071.92
eigval :     3072.12  3075.50  3076.27  3077.55  3077.92  3078.16
eigval :     3079.51  3080.02  3081.34  3083.21  3084.35  3087.33
eigval :     3087.57  3090.06  3090.53  3090.98  3092.04  3092.34
eigval :     3092.53  3093.06  3094.32

   temp. (K)  partition function   enthalpy   heat capacity  entropy
                                   cal/mol     cal/K/mol   cal/K/mol   J/K/mol
 298.15  VIB  0.174E+15            18283.028    117.413    113.539
         ROT  0.276E+08              888.752      2.981     37.032
         INT  0.480E+22            19171.780    120.394    150.571
         TR   0.115E+29             1481.254      4.968     44.616
         TOT                       20653.0342   125.3623   195.1862   816.6590

       T/K    H(0)-H(T)+PV         H(T)/Eh          T*S/Eh         G(T)/Eh
   ------------------------------------------------------------------------
    298.15    0.329127E-01    0.526543E+00    0.927393E-01    0.433803E+00
   ------------------------------------------------------------------------

         :::::::::::::::::::::::::::::::::::::::::::::::::::::
         ::                  THERMODYNAMIC                  ::
         :::::::::::::::::::::::::::::::::::::::::::::::::::::
         :: total free energy        -101.203302198541 Eh   ::
         ::.................................................::
         :: total energy             -101.637105578898 Eh   ::
         :: zero point energy           0.493629927345 Eh   ::
         :: G(RRHO) w/o ZPVE           -0.059826546988 Eh   ::
         :: G(RRHO) contrib.            0.433803380357 Eh   ::
         :::::::::::::::::::::::::::::::::::::::::::::::::::::

           -------------------------------------------------
          | TOTAL ENERGY             -101.637105578898 Eh   |
          | TOTAL ENTHALPY           -101.110562946609 Eh   |
          | TOTAL FREE ENERGY        -101.203302198541 Eh   |
          | GRADIENT NORM               0.000079594081 Eh/α |
          | HOMO-LUMO GAP               2.013618723090 eV   |
           -------------------------------------------------

 * finished run on 2025/09/09 at 21:25:59.045
