   * xtb version 6.7.1 (edcfbbe) compiled by 'albert@albert-system' on 2024-07-22

   ID    Z sym.   atoms
    1    7 N      1, 19
    2    6 C      2-18, 20-41
    3    1 H      42-65

          program call               : xtb data2507/toluene/pCzAnBzt/pCzAnBzt_toluene_T1_crest.xyz --gfn 2 --uhf 2 --gbsa toluene --ohess vtight --parallel 40 --molden --ceasefiles --namespace data2507/toluene/pCzAnBzt/pCzAnBzt_toluene_T1_finalOpt
      * Solvation model:               GBSA
        Solvent                        toluene
        Solvent mass                       9.2140E+01 g/mol
          :  Hamiltonian                  GFN2-xTB          :
 * total energy  :  -101.5707265 Eh     change       -0.1113889E-08 Eh
 * total energy  :  -101.5707532 Eh     change       -0.2677888E-04 Eh
 * total energy  :  -101.5707601 Eh     change       -0.6881574E-05 Eh
 * total energy  :  -101.5707626 Eh     change       -0.2478207E-05 Eh
 * total energy  :  -101.5707632 Eh     change       -0.6200018E-06 Eh
 * total energy  :  -101.5707646 Eh     change       -0.1394616E-05 Eh
 * total energy  :  -101.5707651 Eh     change       -0.5055551E-06 Eh
 * total energy  :  -101.5707657 Eh     change       -0.5652091E-06 Eh
 * total energy  :  -101.5707662 Eh     change       -0.4927575E-06 Eh
 * total energy  :  -101.5707666 Eh     change       -0.4034419E-06 Eh
 * total energy  :  -101.5707684 Eh     change       -0.8190313E-06 Eh
 * total energy  :  -101.5707695 Eh     change       -0.1032197E-05 Eh
 * total energy  :  -101.5707707 Eh     change       -0.1254523E-05 Eh
 * total energy  :  -101.5707720 Eh     change       -0.1304423E-05 Eh
 * total energy  :  -101.5707728 Eh     change       -0.7907363E-06 Eh
 * total energy  :  -101.5707731 Eh     change       -0.2583579E-06 Eh
 * total energy  :  -101.5707728 Eh     change        0.2990784E-06 Eh
 * total energy  :  -101.5707732 Eh     change       -0.4306476E-06 Eh
 * total energy  :  -101.5707733 Eh     change       -0.8726136E-07 Eh
   *** GEOMETRY OPTIMIZATION CONVERGED AFTER 21 ITERATIONS ***

 final structure:
================
65
 xtb: 6.7.1 (edcfbbe)
N          -10.65791604410940        0.01882150585000        0.02896836628494
C           -9.50660235000495        0.01458041218351        0.02087657959457
C           -8.10241250232084        0.00998447129879        0.01216075748180
C           -7.39051100495540       -0.74367804872436        0.95636253690900
C           -6.01665877260216       -0.75107654825818        0.93833543765746
C           -5.29502886948976        0.00403520335631       -0.00247142257304
C           -3.84341794257594        0.00290835127891       -0.00751078343648
C           -3.12631357614116        1.24088108020036        0.01268871626534
C           -3.78153590824334        2.47135568361779        0.13604851766276
C           -3.09148497517327        3.67590524687413        0.05757754111857
C           -1.72766660722731        3.67037661529001       -0.15859281007302
C           -1.04198452050945        2.46260558100584       -0.21385935508456
C           -1.70094255776580        1.23684404210839       -0.06081829712893
C           -0.98779392464832       -0.00000502679823       -0.00948247684458
C            0.46679750731650       -0.00072620283983       -0.00720015559826
C            1.19353177641310       -0.77123559020814       -0.92610192297183
C            2.57027660275703       -0.76517329106400       -0.93209622016882
C            3.27684517845461       -0.00222280205134       -0.00077264155037
N            4.67453527307650       -0.00324522822276        0.00267741247075
C            5.48280364269355       -1.12388502946520       -0.03608935026308
C            5.13387261297762       -2.46750739593598       -0.02994157839605
C            6.15425322381071       -3.40016850250042       -0.04234219944979
C            7.49264713809552       -3.01385907986084       -0.04984141895252
C            7.84666743543922       -1.67820175904808       -0.02806549710477
C            6.83905336246046       -0.72346509951993       -0.01572797289119
C            6.84007074192800        0.71353394936585        0.03214181627210
C            7.84913101181076        1.66665899268515        0.04991642807722
C            7.49714266065233        3.00287601749681        0.07030342564857
C            6.15942159652251        3.39132111699333        0.05613329856799
C            5.13763478183060        2.46029018053187        0.03810326138089
C            5.48437054890696        1.11610513193365        0.04564628602635
C            2.56687154851285        0.76176092971457        0.92713625069702
C            1.19022294630152        0.76932345887698        0.91475021998083
C           -1.70317730455244       -1.23554789370152        0.04070165765202
C           -1.04688367920065       -2.46301599508849        0.19155864922266
C           -1.73542731917194       -3.66912088413357        0.13545061280403
C           -3.09953973271975       -3.67134269651221       -0.07900072501630
C           -3.78697001087872       -2.46511729717162       -0.15479112882267
C           -3.12864591695367       -1.23637072221483       -0.03092535617784
C           -6.02320653435793        0.76081485389649       -0.93684591554530
C           -7.39721789510824        0.75938690027548       -0.94037574408640
H           -7.93307172855309       -1.31109749533431        1.69906358926527
H           -5.47623018301953       -1.31248391893357        1.68637652290043
H           -4.84739966819887        2.49200203639935        0.30335334262917
H           -3.63012419854368        4.60723018092447        0.15021347039548
H           -1.18615175111630        4.59834032067532       -0.26811140564236
H            0.02318128569110        2.47363208948159       -0.38545498097667
H            0.65951650263158       -1.33934209844131       -1.67345820715152
H            3.11199202588748       -1.32924745607365       -1.67665384513507
H            4.10098619448369       -2.77938919429144       -0.00421331804947
H            5.90794662433853       -4.45196005676871       -0.04158919356489
H            8.26149549666174       -3.77235245606763       -0.06211098252893
H            8.88418389114758       -1.37965034487124       -0.01529705393409
H            8.88622460185933        1.36646143867614        0.04230772282320
H            8.26714015964649        3.76012700380776        0.08673713755415
H            5.91478766512506        4.44350159700096        0.05454003536928
H            4.10539557208208        2.77384228478373        0.00725400903460
H            3.10570227710573        1.32536826073699        1.67412150828959
H            0.65332895006157        1.33846835509424        1.65925408539172
H            0.01840790624554       -2.47677046243513        0.36214845865010
H           -1.19586761206469       -4.59844873973719        0.24307220684351
H           -3.64035434380425       -4.60135500709629       -0.17213468981847
H           -4.85321272711263       -2.48293041453994       -0.32015129015165
H           -5.48829575092830        1.31907832001353       -1.69117305169713
H           -7.94518517317638        1.32866106388607       -1.67769451573521

          :  Hamiltonian                  GFN2-xTB          :
         :: gradient norm              0.000060047174 Eh/a0 ::
         :: HOMO-LUMO gap              0.835508782316 eV    ::
         :: SCC energy              -103.544465098589 Eh    ::
         :: -> dispersion             -0.092295095402 Eh    ::
         :: -> Gsolv                  -0.045889369486 Eh    ::
         :: repulsion energy           1.973691794536 Eh    ::

    * Orbital Energies and Occupations

         #    Occupation            Energy/Eh            Energy/eV
      -------------------------------------------------------------
         1        2.0000           -0.6817561             -18.5515
       ...           ...                  ...                  ...
        84        2.0000           -0.4221891             -11.4883
        85        2.0000           -0.4196023             -11.4180
        86        2.0000           -0.4168412             -11.3428
        87        2.0000           -0.4123069             -11.2194
        88        2.0000           -0.4097263             -11.1492
        89        2.0000           -0.4091955             -11.1348
        90        2.0000           -0.4052026             -11.0261
        91        2.0000           -0.4033833             -10.9766
        92        2.0000           -0.4019591             -10.9379
        93        2.0000           -0.3833853             -10.4324
        94        1.9994           -0.3685703             -10.0293
        95        1.0006           -0.3544723              -9.6457
        96        1.0000           -0.2961117              -8.0576 (HOMO)
        97                         -0.2654070              -7.2221 (LUMO)
        98                         -0.2505545              -6.8179
        99                         -0.2391752              -6.5083
       100                         -0.2348527              -6.3907
       101                         -0.2344253              -6.3790
       102                         -0.2316757              -6.3042
       103                         -0.2268795              -6.1737
       104                         -0.2265958              -6.1660
       105                         -0.2053675              -5.5883
       106                         -0.1978351              -5.3834
       107                         -0.1907094              -5.1895
       ...                                ...                  ...
       188                          1.1617963              31.6141
      -------------------------------------------------------------
                  HL-Gap            0.0307046 Eh            0.8355 eV

     #   Z          covCN         q      C6AA      α(0)
     1   7 N        0.911    -0.300    27.729     7.616
     2   6 C        1.911     0.113    28.321     8.595
     3   6 C        2.972     0.004    27.927     8.668
     4   6 C        2.921    -0.023    28.583     8.767
     5   6 C        2.921    -0.031    28.767     8.796
     6   6 C        2.972     0.019    27.573     8.613
     7   6 C        2.972    -0.007    28.188     8.709
     8   6 C        2.977     0.008    27.827     8.653
     9   6 C        2.921    -0.036    28.892     8.815
    10   6 C        2.914    -0.032    28.791     8.799
    11   6 C        2.914    -0.029    28.735     8.790
    12   6 C        2.921    -0.038    28.937     8.821
    13   6 C        2.977     0.010    27.793     8.648
    14   6 C        2.972    -0.011    28.296     8.725
    15   6 C        2.972     0.016    27.657     8.626
    16   6 C        2.923    -0.031    28.766     8.795
    17   6 C        2.918    -0.042    29.056     8.839
    18   6 C        2.912     0.061    26.631     8.462
    19   7 N        2.801    -0.034    21.890     6.949
    20   6 C        3.072     0.047    26.877     8.500
    21   6 C        2.910    -0.049    29.217     8.863
    22   6 C        2.923    -0.034    28.840     8.807
    23   6 C        2.920    -0.040    28.984     8.828
    24   6 C        2.912    -0.033    28.824     8.804
    25   6 C        3.066    -0.016    28.342     8.730
    26   6 C        3.066    -0.016    28.342     8.730
    27   6 C        2.912    -0.033    28.824     8.804
    28   6 C        2.920    -0.040    28.984     8.828
    29   6 C        2.923    -0.034    28.840     8.807
    30   6 C        2.910    -0.049    29.217     8.863
    31   6 C        3.072     0.047    26.877     8.500
    32   6 C        2.918    -0.043    29.056     8.839
    33   6 C        2.923    -0.031    28.765     8.795
    34   6 C        2.977     0.010    27.793     8.648
    35   6 C        2.921    -0.038    28.938     8.822
    36   6 C        2.914    -0.029    28.735     8.790
    37   6 C        2.914    -0.032    28.791     8.799
    38   6 C        2.921    -0.036    28.891     8.814
    39   6 C        2.977     0.008    27.827     8.653
    40   6 C        2.921    -0.031    28.768     8.796
    41   6 C        2.921    -0.023    28.583     8.767
    42   1 H        0.926     0.035     2.521     2.483
    43   1 H        0.926     0.042     2.417     2.431
    44   1 H        0.926     0.035     2.519     2.482
    45   1 H        0.926     0.032     2.559     2.502
    46   1 H        0.926     0.034     2.536     2.491
    47   1 H        0.926     0.038     2.478     2.462
    48   1 H        0.926     0.045     2.388     2.416
    49   1 H        0.926     0.045     2.381     2.413
    50   1 H        0.926     0.035     2.522     2.483
    51   1 H        0.926     0.033     2.538     2.491
    52   1 H        0.926     0.031     2.568     2.506
    53   1 H        0.926     0.034     2.535     2.490
    54   1 H        0.926     0.034     2.535     2.490
    55   1 H        0.926     0.031     2.568     2.506
    56   1 H        0.926     0.033     2.538     2.491
    57   1 H        0.926     0.035     2.522     2.483
    58   1 H        0.926     0.045     2.381     2.413
    59   1 H        0.926     0.045     2.389     2.417
    60   1 H        0.926     0.038     2.478     2.462
    61   1 H        0.926     0.034     2.536     2.491
    62   1 H        0.926     0.032     2.560     2.502
    63   1 H        0.926     0.035     2.520     2.483
    64   1 H        0.926     0.042     2.416     2.431
    65   1 H        0.926     0.035     2.521     2.483

molecular dipole:
                 x           y           z       tot (Debye)
 q only:        3.399      -0.007      -0.013
   full:        3.704      -0.008      -0.015       9.416

 projected vibrational frequencies (cm⁻¹)
eigval :       -0.00    -0.00    -0.00     0.00     0.00     0.00
eigval :        9.24    16.06    19.04    34.46    38.96    56.02
eigval :       59.27    70.97    86.62    90.22   105.80   109.93
eigval :      126.59   131.03   140.38   154.18   181.47   181.82
eigval :      208.69   211.60   232.99   237.99   267.76   270.16
eigval :      270.78   308.78   345.80   368.46   369.35   377.27
eigval :      380.67   389.81   394.07   399.92   412.92   418.76
eigval :      426.09   430.51   439.99   441.68   472.07   497.63
eigval :      517.49   518.33   529.60   535.33   538.95   539.60
eigval :      569.11   574.60   580.72   584.02   587.48   604.15
eigval :      607.05   618.26   627.09   646.35   673.94   675.67
eigval :      679.64   689.14   693.54   707.64   719.28   730.05
eigval :      748.38   756.02   760.84   770.46   779.45   780.70
eigval :      810.48   821.49   846.27   853.41   860.53   866.71
eigval :      874.63   880.13   893.00   894.77   895.27   896.90
eigval :      899.22   903.87   904.46   905.90   906.48   920.65
eigval :      922.52   923.28   924.84   931.11   933.48   938.03
eigval :      945.77   948.49  1008.57  1010.89  1017.06  1068.79
eigval :     1072.27  1103.25  1105.76  1114.68  1117.18  1127.73
eigval :     1132.98  1133.51  1148.79  1173.41  1177.53  1178.53
eigval :     1179.41  1180.14  1182.06  1189.02  1199.69  1208.60
eigval :     1231.88  1232.71  1241.59  1243.57  1254.52  1262.17
eigval :     1264.76  1286.57  1293.49  1295.34  1302.71  1304.87
eigval :     1308.72  1315.13  1335.70  1352.54  1353.31  1354.86
eigval :     1357.01  1366.95  1379.63  1407.54  1409.34  1410.56
eigval :     1416.43  1421.86  1422.52  1459.13  1468.19  1470.56
eigval :     1478.53  1483.85  1494.37  1499.05  1523.13  1526.86
eigval :     1528.61  1543.63  1563.11  1570.81  1571.34  1585.10
eigval :     1590.66  1606.91  2320.37  3073.14  3073.78  3074.07
eigval :     3074.58  3074.77  3074.96  3079.25  3079.95  3080.26
eigval :     3081.28  3083.28  3083.47  3085.81  3087.69  3088.12
eigval :     3089.08  3091.33  3093.15  3094.41  3094.49  3094.94
eigval :     3095.57  3097.79  3098.81

   temp. (K)  partition function   enthalpy   heat capacity  entropy
                                   cal/mol     cal/K/mol   cal/K/mol   J/K/mol
 298.15  VIB  0.314E+14            18174.553    118.711    111.560
         ROT  0.278E+08              888.752      2.981     37.043
         INT  0.872E+21            19063.305    121.692    148.604
         TR   0.115E+29             1481.254      4.968     44.616
         TOT                       20544.5590   126.6600   193.2192   808.4290

       T/K    H(0)-H(T)+PV         H(T)/Eh          T*S/Eh         G(T)/Eh
   ------------------------------------------------------------------------
    298.15    0.327398E-01    0.524402E+00    0.918047E-01    0.432597E+00
   ------------------------------------------------------------------------

         :::::::::::::::::::::::::::::::::::::::::::::::::::::
         ::                  THERMODYNAMIC                  ::
         :::::::::::::::::::::::::::::::::::::::::::::::::::::
         :: total free energy        -101.138175882575 Eh   ::
         ::.................................................::
         :: total energy             -101.570773303357 Eh   ::
         :: zero point energy           0.491662247802 Eh   ::
         :: G(RRHO) w/o ZPVE           -0.059064827020 Eh   ::
         :: G(RRHO) contrib.            0.432597420782 Eh   ::
         :::::::::::::::::::::::::::::::::::::::::::::::::::::

           -------------------------------------------------
          | TOTAL ENERGY             -101.570773303357 Eh   |
          | TOTAL ENTHALPY           -101.046371216778 Eh   |
          | TOTAL FREE ENERGY        -101.138175882575 Eh   |
          | GRADIENT NORM               0.000059794187 Eh/α |
          | HOMO-LUMO GAP               0.835515351216 eV   |
           -------------------------------------------------

 * finished run on 2025/09/09 at 21:31:38.623
