   * xtb version 6.7.1 (edcfbbe) compiled by 'albert@albert-system' on 2024-07-22

   ID    Z sym.   atoms
    1    6 C      1-4, 6-26, 28-35
    2    7 N      5
    3    8 O      27
    4    1 H      36-60

          program call               : xtb data2507/gas/XCBP/XCBP_gas_S0_crest.xyz --gfn 2 --ohess vtight --parallel 40 --molden --ceasefiles --namespace data2507/gas/XCBP/XCBP_gas_S0_finalOpt
          :  Hamiltonian                  GFN2-xTB          :
 * total energy  :   -90.4239054 Eh     change       -0.7728289E-09 Eh
 * total energy  :   -90.4239066 Eh     change       -0.1201327E-05 Eh
 * total energy  :   -90.4239079 Eh     change       -0.1304970E-05 Eh
 * total energy  :   -90.4239101 Eh     change       -0.2200386E-05 Eh
 * total energy  :   -90.4239118 Eh     change       -0.1730812E-05 Eh
 * total energy  :   -90.4239135 Eh     change       -0.1724398E-05 Eh
 * total energy  :   -90.4239154 Eh     change       -0.1883930E-05 Eh
 * total energy  :   -90.4239170 Eh     change       -0.1578618E-05 Eh
 * total energy  :   -90.4239182 Eh     change       -0.1220770E-05 Eh
 * total energy  :   -90.4239196 Eh     change       -0.1332099E-05 Eh
 * total energy  :   -90.4239274 Eh     change       -0.1910404E-05 Eh
 * total energy  :   -90.4239289 Eh     change       -0.1444716E-05 Eh
 * total energy  :   -90.4239301 Eh     change       -0.1175423E-05 Eh
 * total energy  :   -90.4239312 Eh     change       -0.1147621E-05 Eh
 * total energy  :   -90.4239323 Eh     change       -0.1107642E-05 Eh
 * total energy  :   -90.4239334 Eh     change       -0.1095384E-05 Eh
 * total energy  :   -90.4239344 Eh     change       -0.9566209E-06 Eh
 * total energy  :   -90.4239352 Eh     change       -0.7927753E-06 Eh
 * total energy  :   -90.4239352 Eh     change       -0.6253572E-08 Eh
   *** GEOMETRY OPTIMIZATION CONVERGED AFTER 22 ITERATIONS ***

 final structure:
================
60
 xtb: 6.7.1 (edcfbbe)
C           -0.00062371822434       -2.31940756251049       -1.96683359980945
C           -0.51194289710398       -1.21949720435708       -1.08526546281295
C           -1.87994988759923       -1.07233246138241       -0.90981986101132
C           -2.40893440908115       -0.08892222580581       -0.08625819995143
N           -3.80724647163240        0.02012708838538        0.04128176306593
C           -4.63850971865336       -0.93342375892519        0.58565659678574
C           -4.31845988442148       -2.16822337643708        1.13057619758983
C           -5.35166300953225       -2.93438706110657        1.63419226109954
C           -6.67080064269708       -2.48543726003801        1.60431506549454
C           -6.99234529485589       -1.25239951708372        1.07300820967859
C           -5.97212083335047       -0.46303335754078        0.55824000276274
C           -5.93105056791820        0.83681397789860       -0.05095529403813
C           -6.89910909683968        1.78016214949678       -0.36968997605958
C           -6.50575695862577        2.94770937790225       -0.99283964300471
C           -5.16927374637856        3.17588347359916       -1.31501472078656
C           -4.18729636450337        2.25343731615575       -1.00987045516201
C           -4.57404298820167        1.09076597453200       -0.35873740222444
C           -1.56290522850673        0.76342383839011        0.62842848342110
C           -2.10957745556772        1.77832499146371        1.58434051023282
C           -0.19834088850212        0.61730142752986        0.44315336983782
C            0.34068042040842       -0.34117373114254       -0.41048085198352
C            1.80646122057708       -0.39639323427747       -0.55706208287813
C            2.61630953874743       -0.50625193978787        0.57171164788598
C            3.99192979131886       -0.52198188644067        0.45661085184419
C            4.59044496033982       -0.42787975199912       -0.79846695084315
C            6.06329204352067       -0.47196442571172       -0.97440311528706
O            6.57279465004795       -0.97858275873160       -1.95443634428169
C            6.88564419706841        0.13680980002938        0.10329335167561
C            8.14203355650167       -0.40188703592018        0.37196159627307
C            8.94324518027606        0.15099388028039        1.35249272915263
C            8.50659816470088        1.26084472727511        2.05823467759648
C            7.26904754744829        1.81813156346364        1.77837090823542
C            6.45698485049731        1.25915732012784        0.80869445876591
C            3.78227502487322       -0.33540108083735       -1.93015437359574
C            2.40840798449295       -0.30921390909327       -1.81065314730845
H            1.01203664449646       -2.60593340921027       -1.69468159431558
H           -0.64744389771184       -3.19114022437625       -1.89133175293646
H            0.00350985796812       -2.00123943417698       -3.00950732703255
H           -2.55935656799555       -1.73528942570346       -1.42692288149193
H           -3.29567466441896       -2.51416462981857        1.16064642381274
H           -5.13311512050690       -3.90177782216360        2.06218559191661
H           -7.45015939072510       -3.11478585349370        2.00784957378180
H           -8.01426126953809       -0.90426905360240        1.05709941959468
H           -7.93770571739823        1.59797120344242       -0.13762084351281
H           -7.24330963498037        3.69451216141186       -1.24697708737286
H           -4.89677116400228        4.09177656337612       -1.81888851647936
H           -3.15577704582147        2.42204495588753       -1.28285159414868
H           -2.48498798699469        2.65294502721851        1.05324649779002
H           -1.33631172022738        2.10412401321239        2.27566181595731
H           -2.93889906471651        1.35938914144207        2.15239530630920
H            0.47611757365952        1.27480453894794        0.97392772505179
H            2.15583165936105       -0.59503488801628        1.54517887125845
H            4.60542455638600       -0.63145279324144        1.33920506935799
H            8.46918421851040       -1.26048948027283       -0.19549329477216
H            9.91133253615222       -0.27824388692585        1.56414756261008
H            9.13387805673612        1.69709823148316        2.82165211477532
H            6.93661662005809        2.69279073193577        2.31809728559982
H            5.50023824367031        1.70603688949912        0.58008267910184
H            4.25454824046525       -0.27319912549071       -2.89934287120087
H            1.79199734895562       -0.20569849216597       -2.69078926980951

          :  Hamiltonian                  GFN2-xTB          :
         :: gradient norm              0.000057402379 Eh/a0 ::
         :: HOMO-LUMO gap              1.997566186135 eV    ::
         :: SCC energy               -92.084114908766 Eh    ::
         :: -> dispersion             -0.076955287930 Eh    ::
         :: repulsion energy           1.660179752012 Eh    ::

    * Orbital Energies and Occupations

         #    Occupation            Energy/Eh            Energy/eV
      -------------------------------------------------------------
         1        2.0000           -0.7023748             -19.1126
       ...           ...                  ...                  ...
        72        2.0000           -0.4195181             -11.4157
        73        2.0000           -0.4184170             -11.3857
        74        2.0000           -0.4178514             -11.3703
        75        2.0000           -0.4161609             -11.3243
        76        2.0000           -0.4158511             -11.3159
        77        2.0000           -0.4154092             -11.3039
        78        2.0000           -0.4147293             -11.2854
        79        2.0000           -0.4042932             -11.0014
        80        2.0000           -0.4019383             -10.9373
        81        2.0000           -0.3934389             -10.7060
        82        2.0000           -0.3877283             -10.5506
        83        2.0000           -0.3753940             -10.2150
        84        2.0000           -0.3601997              -9.8015 (HOMO)
        85                         -0.2867905              -7.8040 (LUMO)
        86                         -0.2485402              -6.7631
        87                         -0.2414530              -6.5703
        88                         -0.2363840              -6.4323
        89                         -0.2332562              -6.3472
        90                         -0.2296566              -6.2493
        91                         -0.2240585              -6.0969
        92                         -0.2185566              -5.9472
        93                         -0.1909674              -5.1965
        94                         -0.1852971              -5.0422
        95                         -0.1829142              -4.9773
       ...                                ...                  ...
       165                          0.7497287              20.4012
      -------------------------------------------------------------
                  HL-Gap            0.0734092 Eh            1.9976 eV

     #   Z          covCN         q      C6AA      α(0)
     1   6 C        3.758    -0.108    22.622     6.781
     2   6 C        2.967     0.012    27.745     8.640
     3   6 C        2.928    -0.053    29.313     8.879
     4   6 C        2.917     0.052    26.843     8.496
     5   7 N        2.805    -0.044    22.098     6.982
     6   6 C        3.083     0.046    26.874     8.498
     7   6 C        2.909    -0.052    29.284     8.873
     8   6 C        2.924    -0.034    28.843     8.807
     9   6 C        2.920    -0.042    29.043     8.838
    10   6 C        2.912    -0.033    28.829     8.804
    11   6 C        3.069    -0.019    28.406     8.739
    12   6 C        3.069    -0.019    28.401     8.738
    13   6 C        2.912    -0.033    28.824     8.804
    14   6 C        2.920    -0.042    29.044     8.838
    15   6 C        2.924    -0.034    28.856     8.809
    16   6 C        2.909    -0.051    29.272     8.872
    17   6 C        3.082     0.048    26.840     8.493
    18   6 C        2.965     0.004    27.940     8.670
    19   6 C        3.757    -0.105    22.565     6.773
    20   6 C        2.933    -0.046    29.137     8.853
    21   6 C        2.979    -0.004    28.109     8.697
    22   6 C        2.978     0.020    27.564     8.612
    23   6 C        2.924    -0.034    28.844     8.807
    24   6 C        2.919    -0.028    28.690     8.784
    25   6 C        2.972    -0.014    28.365     8.736
    26   6 C        2.828     0.225    23.266     7.904
    27   8 O        0.858    -0.371    21.102     6.159
    28   6 C        2.973    -0.011    28.288     8.724
    29   6 C        2.925    -0.018    28.449     8.747
    30   6 C        2.918    -0.027    28.667     8.780
    31   6 C        2.920    -0.023    28.590     8.768
    32   6 C        2.918    -0.028    28.691     8.784
    33   6 C        2.921    -0.026    28.660     8.779
    34   6 C        2.923    -0.020    28.497     8.754
    35   6 C        2.922    -0.032    28.799     8.800
    36   1 H        0.925     0.046     2.368     2.406
    37   1 H        0.925     0.046     2.365     2.405
    38   1 H        0.925     0.050     2.323     2.383
    39   1 H        0.926     0.042     2.424     2.435
    40   1 H        0.926     0.024     2.675     2.557
    41   1 H        0.926     0.027     2.627     2.535
    42   1 H        0.926     0.026     2.640     2.541
    43   1 H        0.926     0.029     2.596     2.519
    44   1 H        0.926     0.029     2.594     2.519
    45   1 H        0.926     0.026     2.641     2.541
    46   1 H        0.926     0.026     2.637     2.539
    47   1 H        0.926     0.023     2.692     2.566
    48   1 H        0.925     0.053     2.283     2.363
    49   1 H        0.925     0.043     2.407     2.426
    50   1 H        0.925     0.046     2.366     2.405
    51   1 H        0.926     0.036     2.504     2.475
    52   1 H        0.926     0.037     2.493     2.469
    53   1 H        0.926     0.036     2.504     2.474
    54   1 H        0.926     0.054     2.273     2.358
    55   1 H        0.926     0.039     2.461     2.453
    56   1 H        0.926     0.038     2.482     2.464
    57   1 H        0.926     0.036     2.501     2.473
    58   1 H        0.926     0.036     2.508     2.477
    59   1 H        0.926     0.054     2.275     2.359
    60   1 H        0.926     0.041     2.431     2.438

molecular dipole:
                 x           y           z       tot (Debye)
 q only:       -0.015       0.430       0.879
   full:        0.003       0.504       0.997       2.840

 projected vibrational frequencies (cm⁻¹)
eigval :       -0.00    -0.00    -0.00    -0.00     0.00     0.00
eigval :       11.84    18.48    20.58    33.80    40.15    41.46
eigval :       64.18    69.63    87.66    96.66   102.52   118.08
eigval :      128.44   131.23   135.60   149.73   179.77   192.54
eigval :      205.22   212.53   224.59   267.38   270.89   278.51
eigval :      287.26   324.12   344.42   365.77   366.02   378.05
eigval :      394.68   397.59   408.16   423.36   431.72   432.60
eigval :      457.30   472.68   482.60   518.58   520.63   541.37
eigval :      542.70   552.26   575.21   586.78   589.21   599.96
eigval :      620.52   640.69   646.78   666.36   673.56   680.16
eigval :      690.37   704.40   708.67   719.89   746.06   756.22
eigval :      769.48   775.71   781.18   797.87   827.00   865.93
eigval :      871.02   874.82   877.29   880.99   889.89   892.90
eigval :      900.15   901.95   903.23   909.68   921.56   922.04
eigval :      922.98   924.92   930.64   933.67   936.18   981.63
eigval :     1002.47  1011.21  1016.26  1028.43  1031.19  1034.18
eigval :     1041.33  1067.52  1070.87  1080.83  1098.71  1119.54
eigval :     1136.54  1150.31  1163.53  1175.57  1179.53  1181.34
eigval :     1181.76  1189.87  1191.76  1200.88  1219.49  1237.55
eigval :     1239.72  1253.27  1263.41  1267.05  1277.80  1294.30
eigval :     1308.78  1311.43  1314.58  1319.38  1322.38  1357.98
eigval :     1364.57  1374.31  1393.61  1405.27  1408.01  1413.88
eigval :     1429.30  1430.05  1444.98  1462.87  1475.41  1476.59
eigval :     1478.93  1482.08  1483.56  1486.61  1489.24  1508.89
eigval :     1556.14  1563.66  1573.72  1580.86  1589.76  1590.96
eigval :     1592.14  1599.12  1601.05  1617.03  1694.63  2998.87
eigval :     3002.22  3024.22  3032.34  3042.74  3046.05  3072.20
eigval :     3072.63  3074.02  3074.21  3075.46  3077.96  3078.92
eigval :     3079.18  3079.82  3084.71  3085.10  3086.46  3086.71
eigval :     3087.38  3091.74  3093.39  3095.14  3096.89  3097.61

   temp. (K)  partition function   enthalpy   heat capacity  entropy
                                   cal/mol     cal/K/mol   cal/K/mol   J/K/mol
 298.15  VIB  0.854E+13            16783.903    105.428    104.396
         ROT  0.397E+08              888.752      2.981     37.754
         INT  0.339E+21            17672.655    108.409    142.149
         TR   0.928E+28             1481.254      4.968     44.192
         TOT                       19153.9091   113.3769   186.3409   779.6504

       T/K    H(0)-H(T)+PV         H(T)/Eh          T*S/Eh         G(T)/Eh
   ------------------------------------------------------------------------
    298.15    0.305237E-01    0.500202E+00    0.885366E-01    0.411665E+00
   ------------------------------------------------------------------------

         :::::::::::::::::::::::::::::::::::::::::::::::::::::
         ::                  THERMODYNAMIC                  ::
         :::::::::::::::::::::::::::::::::::::::::::::::::::::
         :: total free energy         -90.012269927186 Eh   ::
         ::.................................................::
         :: total energy              -90.423935156755 Eh   ::
         :: zero point energy           0.469678120224 Eh   ::
         :: G(RRHO) w/o ZPVE           -0.058012890655 Eh   ::
         :: G(RRHO) contrib.            0.411665229569 Eh   ::
         :::::::::::::::::::::::::::::::::::::::::::::::::::::

           -------------------------------------------------
          | TOTAL ENERGY              -90.423935156755 Eh   |
          | TOTAL ENTHALPY            -89.923733339535 Eh   |
          | TOTAL FREE ENERGY         -90.012269927186 Eh   |
          | GRADIENT NORM               0.000057396035 Eh/α |
          | HOMO-LUMO GAP               1.997566067352 eV   |
           -------------------------------------------------

 * finished run on 2025/08/25 at 13:23:48.130
