   * xtb version 6.7.1 (edcfbbe) compiled by 'albert@albert-system' on 2024-07-22

   ID    Z sym.   atoms
    1    6 C      1-4, 6-26, 28-35
    2    7 N      5
    3    8 O      27
    4    1 H      36-60

          program call               : xtb data2507/gas/XCBP/XCBP.xyz --gfn 2 --ohess vtight --parallel 40 --molden --ceasefiles --namespace data2507/gas/XCBP/XCBP_gas_S0_preOpt
          :  Hamiltonian                  GFN2-xTB          :
 * total energy  :   -90.4105611 Eh     change       -0.1261270E-08 Eh
 * total energy  :   -90.4202133 Eh     change       -0.9652173E-02 Eh
 * total energy  :   -90.4219439 Eh     change       -0.1730615E-02 Eh
 * total energy  :   -90.4223397 Eh     change       -0.3958021E-03 Eh
 * total energy  :   -90.4226613 Eh     change       -0.3215388E-03 Eh
 * total energy  :   -90.4227651 Eh     change       -0.1038023E-03 Eh
 * total energy  :   -90.4228565 Eh     change       -0.9147242E-04 Eh
 * total energy  :   -90.4229453 Eh     change       -0.8877231E-04 Eh
 * total energy  :   -90.4230373 Eh     change       -0.9202215E-04 Eh
 * total energy  :   -90.4231155 Eh     change       -0.7817112E-04 Eh
 * total energy  :   -90.4238746 Eh     change       -0.1526505E-05 Eh
 * total energy  :   -90.4238756 Eh     change       -0.9457168E-06 Eh
 * total energy  :   -90.4238762 Eh     change       -0.5976805E-06 Eh
 * total energy  :   -90.4238766 Eh     change       -0.4201399E-06 Eh
 * total energy  :   -90.4238770 Eh     change       -0.3583685E-06 Eh
 * total energy  :   -90.4238773 Eh     change       -0.3132106E-06 Eh
 * total energy  :   -90.4238776 Eh     change       -0.2926722E-06 Eh
 * total energy  :   -90.4238779 Eh     change       -0.3384492E-06 Eh
 * total energy  :   -90.4238779 Eh     change       -0.5147157E-08 Eh
   *** GEOMETRY OPTIMIZATION CONVERGED AFTER 68 ITERATIONS ***

 final structure:
================
60
 xtb: 6.7.1 (edcfbbe)
C            0.66408506519391        1.43280779236702       -1.63356557535074
C           -0.17101707554796        0.67683096941955       -0.64344967732566
C           -1.54901863207811        0.65130835323881       -0.79632300319622
C           -2.37072043579485       -0.01289447200619        0.10332934689884
N           -3.76263192023278       -0.01006924365894       -0.11057952251660
C           -4.54316911712588       -1.11182691755343       -0.37729083827904
C           -4.16386237652044       -2.43477657410682       -0.55376281403445
C           -5.15523416228899       -3.35561991967003       -0.83210834920333
C           -6.49082093142019       -2.97382364052116       -0.94388581935108
C           -6.86945910481742       -1.65437475797111       -0.79592134665527
C           -5.89199900432238       -0.70873045098861       -0.51493104670497
C           -5.91077030155191        0.71507369215442       -0.32796797865010
C           -6.91570028059132        1.67372803945604       -0.33803179182401
C           -6.57447716765097        2.99231014954332       -0.11220708644145
C           -5.25261854259694        3.36253358742356        0.12899856502558
C           -4.23497876591097        2.42863266000792        0.14689493325901
C           -4.57183513173999        1.10418323202182       -0.09072454181546
C           -1.82477032298454       -0.64907304914617        1.22144726599663
C           -2.69700439856250       -1.30694369479815        2.24551160201427
C           -0.44739188327506       -0.62576206096952        1.36533764854255
C            0.38721790814307        0.00744944351370        0.44912843662644
C            1.84225694022462       -0.04089746917109        0.68153085480017
C            2.70755915476945       -0.54679580460763       -0.28617795403362
C            4.06761259207690       -0.60484447156956       -0.05656956870990
C            4.59393518980330       -0.15795333916952        1.15412673867131
C            6.04449496200039       -0.22922512211939        1.45787365039279
O            6.45032402618985       -0.40524562057738        2.58972871795218
C            6.97933381653696       -0.07592343580959        0.31256835364740
C            6.70434622100348        0.78071400208908       -0.75104958168244
C            7.61776891848762        0.92147610707039       -1.77968515670257
C            8.80454105864084        0.20619361579093       -1.76158173890631
C            9.08888548128965       -0.63900328759363       -0.70085084891319
C            8.18631706495594       -0.77107104178114        0.33699046584104
C            3.72660127525622        0.31969952816007        2.13542212589012
C            2.36914330434802        0.38282679948114        1.90002253856173
H            0.89465748671661        0.80588940620546       -2.49514277872045
H            0.12120144647166        2.30375175844481       -1.99487588866981
H            1.60144216856248        1.75928115903837       -1.18999208078439
H           -2.00363776679691        1.15748493000532       -1.63636211593203
H           -3.12649995693316       -2.72961908673411       -0.49176514772802
H           -4.88954304740509       -4.39339144143588       -0.97148981256014
H           -7.23636779057946       -3.72435486414796       -1.16099670764664
H           -7.90253484211357       -1.35862246913616       -0.90087692884512
H           -7.94152437182859        1.38896793811153       -0.51785864391452
H           -7.34126082972102        3.75278499828675       -0.11805502769442
H           -5.01995675943415        4.40214472326739        0.30754002088690
H           -3.21201510709077        2.71557445169570        0.34149666067689
H           -2.15942375760943       -1.42347914082345        3.18325986353873
H           -3.01656712913502       -2.29349557512639        1.90989281622368
H           -3.59342187781170       -0.71447584378367        2.42200466778802
H            0.00008456526805       -1.12180281727305        2.21522649295153
H            2.30393692075518       -0.91548633110910       -1.21736210470677
H            4.72251750603101       -1.02157739752284       -0.80799094324001
H            5.78779120125363        1.35280488077107       -0.75876284135663
H            7.40429862821382        1.59210194232111       -2.59916013272088
H            9.51126768114514        0.31410599601173       -2.57119363895055
H           10.01761578844274       -1.18975129345753       -0.68179069921464
H            8.39482556342448       -1.41723818568208        1.17674799086664
H            4.14168723749664        0.64557762831587        3.07763534374099
H            1.70448361876393        0.77191403582272        2.65762663219461

          :  Hamiltonian                  GFN2-xTB          :
         :: gradient norm              0.000050133522 Eh/a0 ::
         :: HOMO-LUMO gap              1.992256262416 eV    ::
         :: SCC energy               -92.084131194884 Eh    ::
         :: -> dispersion             -0.076968134523 Eh    ::
         :: repulsion energy           1.660253280184 Eh    ::

    * Orbital Energies and Occupations

         #    Occupation            Energy/Eh            Energy/eV
      -------------------------------------------------------------
         1        2.0000           -0.7022561             -19.1094
       ...           ...                  ...                  ...
        72        2.0000           -0.4194347             -11.4134
        73        2.0000           -0.4185886             -11.3904
        74        2.0000           -0.4178313             -11.3698
        75        2.0000           -0.4161756             -11.3247
        76        2.0000           -0.4158898             -11.3169
        77        2.0000           -0.4153554             -11.3024
        78        2.0000           -0.4146952             -11.2844
        79        2.0000           -0.4043446             -11.0028
        80        2.0000           -0.4019205             -10.9368
        81        2.0000           -0.3938261             -10.7166
        82        2.0000           -0.3877819             -10.5521
        83        2.0000           -0.3753681             -10.2143
        84        2.0000           -0.3601746              -9.8008 (HOMO)
        85                         -0.2869605              -7.8086 (LUMO)
        86                         -0.2481825              -6.7534
        87                         -0.2414019              -6.5689
        88                         -0.2364566              -6.4343
        89                         -0.2333028              -6.3485
        90                         -0.2297477              -6.2518
        91                         -0.2245040              -6.1091
        92                         -0.2185199              -5.9462
        93                         -0.1909104              -5.1949
        94                         -0.1852577              -5.0411
        95                         -0.1828812              -4.9765
       ...                                ...                  ...
       165                          0.7497414              20.4015
      -------------------------------------------------------------
                  HL-Gap            0.0732141 Eh            1.9923 eV

     #   Z          covCN         q      C6AA      α(0)
     1   6 C        3.758    -0.107    22.603     6.778
     2   6 C        2.967     0.011    27.765     8.643
     3   6 C        2.928    -0.053    29.316     8.879
     4   6 C        2.917     0.052    26.843     8.496
     5   7 N        2.805    -0.044    22.098     6.982
     6   6 C        3.082     0.048    26.840     8.493
     7   6 C        2.909    -0.051    29.270     8.871
     8   6 C        2.924    -0.034    28.855     8.809
     9   6 C        2.920    -0.042    29.043     8.838
    10   6 C        2.912    -0.033    28.825     8.804
    11   6 C        3.069    -0.019    28.401     8.738
    12   6 C        3.069    -0.019    28.406     8.739
    13   6 C        2.912    -0.033    28.829     8.804
    14   6 C        2.920    -0.042    29.043     8.838
    15   6 C        2.924    -0.034    28.843     8.807
    16   6 C        2.909    -0.052    29.284     8.873
    17   6 C        3.083     0.046    26.875     8.499
    18   6 C        2.965     0.004    27.927     8.668
    19   6 C        3.757    -0.106    22.569     6.773
    20   6 C        2.933    -0.045    29.129     8.851
    21   6 C        2.979    -0.004    28.106     8.696
    22   6 C        2.978     0.020    27.558     8.611
    23   6 C        2.923    -0.033    28.812     8.802
    24   6 C        2.919    -0.028    28.703     8.786
    25   6 C        2.972    -0.015    28.370     8.737
    26   6 C        2.828     0.225    23.268     7.904
    27   8 O        0.858    -0.371    21.101     6.159
    28   6 C        2.973    -0.011    28.284     8.724
    29   6 C        2.921    -0.026    28.661     8.779
    30   6 C        2.918    -0.028    28.693     8.784
    31   6 C        2.920    -0.024    28.594     8.769
    32   6 C        2.918    -0.027    28.667     8.780
    33   6 C        2.925    -0.018    28.451     8.747
    34   6 C        2.923    -0.019    28.479     8.751
    35   6 C        2.923    -0.033    28.825     8.804
    36   1 H        0.925     0.048     2.342     2.393
    37   1 H        0.925     0.046     2.370     2.407
    38   1 H        0.925     0.044     2.402     2.424
    39   1 H        0.926     0.041     2.431     2.438
    40   1 H        0.926     0.023     2.691     2.565
    41   1 H        0.926     0.027     2.636     2.539
    42   1 H        0.926     0.026     2.640     2.541
    43   1 H        0.926     0.029     2.594     2.519
    44   1 H        0.926     0.029     2.596     2.519
    45   1 H        0.926     0.026     2.640     2.541
    46   1 H        0.926     0.027     2.628     2.535
    47   1 H        0.926     0.024     2.675     2.557
    48   1 H        0.925     0.044     2.390     2.417
    49   1 H        0.925     0.053     2.281     2.362
    50   1 H        0.925     0.047     2.364     2.404
    51   1 H        0.926     0.038     2.471     2.458
    52   1 H        0.926     0.038     2.470     2.458
    53   1 H        0.926     0.036     2.500     2.473
    54   1 H        0.926     0.035     2.518     2.481
    55   1 H        0.926     0.036     2.503     2.474
    56   1 H        0.926     0.037     2.483     2.464
    57   1 H        0.926     0.039     2.461     2.453
    58   1 H        0.926     0.053     2.277     2.360
    59   1 H        0.926     0.055     2.263     2.352
    60   1 H        0.926     0.039     2.457     2.451

molecular dipole:
                 x           y           z       tot (Debye)
 q only:        0.066       0.147      -1.003
   full:        0.104       0.163      -1.165       3.002

 projected vibrational frequencies (cm⁻¹)
eigval :       -0.00    -0.00     0.00     0.00     0.00     0.00
eigval :       12.22    17.49    20.80    31.34    40.43    44.93
eigval :       59.18    75.07    82.53    94.98   102.20   117.25
eigval :      125.74   130.51   133.05   150.17   179.98   194.48
eigval :      204.88   211.83   225.50   268.25   271.02   281.27
eigval :      284.48   317.82   344.69   364.34   367.78   378.80
eigval :      395.33   397.32   409.68   423.28   432.26   433.73
eigval :      457.41   472.74   482.78   518.36   518.57   541.61
eigval :      542.72   552.05   577.34   586.79   589.26   599.19
eigval :      617.72   640.76   647.94   668.17   673.37   678.37
eigval :      690.43   704.35   708.66   719.43   749.76   756.26
eigval :      769.45   774.80   781.17   794.09   829.34   865.73
eigval :      871.08   874.74   877.05   881.37   889.69   894.22
eigval :      900.22   901.94   903.22   909.27   921.57   922.29
eigval :      923.00   924.47   930.15   933.74   936.75   981.75
eigval :     1002.44  1011.14  1015.90  1028.81  1030.85  1034.07
eigval :     1041.24  1067.53  1070.93  1080.83  1098.57  1119.46
eigval :     1136.35  1150.29  1163.44  1175.38  1179.50  1181.32
eigval :     1181.76  1190.16  1191.45  1200.75  1219.47  1237.60
eigval :     1240.03  1252.94  1263.33  1266.84  1277.76  1294.11
eigval :     1308.69  1312.28  1314.01  1319.45  1322.24  1357.97
eigval :     1364.55  1374.54  1394.00  1404.93  1407.87  1413.98
eigval :     1429.33  1429.92  1444.95  1463.18  1475.24  1475.81
eigval :     1478.91  1482.30  1483.61  1486.53  1489.23  1509.16
eigval :     1556.48  1563.69  1573.75  1580.86  1589.71  1590.96
eigval :     1592.28  1599.19  1601.13  1617.01  1694.30  2997.99
eigval :     3002.13  3025.45  3033.09  3043.15  3043.60  3072.52
eigval :     3073.97  3074.03  3075.49  3077.84  3078.04  3078.76
eigval :     3079.27  3079.54  3080.97  3084.80  3085.08  3086.75
eigval :     3091.60  3092.27  3093.46  3094.58  3095.14  3097.03

   temp. (K)  partition function   enthalpy   heat capacity  entropy
                                   cal/mol     cal/K/mol   cal/K/mol   J/K/mol
 298.15  VIB  0.950E+13            16797.869    105.422    104.606
         ROT  0.392E+08              888.752      2.981     37.725
         INT  0.372E+21            17686.622    108.403    142.331
         TR   0.928E+28             1481.254      4.968     44.192
         TOT                       19167.8757   113.3713   186.5230   780.4122

       T/K    H(0)-H(T)+PV         H(T)/Eh          T*S/Eh         G(T)/Eh
   ------------------------------------------------------------------------
    298.15    0.305460E-01    0.500196E+00    0.886231E-01    0.411573E+00
   ------------------------------------------------------------------------

         :::::::::::::::::::::::::::::::::::::::::::::::::::::
         ::                  THERMODYNAMIC                  ::
         :::::::::::::::::::::::::::::::::::::::::::::::::::::
         :: total free energy         -90.012304886951 Eh   ::
         ::.................................................::
         :: total energy              -90.423877914700 Eh   ::
         :: zero point energy           0.469650160580 Eh   ::
         :: G(RRHO) w/o ZPVE           -0.058077132831 Eh   ::
         :: G(RRHO) contrib.            0.411573027749 Eh   ::
         :::::::::::::::::::::::::::::::::::::::::::::::::::::

           -------------------------------------------------
          | TOTAL ENERGY              -90.423877914700 Eh   |
          | TOTAL ENTHALPY            -89.923681799883 Eh   |
          | TOTAL FREE ENERGY         -90.012304886951 Eh   |
          | GRADIENT NORM               0.000050148573 Eh/α |
          | HOMO-LUMO GAP               1.992256694306 eV   |
           -------------------------------------------------

 * finished run on 2025/08/25 at 13:21:22.411
