   * xtb version 6.7.1 (edcfbbe) compiled by 'albert@albert-system' on 2024-07-22

   ID    Z sym.   atoms
    1    6 C      1-4, 6-26, 28-35
    2    7 N      5
    3    8 O      27
    4    1 H      36-60

          program call               : xtb data2507/gas/XCBP/XCBP_gas_S0_finalOpt.xtbopt.xyz --gfn 2 --spinpol --tblite --uhf 2 --ohess vtight --parallel 40 --molden --ceasefiles --namespace data2507/gas/XCBP/XCBP_gas_T1_preOpt
 * total energy  :   -90.3307057 Eh     change        0.2318791E-07 Eh
 * total energy  :   -90.3340067 Eh     change       -0.3301041E-02 Eh
 * total energy  :   -90.3349278 Eh     change       -0.9210890E-03 Eh
 * total energy  :   -90.3352585 Eh     change       -0.3306697E-03 Eh
 * total energy  :   -90.3355668 Eh     change       -0.3082769E-03 Eh
 * total energy  :   -90.3358408 Eh     change       -0.2740282E-03 Eh
 * total energy  :   -90.3360782 Eh     change       -0.2374181E-03 Eh
 * total energy  :   -90.3362093 Eh     change       -0.1311302E-03 Eh
 * total energy  :   -90.3362639 Eh     change       -0.5456235E-04 Eh
 * total energy  :   -90.3362917 Eh     change       -0.2782281E-04 Eh
 * total energy  :   -90.3364161 Eh     change       -0.7297755E-06 Eh
 * total energy  :   -90.3364167 Eh     change       -0.6271654E-06 Eh
 * total energy  :   -90.3364174 Eh     change       -0.6851114E-06 Eh
 * total energy  :   -90.3364180 Eh     change       -0.6786611E-06 Eh
 * total energy  :   -90.3364187 Eh     change       -0.6271073E-06 Eh
 * total energy  :   -90.3364192 Eh     change       -0.5353378E-06 Eh
 * total energy  :   -90.3364195 Eh     change       -0.3314137E-06 Eh
 * total energy  :   -90.3364198 Eh     change       -0.2290131E-06 Eh
 * total energy  :   -90.3364198 Eh     change       -0.7692492E-07 Eh
   *** GEOMETRY OPTIMIZATION CONVERGED AFTER 42 ITERATIONS ***

 final structure:
================
60
 xtb: 6.7.1 (edcfbbe)
C           -0.01429870003558       -2.34102764648764       -1.88496732118139
C           -0.52749360387461       -1.20373737109028       -1.05436228888861
C           -1.89256268171341       -1.06973174004825       -0.87669101357294
C           -2.43781349323242       -0.06280147790474       -0.08654484352418
N           -3.83644359357108        0.02312009261816        0.03641684882021
C           -4.65138904295802       -0.95554232676222        0.55778372584273
C           -4.30861283547568       -2.19341011973839        1.08466535401510
C           -5.32945722444094       -2.98827397519175        1.57072850391762
C           -6.65584756147083       -2.56359578761003        1.54257874170937
C           -7.00019221155150       -1.32426565519845        1.03239217561321
C           -5.99451633040036       -0.50932073413606        0.53580973713752
C           -5.97412628422763        0.80516943025710       -0.04944484806487
C           -6.95617854254744        1.73375271047071       -0.35817085016161
C           -6.57888848502884        2.91863550428757       -0.96499302717103
C           -5.24657156294708        3.17314565897606       -1.28213011854724
C           -4.24960587940074        2.26327988898699       -0.98547228440290
C           -4.61914951364143        1.08714324119688       -0.34659071508275
C           -1.59953526710662        0.82123042152594        0.60307375167050
C           -2.14675255184382        1.85554183616947        1.53952465600005
C           -0.23650044921669        0.68299659369045        0.42141833487965
C            0.32704724819570       -0.28868374603266       -0.41192888579314
C            1.77916769833022       -0.32032226339596       -0.55521097932470
C            2.59865249925242       -0.20540502434150        0.57924133915616
C            3.96621571483987       -0.21758089813588        0.48200256399049
C            4.59520625895253       -0.29229485450106       -0.77682033519044
C            6.02197834070243       -0.31116175984969       -0.96346929340439
O            6.53430026016077       -0.75457416334548       -2.03070222194153
C            6.90738046623251        0.16463361463265        0.10842367461035
C            8.17547004082460       -0.41386268315806        0.23938587918570
C            9.03896647292684        0.02836926611447        1.21937120561292
C            8.67101627433925        1.06284464493135        2.06665849628135
C            7.43247671055856        1.66783510386127        1.91166862279291
C            6.55564169864261        1.23339372688370        0.93777200610161
C            3.77274372083316       -0.44850106179929       -1.91698027799256
C            2.40907797633441       -0.44767200165852       -1.80284023752035
H            0.98706764443152       -2.62979837567689       -1.57612421506559
H           -0.67620063182237       -3.20006561782700       -1.79199275421749
H            0.02006875081379       -2.06493516238342       -2.93898639813735
H           -2.56501771644244       -1.75757756405827       -1.37060536665072
H           -3.27963425328778       -2.51828144374559        1.11577215980002
H           -5.09406317116801       -3.95785929824332        1.98328364388786
H           -7.42540808197663       -3.21351203620128        1.93113423485548
H           -8.02831415410938       -0.99575129473061        1.02186251296051
H           -7.99260403331181        1.53149790151055       -0.13462454403644
H           -7.32887598803740        3.65540851235961       -1.21044101679746
H           -4.98882271331659        4.09828307939058       -1.77566269109734
H           -3.22140829434804        2.44952361651356       -1.25622161642629
H           -2.41671940035665        2.76605942576795        1.00472904517335
H           -1.40195284025646        2.11408877080471        2.28836782567838
H           -3.03976387010032        1.49018455601285        2.04380801358724
H            0.42594736378945        1.36642671533247        0.93309974258584
H            2.13844400249555       -0.16206926607249        1.55656720880934
H            4.56144647352567       -0.20494312200436        1.38258950538160
H            8.45589665287930       -1.21658248660549       -0.42502854363109
H           10.00882424023436       -0.43665684554264        1.32217667890149
H            9.35029904969710        1.40795762056127        2.83175306881305
H            7.15151630079354        2.49580362707658        2.54683807679714
H            5.61512520078435        1.74424778216631        0.79540796914059
H            4.25092147978476       -0.53008096318848       -2.88117119643953
H            1.80699289725082       -0.49779609018282       -2.69752689417717

 projected vibrational frequencies (cm⁻¹)
eigval :       -0.00    -0.00    -0.00     0.00     0.00     0.00
eigval :       12.12    19.13    21.46    35.94    43.62    44.72
eigval :       67.68    74.08    85.44    99.45   108.30   125.14
eigval :      128.54   133.24   150.91   176.93   187.51   203.07
eigval :      208.82   218.18   229.90   267.96   270.06   275.43
eigval :      287.45   318.13   323.57   358.97   373.92   385.22
eigval :      391.92   395.35   406.48   420.39   422.07   432.23
eigval :      442.39   455.96   466.57   502.58   515.54   521.36
eigval :      537.89   538.11   542.51   575.43   580.24   587.59
eigval :      591.98   597.08   632.16   644.33   659.33   661.72
eigval :      674.36   688.39   701.52   709.68   739.19   748.88
eigval :      754.52   769.08   778.71   790.94   803.71   830.99
eigval :      855.50   864.17   870.29   873.24   876.79   882.55
eigval :      887.21   897.90   899.61   903.22   904.49   908.60
eigval :      914.41   916.95   920.76   922.11   937.44   967.07
eigval :      979.33  1009.17  1010.78  1024.81  1026.19  1030.72
eigval :     1034.24  1065.85  1068.94  1076.90  1095.86  1115.86
eigval :     1136.30  1142.11  1156.87  1159.77  1162.05  1175.17
eigval :     1176.85  1178.85  1189.20  1202.81  1213.79  1223.75
eigval :     1231.81  1240.73  1251.90  1261.92  1273.23  1286.94
eigval :     1290.88  1300.00  1315.21  1322.92  1326.31  1345.24
eigval :     1349.36  1362.26  1396.43  1403.89  1409.67  1412.92
eigval :     1413.75  1418.96  1426.02  1429.97  1440.30  1448.25
eigval :     1462.99  1465.11  1475.64  1478.23  1481.51  1483.53
eigval :     1485.96  1494.27  1513.13  1537.41  1543.22  1566.35
eigval :     1570.31  1581.00  1582.12  1584.96  1604.67  2996.29
eigval :     3001.75  3025.71  3026.61  3041.87  3046.02  3066.62
eigval :     3069.14  3073.25  3073.46  3080.50  3081.48  3082.16
eigval :     3083.67  3084.16  3085.70  3085.85  3087.04  3090.13
eigval :     3092.70  3094.22  3097.86  3099.29  3100.15  3101.41

   temp. (K)  partition function   enthalpy   heat capacity  entropy
                                   cal/mol     cal/K/mol   cal/K/mol   J/K/mol
 298.15  VIB  0.478E+13            16884.383    107.210    104.228
         ROT  0.399E+08              888.752      2.981     37.763
         INT  0.191E+21            17773.136    110.191    141.991
         TR   0.928E+28             1481.254      4.968     44.192
         TOT                       19254.3895   115.1590   186.1826   778.9882

       T/K    H(0)-H(T)+PV         H(T)/Eh          T*S/Eh         G(T)/Eh
   ------------------------------------------------------------------------
    298.15    0.306838E-01    0.496890E+00    0.884614E-01    0.408429E+00
   ------------------------------------------------------------------------

         :::::::::::::::::::::::::::::::::::::::::::::::::::::
         ::                  THERMODYNAMIC                  ::
         :::::::::::::::::::::::::::::::::::::::::::::::::::::
         :: total free energy         -89.927991137406 Eh   ::
         ::.................................................::
         :: total energy              -90.336419869388 Eh   ::
         :: zero point energy           0.466206289328 Eh   ::
         :: G(RRHO) w/o ZPVE           -0.057777557346 Eh   ::
         :: G(RRHO) contrib.            0.408428731983 Eh   ::
         :::::::::::::::::::::::::::::::::::::::::::::::::::::

           -------------------------------------------------
          | TOTAL ENERGY              -90.336419869388 Eh   |
          | TOTAL ENTHALPY            -89.839529757228 Eh   |
          | TOTAL FREE ENERGY         -89.927991137406 Eh   |
          | GRADIENT NORM               0.000061834725 Eh/α |
           -------------------------------------------------

 * finished run on 2025/08/25 at 13:23:53.940
