   * xtb version 6.7.1 (edcfbbe) compiled by 'albert@albert-system' on 2024-07-22

   ID    Z sym.   atoms
    1    6 C      1-4, 6-26, 28-35
    2    7 N      5
    3    8 O      27
    4    1 H      36-60

          program call               : xtb data2507/gas/XCBP/XCBP_gas_T1_crest.xyz --gfn 2 --spinpol --tblite --uhf 2 --ohess vtight --parallel 40 --molden --ceasefiles --namespace data2507/gas/XCBP/XCBP_gas_T1_finalOpt
 * total energy  :   -90.3361471 Eh     change       -0.3602999E-07 Eh
 * total energy  :   -90.3363001 Eh     change       -0.1530806E-03 Eh
 * total energy  :   -90.3364135 Eh     change       -0.1133954E-03 Eh
 * total energy  :   -90.3364331 Eh     change       -0.1952620E-04 Eh
 * total energy  :   -90.3364644 Eh     change       -0.3127946E-04 Eh
 * total energy  :   -90.3364792 Eh     change       -0.1488580E-04 Eh
 * total energy  :   -90.3365018 Eh     change       -0.2257914E-04 Eh
 * total energy  :   -90.3365145 Eh     change       -0.1271060E-04 Eh
 * total energy  :   -90.3365253 Eh     change       -0.1075738E-04 Eh
 * total energy  :   -90.3365327 Eh     change       -0.7380778E-05 Eh
 * total energy  :   -90.3365580 Eh     change       -0.3956830E-06 Eh
 * total energy  :   -90.3365581 Eh     change       -0.1166470E-06 Eh
 * total energy  :   -90.3365583 Eh     change       -0.1724590E-06 Eh
 * total energy  :   -90.3365585 Eh     change       -0.2113193E-06 Eh
 * total energy  :   -90.3365587 Eh     change       -0.1828968E-06 Eh
 * total energy  :   -90.3365589 Eh     change       -0.2356821E-06 Eh
 * total energy  :   -90.3365591 Eh     change       -0.1535171E-06 Eh
 * total energy  :   -90.3365591 Eh     change       -0.1156479E-08 Eh
 * total energy  :   -90.3365592 Eh     change       -0.9925176E-07 Eh
   *** GEOMETRY OPTIMIZATION CONVERGED AFTER 29 ITERATIONS ***

 final structure:
================
60
 xtb: 6.7.1 (edcfbbe)
C           -0.03951473650245       -2.29060627147968        1.95362611018496
C           -0.53882914897439       -1.27303371843537        0.97306716060428
C           -1.90042348318897       -1.05368490408581        0.87659969010120
C           -2.43388504116526       -0.07621848471776        0.04155215121435
N           -3.82865832654777        0.09213192166885        0.00110446525457
C           -4.52000494683828        1.22938290144984        0.34979105079941
C           -4.03969662745866        2.42406933676164        0.86899682810657
C           -4.95929713027769        3.41427693460174        1.15825080514819
C           -6.32298696213928        3.22116453105656        0.95012228290353
C           -6.80946744046532        2.02010316066233        0.46528019487374
C           -5.90655916461312        1.01112164861833        0.16725291954276
C           -6.04439854975434       -0.34089031873988       -0.30600289864407
C           -7.12845042580472       -1.12685505223255       -0.66561207791815
C           -6.89370053871453       -2.42195483430604       -1.09247351300361
C           -5.59956090938539       -2.93108650679393       -1.17251215688786
C           -4.50237959169590       -2.16662093565332       -0.82324525946984
C           -4.73447754037492       -0.87165073786734       -0.38028498177277
C           -1.58690720996739        0.70927805233746       -0.75026441752109
C           -2.12622706183793        1.71558515814969       -1.72140737012122
C           -0.22710185553472        0.48829753761553       -0.64740696101957
C            0.32739230335228       -0.48960618171167        0.18646874172811
C            1.77704661244804       -0.64267298289232        0.20210478471980
C            2.59685944846159        0.49670735202774        0.26620820773129
C            3.96372274970213        0.39902000307514        0.28006728419372
C            4.59474767915878       -0.85710144983686        0.16965084416284
C            6.02137913783986       -1.04363746435419        0.17513410453176
O            6.52940918054672       -2.16662652486515        0.45379054991434
C            6.90975337659313        0.09147096575061       -0.11224760095258
C            8.16530253778494        0.13666918639509        0.50456324043387
C            9.03090691272479        1.17592094527617        0.23519840470440
C            8.67706251035003        2.17053973600741       -0.66416313926701
C            7.45142882051134        2.10595958707437       -1.31032005051799
C            6.57275678362655        1.07396419000969       -1.04733605176018
C            3.77219536187948       -2.00787478345558        0.14317806118528
C            2.40871660979578       -1.89558169364032        0.14429338168188
H            0.96010324068531       -2.04153717262276        2.30040118228550
H           -0.70890437637748       -2.34510665756050        2.81006609400982
H           -0.00639955690739       -3.28068696293488        1.49821702794372
H           -2.57901976583004       -1.63317989394143        1.48733552432152
H           -2.98629049687758        2.56473713912328        1.05742951344700
H           -4.61469797482476        4.35533471258849        1.56022338315356
H           -7.01020703132957        4.01984589230673        1.18548176905555
H           -7.86897548836968        1.86676731433645        0.32751439490231
H           -8.13240551857135       -0.73375243336676       -0.61451216640053
H           -7.72532845782642       -3.05035344121494       -1.37371106760424
H           -5.45079157661429       -3.94347859266635       -1.51690306310992
H           -3.49884119767742       -2.55785193938075       -0.89430564812142
H           -2.26365193649750        2.68611444255002       -1.24470672252504
H           -3.09032116406464        1.39981739127700       -2.11584742435713
H           -1.43341895270733        1.84396150562163       -2.54970558936376
H            0.43977230132123        1.06699893274343       -1.27021391571723
H            2.13502762111321        1.46934232223748        0.36404631246552
H            4.55756724658273        1.29108806444525        0.41044571514271
H            8.43453044258724       -0.64224186339932        1.20122773724976
H            9.99096723679392        1.20988691575698        0.72974422234922
H            9.35761441963391        2.98221196756808       -0.87387205995765
H            7.18225826983616        2.85977017000566       -2.03643305610166
H            5.64244640896260        1.00846195134889       -1.59158296080191
H            4.25155773811630       -2.97298410462336        0.08180610471956
H            1.80865080680966       -2.78768298846937        0.04776400004945

 projected vibrational frequencies (cm⁻¹)
eigval :       -0.00    -0.00    -0.00     0.00     0.00     0.00
eigval :       12.87    17.83    25.36    35.84    40.21    47.16
eigval :       62.92    78.05    86.95    98.67   110.92   122.67
eigval :      128.95   132.96   151.85   181.43   187.57   203.37
eigval :      212.27   214.64   229.50   266.85   271.74   275.22
eigval :      289.34   318.22   325.89   351.88   374.04   385.43
eigval :      393.62   397.92   414.00   420.34   422.98   431.60
eigval :      443.56   455.46   468.32   498.85   515.81   522.22
eigval :      534.93   538.21   550.46   575.41   580.09   586.89
eigval :      596.13   597.93   625.48   645.11   661.03   662.92
eigval :      674.41   687.01   701.69   709.79   738.63   749.55
eigval :      754.68   769.33   779.06   790.79   804.16   831.08
eigval :      856.85   863.86   870.30   873.58   876.84   882.97
eigval :      886.54   897.93   900.28   903.49   904.81   909.20
eigval :      914.66   917.66   921.03   922.44   937.95   966.79
eigval :      979.59  1009.25  1010.97  1024.26  1026.07  1031.16
eigval :     1032.66  1066.14  1069.25  1076.96  1096.05  1115.95
eigval :     1136.61  1142.59  1157.08  1160.02  1162.57  1175.96
eigval :     1177.15  1179.22  1189.56  1202.89  1214.62  1225.41
eigval :     1231.97  1241.01  1252.62  1261.65  1273.45  1286.54
eigval :     1290.97  1298.86  1313.85  1322.93  1326.60  1345.99
eigval :     1348.33  1362.16  1397.09  1404.49  1410.51  1413.78
eigval :     1414.69  1420.29  1427.16  1428.41  1440.77  1446.37
eigval :     1460.57  1463.98  1475.61  1479.02  1482.35  1483.63
eigval :     1485.79  1493.87  1511.64  1534.93  1544.26  1566.96
eigval :     1570.29  1580.54  1582.45  1585.09  1604.62  2993.97
eigval :     3001.40  3028.31  3028.76  3041.37  3045.68  3066.15
eigval :     3069.27  3073.05  3073.61  3081.49  3081.85  3082.30
eigval :     3083.38  3084.79  3086.12  3086.37  3087.29  3090.17
eigval :     3092.98  3094.45  3097.98  3099.38  3100.23  3101.33

   temp. (K)  partition function   enthalpy   heat capacity  entropy
                                   cal/mol     cal/K/mol   cal/K/mol   J/K/mol
 298.15  VIB  0.413E+13            16865.963    107.142    103.978
         ROT  0.399E+08              888.752      2.981     37.760
         INT  0.165E+21            17754.715    110.123    141.738
         TR   0.928E+28             1481.254      4.968     44.192
         TOT                       19235.9693   115.0913   185.9295   777.9292

       T/K    H(0)-H(T)+PV         H(T)/Eh          T*S/Eh         G(T)/Eh
   ------------------------------------------------------------------------
    298.15    0.306545E-01    0.496943E+00    0.883411E-01    0.408602E+00
   ------------------------------------------------------------------------

         :::::::::::::::::::::::::::::::::::::::::::::::::::::
         ::                  THERMODYNAMIC                  ::
         :::::::::::::::::::::::::::::::::::::::::::::::::::::
         :: total free energy         -89.927957313784 Eh   ::
         ::.................................................::
         :: total energy              -90.336559203277 Eh   ::
         :: zero point energy           0.466288540354 Eh   ::
         :: G(RRHO) w/o ZPVE           -0.057686650861 Eh   ::
         :: G(RRHO) contrib.            0.408601889492 Eh   ::
         :::::::::::::::::::::::::::::::::::::::::::::::::::::

           -------------------------------------------------
          | TOTAL ENERGY              -90.336559203277 Eh   |
          | TOTAL ENTHALPY            -89.839616194599 Eh   |
          | TOTAL FREE ENERGY         -89.927957313784 Eh   |
          | GRADIENT NORM               0.000115090735 Eh/α |
           -------------------------------------------------

 * finished run on 2025/08/25 at 13:27:23.112
