   * xtb version 6.7.1 (edcfbbe) compiled by 'albert@albert-system' on 2024-07-22

   ID    Z sym.   atoms
    1    6 C      1-9, 11, 13-19, 21-27, 29-37, 39-47
    2    7 N      10, 12, 20, 28, 38
    3    1 H      48-78

          program call               : xtb data2507/gas/3DPTIA/3DPTIA_gas_T1_crest.xyz --gfn 2 --spinpol --tblite --uhf 2 --ohess vtight --parallel 40 --molden --ceasefiles --namespace data2507/gas/3DPTIA/3DPTIA_gas_T1_finalOpt
 * total energy  :  -120.3814643 Eh     change        0.4122342E-08 Eh
 * total energy  :  -120.3815328 Eh     change       -0.6853030E-04 Eh
 * total energy  :  -120.3815845 Eh     change       -0.5166229E-04 Eh
 * total energy  :  -120.3815893 Eh     change       -0.4821755E-05 Eh
 * total energy  :  -120.3815944 Eh     change       -0.5094863E-05 Eh
 * total energy  :  -120.3815965 Eh     change       -0.2032131E-05 Eh
 * total energy  :  -120.3815990 Eh     change       -0.2572755E-05 Eh
 * total energy  :  -120.3816006 Eh     change       -0.1595210E-05 Eh
 * total energy  :  -120.3816029 Eh     change       -0.2267657E-05 Eh
 * total energy  :  -120.3816051 Eh     change       -0.2251846E-05 Eh
 * total energy  :  -120.3816240 Eh     change       -0.2412352E-06 Eh
 * total energy  :  -120.3816240 Eh     change        0.2742534E-07 Eh
 * total energy  :  -120.3816241 Eh     change       -0.1497015E-06 Eh
 * total energy  :  -120.3816244 Eh     change       -0.2147250E-06 Eh
 * total energy  :  -120.3816246 Eh     change       -0.2132605E-06 Eh
 * total energy  :  -120.3816246 Eh     change       -0.2358236E-07 Eh
 * total energy  :  -120.3816247 Eh     change       -0.8893034E-07 Eh
 * total energy  :  -120.3816248 Eh     change       -0.1126072E-06 Eh
 * total energy  :  -120.3816248 Eh     change       -0.4298805E-07 Eh
   *** GEOMETRY OPTIMIZATION CONVERGED AFTER 37 ITERATIONS ***

 final structure:
================
78
 xtb: 6.7.1 (edcfbbe)
C            1.62912287901058        4.20208173514090        1.14384995080333
C            0.58466581762256        3.11619474739650        0.88253467567273
C           -0.03629503168431        2.70726163059413        2.23556150105438
C           -0.53976790106995        3.59571281416024       -0.01720828975464
C           -0.81085903694958        4.93010068544358       -0.27810631482568
C           -1.90288305341911        5.30008354748802       -1.04499746286656
C           -2.74113300760027        4.33452473478990       -1.57256962565567
C           -2.47996452612996        2.99710271575436       -1.34368940408315
C           -1.39112227125723        2.62983148001471       -0.56412072217681
N           -1.06958832218215        1.27794660448298       -0.35903776540268
C           -2.00006866413085        0.30124364104594       -0.13246086292568
N           -3.28045515429503        0.58429238626880       -0.19621995867192
C           -4.16115357211809       -0.42747406024766        0.11970910089361
C           -5.56374272887476       -0.13388970619481        0.13411687657220
C           -6.02348199001067        1.16790190528822       -0.11780050048793
C           -7.37318999490975        1.44267876286409       -0.10652862742448
C           -8.29430627696837        0.43722838005883        0.15401160839913
C           -7.84901508346320       -0.85390284697640        0.40869764566029
C           -6.50297582905882       -1.14198640272349        0.40094095877453
N           -3.72528892480607       -1.64872274474491        0.37996744313831
C           -2.43243778460981       -1.91489057959371        0.38547893225787
C           -1.93666790549258       -3.24371106386720        0.57830780240928
C           -2.81851581044614       -4.32555252007944        0.72464069950403
C           -2.33046925870852       -5.60328075422348        0.87952939450258
C           -0.96076336877922       -5.83865881034387        0.88884802387222
C           -0.07944352720375       -4.77483847740666        0.75009360289760
C           -0.55444310720853       -3.49072465986943        0.60098052027399
N           -1.53257872414366       -0.89202118176453        0.20289545486266
C            0.29314632421908        0.95270850406743       -0.33288552989193
C            0.73459544641596       -0.24463816066298       -0.88474282150805
C            2.07663580945067       -0.56493050393653       -0.78047497646603
C            2.84904521567890       -1.71927190136221       -1.14435540704439
C            2.52666736594958       -2.94028564665715       -1.72035662996696
C            3.54099457251640       -3.85190245232643       -1.93851278079451
C            4.86012748914217       -3.55190667089256       -1.60489953610999
C            5.20285482500243       -2.34543406498179       -1.02399444290676
C            4.18459409504428       -1.43636456995346       -0.77515660234502
N            4.24599823200223       -0.17297894733430       -0.21687800656387
C            5.40422934595050        0.46226158623687        0.25450013988505
C            5.70984720236899        1.75442100623208       -0.16327797288326
C            6.84889202749686        2.38012950909734        0.30837545451686
C            7.69331393022655        1.72325732153456        1.18812610494576
C            7.39209183814281        0.43595389473443        1.60122956038279
C            6.25029488987309       -0.19481553432382        1.14298891318632
C            2.97628260975384        0.35998135388119       -0.20673213181605
C            2.53384459400059        1.57377106241761        0.30532577733980
C            1.18465552389231        1.87235793590114        0.25343137135662
H            2.39153954354288        3.83747922405242        1.82722452958471
H            1.16427739961534        5.06263732362874        1.61711738788898
H            2.10293451420850        4.51844936751722        0.21720339506927
H           -0.51401474059559        3.56778194205235        2.69904669089768
H           -0.78348562180948        1.92854214205021        2.10705955400155
H            0.73806873631174        2.33250886627596        2.90168984448624
H           -0.17516364892891        5.70337590992481        0.12121338607566
H           -2.09760265578584        6.34635268426501       -1.22676772470034
H           -3.59160976704910        4.61914053956954       -2.17315823866043
H           -3.11323280373800        2.23355200488873       -1.76392857255222
H           -5.30005447131980        1.94523904888690       -0.31207462344262
H           -7.71751641416756        2.44884507518185       -0.30089868157556
H           -9.35158763350400        0.65770600433071        0.16061055039904
H           -8.56497937914851       -1.63718128877316        0.61410598542491
H           -6.14664975051374       -2.14149121087558        0.59763043831697
H           -3.88011368506922       -4.13206805264461        0.70859593985745
H           -3.01680165030866       -6.43076770104331        0.99098089795377
H           -0.58425436142652       -6.84419719661450        1.00537364970105
H            0.98717583670745       -4.95255610802461        0.75873698736816
H            0.12601757842792       -2.65830081074994        0.50451968845527
H            0.05202612695730       -0.90691149978399       -1.38960838252272
H            1.50592495299706       -3.16828170029792       -1.98596503824213
H            3.31370434753888       -4.80964640738693       -2.38171621988716
H            5.63344076726625       -4.27871886496097       -1.80440134008993
H            6.22977406266653       -2.11834287154418       -0.78098497675982
H            5.06162236174071        2.25305918466354       -0.86841257950837
H            7.08236712845069        3.38212650426308       -0.01949027925251
H            8.58401769161135        2.21328101869368        1.55069550511589
H            8.04537692541835       -0.07763649714113        2.29065535387715
H            5.99911890216913       -1.18889495244655        1.48100066192441
H            3.23801766479763        2.24578164672428        0.76647828910775

 projected vibrational frequencies (cm⁻¹)
eigval :       -0.00    -0.00    -0.00     0.00     0.00     0.00
eigval :       12.38    13.67    18.71    35.08    39.41    43.52
eigval :       49.56    50.52    55.43    64.37    67.21    78.08
eigval :       86.80    95.76   111.08   113.38   133.40   151.62
eigval :      154.16   176.65   186.12   196.12   198.02   208.76
eigval :      222.57   224.41   229.24   249.64   257.63   265.31
eigval :      272.47   292.40   309.50   315.65   337.48   356.65
eigval :      370.73   372.97   373.60   377.56   381.35   384.26
eigval :      389.53   396.14   413.12   422.64   429.44   442.32
eigval :      444.65   476.69   479.01   503.34   509.99   524.58
eigval :      536.83   546.16   547.28   555.65   565.11   579.57
eigval :      581.41   586.92   587.29   590.62   593.75   618.20
eigval :      625.27   633.02   641.61   650.20   651.34   653.24
eigval :      665.54   673.17   685.03   705.62   711.95   722.51
eigval :      740.08   749.11   749.87   764.11   776.73   776.81
eigval :      792.43   806.00   824.44   841.19   852.38   860.55
eigval :      864.32   871.64   871.91   880.48   881.94   884.63
eigval :      904.04   908.40   909.34   912.97   920.53   921.39
eigval :      921.65   923.40   924.39   925.09   926.92   930.21
eigval :      933.84   934.75   938.98   964.27   968.64   972.43
eigval :      993.60  1001.37  1007.74  1020.09  1070.32  1071.12
eigval :     1072.19  1075.25  1079.67  1081.81  1101.08  1109.39
eigval :     1110.62  1113.57  1117.99  1124.39  1129.74  1133.89
eigval :     1149.27  1165.24  1175.13  1178.44  1179.40  1179.82
eigval :     1181.03  1183.77  1189.75  1194.99  1200.72  1207.02
eigval :     1222.80  1228.32  1245.12  1259.95  1262.95  1270.07
eigval :     1271.59  1273.34  1279.29  1285.29  1301.36  1315.59
eigval :     1317.56  1324.99  1332.37  1334.17  1338.92  1351.88
eigval :     1358.01  1365.44  1372.61  1390.21  1398.46  1401.41
eigval :     1414.87  1424.44  1432.76  1434.49  1435.78  1436.10
eigval :     1442.36  1454.24  1462.34  1466.26  1480.71  1485.12
eigval :     1487.19  1490.24  1492.41  1504.06  1528.47  1547.50
eigval :     1548.29  1549.86  1579.25  1579.67  1580.59  1581.47
eigval :     1583.86  1588.66  1593.71  1594.81  1608.27  3028.19
eigval :     3030.59  3034.67  3034.90  3050.22  3052.61  3063.50
eigval :     3065.69  3069.13  3069.53  3081.29  3082.18  3083.75
eigval :     3084.26  3084.83  3085.16  3088.01  3092.61  3093.39
eigval :     3094.68  3094.89  3095.70  3096.78  3097.25  3097.88
eigval :     3101.46  3101.98  3113.26  3117.84  3118.24  3119.47

   temp. (K)  partition function   enthalpy   heat capacity  entropy
                                   cal/mol     cal/K/mol   cal/K/mol   J/K/mol
 298.15  VIB  0.439E+17            22230.390    141.833    137.506
         ROT  0.689E+08              888.752      2.981     38.848
         INT  0.302E+25            23119.142    144.814    176.354
         TR   0.144E+29             1481.254      4.968     45.067
         TOT                       24600.3964   149.7818   221.4203   926.4226

       T/K    H(0)-H(T)+PV         H(T)/Eh          T*S/Eh         G(T)/Eh
   ------------------------------------------------------------------------
    298.15    0.392032E-01    0.641172E+00    0.105204E+00    0.535968E+00
   ------------------------------------------------------------------------

         :::::::::::::::::::::::::::::::::::::::::::::::::::::
         ::                  THERMODYNAMIC                  ::
         :::::::::::::::::::::::::::::::::::::::::::::::::::::
         :: total free energy        -119.845657087128 Eh   ::
         ::.................................................::
         :: total energy             -120.381624845073 Eh   ::
         :: zero point energy           0.601968467081 Eh   ::
         :: G(RRHO) w/o ZPVE           -0.066000709137 Eh   ::
         :: G(RRHO) contrib.            0.535967757944 Eh   ::
         :::::::::::::::::::::::::::::::::::::::::::::::::::::

           -------------------------------------------------
          | TOTAL ENERGY             -120.381624845073 Eh   |
          | TOTAL ENTHALPY           -119.740453150920 Eh   |
          | TOTAL FREE ENERGY        -119.845657087128 Eh   |
          | GRADIENT NORM               0.000112377266 Eh/α |
           -------------------------------------------------

 * finished run on 2025/07/19 at 13:23:01.293
