   * xtb version 6.7.1 (edcfbbe) compiled by 'albert@albert-system' on 2024-07-22

   ID    Z sym.   atoms
    1    6 C      1-9, 11, 13-19, 21-27, 29-37, 39-47
    2    7 N      10, 12, 20, 28, 38
    3    1 H      48-78

          program call               : xtb data2507/gas/3DPTIA/3DPTIA.xyz --gfn 2 --ohess vtight --parallel 40 --molden --ceasefiles --namespace data2507/gas/3DPTIA/3DPTIA_gas_S0_preOpt
          :  Hamiltonian                  GFN2-xTB          :
 * total energy  :  -120.4217130 Eh     change       -0.2033190E-08 Eh
 * total energy  :  -120.4380350 Eh     change       -0.1632198E-01 Eh
 * total energy  :  -120.4446138 Eh     change       -0.6578737E-02 Eh
 * total energy  :  -120.4464723 Eh     change       -0.1858545E-02 Eh
 * total energy  :  -120.4470993 Eh     change       -0.6269666E-03 Eh
 * total energy  :  -120.4472741 Eh     change       -0.1748690E-03 Eh
 * total energy  :  -120.4473646 Eh     change       -0.9048041E-04 Eh
 * total energy  :  -120.4474501 Eh     change       -0.8549739E-04 Eh
 * total energy  :  -120.4475344 Eh     change       -0.8431037E-04 Eh
 * total energy  :  -120.4476157 Eh     change       -0.8126752E-04 Eh
 * total energy  :  -120.4623378 Eh     change       -0.7924166E-06 Eh
 * total energy  :  -120.4623385 Eh     change       -0.7588617E-06 Eh
 * total energy  :  -120.4623393 Eh     change       -0.7293579E-06 Eh
 * total energy  :  -120.4623400 Eh     change       -0.7057336E-06 Eh
 * total energy  :  -120.4623407 Eh     change       -0.6870661E-06 Eh
 * total energy  :  -120.4623413 Eh     change       -0.6739112E-06 Eh
 * total energy  :  -120.4623420 Eh     change       -0.6650021E-06 Eh
 * total energy  :  -120.4623427 Eh     change       -0.6608619E-06 Eh
 * total energy  :  -120.4623427 Eh     change       -0.6138677E-08 Eh
   *** GEOMETRY OPTIMIZATION CONVERGED AFTER 260 ITERATIONS ***

 final structure:
================
78
 xtb: 6.7.1 (edcfbbe)
C            2.28499029221557        3.63361951626115        0.84711650642102
C            1.06023092880885        2.75692675540381        0.58446770635906
C            0.30282564377725        2.57875430440798        1.91748788296236
C            0.10435214595719        3.37906595063873       -0.41647406289287
C            0.13435366630962        4.71075846557438       -0.80170046283825
C           -0.81345566766914        5.22188603774002       -1.67200910974897
C           -1.80339686259147        4.40159920044897       -2.18242963745502
C           -1.83895766636438        3.06588875682234       -1.83015327370332
C           -0.89784543444758        2.56052599093869       -0.94381960682223
N           -0.88045404338289        1.19318054622917       -0.60956288808142
C           -2.00853046243370        0.50922456723292       -0.30223526376772
N           -3.15903846038280        1.18542790903171       -0.25752505106377
C           -4.22811888558207        0.47972928538498        0.08043535356791
C           -5.50407424644165        1.19282327371007        0.16791948640517
C           -6.67080905500341        0.50517808387597        0.49264930137519
C           -7.87177131278916        1.18274095093755        0.57697002759890
C           -7.91815409330778        2.54752290459663        0.33906266021250
C           -6.75896659812354        3.23592652083437        0.01608376872339
C           -5.55462645809070        2.56485475708657       -0.06997919876024
N           -4.21958576060266       -0.82646765714326        0.34003912156417
C           -3.02716019586348       -1.41462913938148        0.28104128871631
C           -2.94392689455063       -2.85436372195979        0.53615517521261
C           -1.70474869774632       -3.49245163832303        0.53213637551155
C           -1.62897844634683       -4.85538267088743        0.74361583099234
C           -2.78377163922807       -5.59038881294767        0.96328875522934
C           -4.01767337410306       -4.95868092350572        0.97379338920870
C           -4.10090784863588       -3.59608273165156        0.76092958646222
N           -1.89807026621923       -0.78850914142013       -0.01349239252881
C            0.40044458075018        0.60610329057367       -0.50500332055500
C            0.63088329400272       -0.66542065743941       -0.99946048988870
C            1.89478717624837       -1.21304029126472       -0.85068153366776
C            2.46773888016437       -2.48220598934300       -1.19717063396287
C            1.94983991958328       -3.64046043892071       -1.76130685361966
C            2.78748094129765       -4.72534973409280       -1.92563118151601
C            4.11994304338881       -4.66923121061907       -1.52222839043019
C            4.65599825769935       -3.52927938916741       -0.95396864705265
C            3.82539738561257       -2.42794724543535       -0.80499725792827
N            4.08936205809568       -1.19462498399547       -0.24091309655347
C            5.32043150931707       -0.77649837950109        0.28189905428046
C            6.48244165302690       -0.90565731645830       -0.47339800230642
C            7.69488006017811       -0.49553778883234        0.04924504351841
C            7.75894956296017        0.05500022545562        1.31852938953330
C            6.60306748098412        0.18862151058876        2.06977550400080
C            5.38784897031720       -0.22915038799910        1.56025079594961
C            2.92417147573322       -0.45348079866161       -0.25522324720418
C            2.70331686051385        0.84839504016181        0.16879578740710
C            1.42870437558237        1.37852918653866        0.06461123271365
H            2.92319616498240        3.17548976859409        1.59835945998592
H            1.97661170760530        4.60029168844298        1.23675269582171
H            2.86006136401689        3.78399308621468       -0.06381911901737
H           -0.58406040304381        1.96400983197319        1.78930059972836
H            0.94874085823108        2.09986401093098        2.65066363596962
H           -0.00634159204587        3.54897716326226        2.30097020933250
H            0.89661165588472        5.37136750602471       -0.42171396311569
H           -0.77528389540581        6.26443604979883       -1.95087347159654
H           -2.54061678354990        4.79642240238538       -2.86529077324988
H           -2.59342237900898        2.41208549823850       -2.23596479235223
H           -6.61339887951637       -0.55634486717881        0.67515245109035
H           -8.77623002979530        0.64842810415620        0.82933968130449
H           -8.85850429939697        3.07539272961640        0.40637142511314
H           -6.79720809203350        4.29991832016118       -0.16759141969384
H           -4.64089663776571        3.08333380153943       -0.31687973977552
H           -0.81532488335465       -2.90514683708014        0.36429551718175
H           -0.66706632372117       -5.34747813703741        0.73628302754704
H           -2.72229629410428       -6.65665289696049        1.12689012144050
H           -4.91605077561119       -5.53343327925322        1.14652191911400
H           -5.05194047529508       -3.08708311641396        0.76062076873437
H           -0.15781629495999       -1.21810639894761       -1.47973795877596
H            0.91204497100546       -3.68792517195572       -2.05493531501525
H            2.40700041273012       -5.63617980070023       -2.36355322131815
H            4.74737955816181       -5.53902152959489       -1.65050401586355
H            5.68385803281960       -3.50489445394581       -0.62455124860863
H            6.42524494088295       -1.31458397210545       -1.47106729475778
H            8.59327021615108       -0.59871569807817       -0.54116737488131
H            8.70685151045492        0.37807231272686        1.72149588790513
H            6.64927866699508        0.61197346635094        3.06236182236279
H            4.48848038394878       -0.15093351971231        2.15269251307806
H            3.51840880213052        1.42500395704249        0.57264455046840

          :  Hamiltonian                  GFN2-xTB          :
         :: gradient norm              0.000064147055 Eh/a0 ::
         :: HOMO-LUMO gap              2.193107701291 eV    ::
         :: SCC energy              -122.637345230035 Eh    ::
         :: -> dispersion             -0.111276759686 Eh    ::
         :: repulsion energy           2.175002567602 Eh    ::

    * Orbital Energies and Occupations

         #    Occupation            Energy/Eh            Energy/eV
      -------------------------------------------------------------
         1        2.0000           -0.6773015             -18.4303
       ...           ...                  ...                  ...
       100        2.0000           -0.4123860             -11.2216
       101        2.0000           -0.4094625             -11.1420
       102        2.0000           -0.4043613             -11.0032
       103        2.0000           -0.4033838             -10.9766
       104        2.0000           -0.4030089             -10.9664
       105        2.0000           -0.3990150             -10.8578
       106        2.0000           -0.3981539             -10.8343
       107        2.0000           -0.3972205             -10.8089
       108        2.0000           -0.3793271             -10.3220
       109        2.0000           -0.3722338             -10.1290
       110        2.0000           -0.3610708              -9.8252
       111        2.0000           -0.3601658              -9.8006
       112        2.0000           -0.3548589              -9.6562 (HOMO)
       113                         -0.2742637              -7.4631 (LUMO)
       114                         -0.2576583              -7.0112
       115                         -0.2455257              -6.6811
       116                         -0.2352277              -6.4009
       117                         -0.2339538              -6.3662
       118                         -0.2234053              -6.0792
       119                         -0.2222610              -6.0480
       120                         -0.2208672              -6.0101
       121                         -0.2205072              -6.0003
       122                         -0.2201512              -5.9906
       123                         -0.2002182              -5.4482
       ...                                ...                  ...
       219                          0.7474384              20.3388
      -------------------------------------------------------------
                  HL-Gap            0.0805952 Eh            2.1931 eV

     #   Z          covCN         q      C6AA      α(0)
     1   6 C        3.759    -0.106    22.582     6.775
     2   6 C        3.911     0.024    20.119     6.375
     3   6 C        3.764    -0.096    22.383     6.744
     4   6 C        2.985    -0.005    28.143     8.702
     5   6 C        2.924    -0.039    28.963     8.826
     6   6 C        2.919    -0.037    28.915     8.818
     7   6 C        2.920    -0.032    28.789     8.799
     8   6 C        2.921    -0.038    28.940     8.822
     9   6 C        2.943     0.063    26.583     8.456
    10   7 N        2.767    -0.061    22.421     7.033
    11   6 C        2.932     0.256    22.709     7.815
    12   7 N        1.848    -0.329    29.382     8.034
    13   6 C        2.988     0.202    23.708     7.987
    14   6 C        2.985     0.000    28.020     8.683
    15   6 C        2.924    -0.024    28.610     8.772
    16   6 C        2.919    -0.028    28.711     8.787
    17   6 C        2.920    -0.025    28.632     8.775
    18   6 C        2.919    -0.028    28.708     8.786
    19   6 C        2.924    -0.025    28.629     8.774
    20   7 N        1.843    -0.314    28.998     7.981
    21   6 C        2.987     0.202    23.705     7.987
    22   6 C        2.985    -0.000    28.023     8.684
    23   6 C        2.924    -0.025    28.638     8.776
    24   6 C        2.918    -0.028    28.704     8.786
    25   6 C        2.920    -0.025    28.630     8.775
    26   6 C        2.919    -0.029    28.713     8.787
    27   6 C        2.923    -0.024    28.611     8.772
    28   7 N        1.849    -0.328    29.348     8.029
    29   6 C        2.942     0.050    26.868     8.501
    30   6 C        2.914    -0.043    29.062     8.840
    31   6 C        3.071    -0.018    28.383     8.735
    32   6 C        3.069    -0.015    28.320     8.726
    33   6 C        2.912    -0.032    28.804     8.801
    34   6 C        2.920    -0.041    29.011     8.833
    35   6 C        2.924    -0.033    28.834     8.806
    36   6 C        2.910    -0.051    29.261     8.870
    37   6 C        3.077     0.047    26.875     8.499
    38   7 N        2.803    -0.042    22.060     6.976
    39   6 C        2.913     0.065    26.545     8.448
    40   6 C        2.922    -0.042    29.053     8.839
    41   6 C        2.920    -0.028    28.696     8.785
    42   6 C        2.919    -0.033    28.832     8.805
    43   6 C        2.920    -0.028    28.705     8.786
    44   6 C        2.922    -0.043    29.067     8.841
    45   6 C        3.074     0.042    26.991     8.518
    46   6 C        2.913    -0.061    29.515     8.909
    47   6 C        2.987    -0.008    28.208     8.712
    48   1 H        0.925     0.040     2.450     2.448
    49   1 H        0.925     0.042     2.428     2.437
    50   1 H        0.925     0.038     2.473     2.459
    51   1 H        0.925     0.036     2.505     2.475
    52   1 H        0.925     0.038     2.476     2.461
    53   1 H        0.925     0.039     2.458     2.452
    54   1 H        0.926     0.039     2.460     2.453
    55   1 H        0.926     0.033     2.545     2.495
    56   1 H        0.926     0.036     2.509     2.477
    57   1 H        0.926     0.048     2.344     2.394
    58   1 H        0.926     0.055     2.261     2.352
    59   1 H        0.926     0.034     2.524     2.485
    60   1 H        0.926     0.034     2.533     2.489
    61   1 H        0.926     0.034     2.531     2.488
    62   1 H        0.926     0.055     2.257     2.349
    63   1 H        0.926     0.057     2.236     2.338
    64   1 H        0.926     0.035     2.522     2.483
    65   1 H        0.926     0.034     2.535     2.490
    66   1 H        0.926     0.034     2.527     2.486
    67   1 H        0.926     0.054     2.270     2.356
    68   1 H        0.926     0.055     2.253     2.347
    69   1 H        0.926     0.034     2.531     2.488
    70   1 H        0.926     0.028     2.610     2.526
    71   1 H        0.926     0.029     2.599     2.521
    72   1 H        0.926     0.028     2.622     2.532
    73   1 H        0.926     0.041     2.435     2.440
    74   1 H        0.926     0.036     2.500     2.472
    75   1 H        0.926     0.035     2.516     2.480
    76   1 H        0.926     0.036     2.508     2.476
    77   1 H        0.926     0.040     2.447     2.446
    78   1 H        0.926     0.040     2.454     2.450

molecular dipole:
                 x           y           z       tot (Debye)
 q only:        1.099       0.438       0.197
   full:        1.086       0.430       0.256       3.040

 projected vibrational frequencies (cm⁻¹)
eigval :       -0.00    -0.00     0.00     0.00     0.00     0.00
eigval :       11.23    14.63    19.81    29.66    35.36    38.59
eigval :       42.13    50.84    57.81    64.80    66.53    72.18
eigval :       91.19    96.39   109.82   117.45   131.82   143.78
eigval :      156.42   184.64   188.18   194.94   201.53   206.18
eigval :      216.58   218.53   235.68   253.72   260.06   268.56
eigval :      285.57   288.61   315.52   327.67   347.23   365.92
eigval :      367.01   368.03   377.69   380.96   381.77   391.12
eigval :      404.80   409.93   420.87   423.76   433.77   444.65
eigval :      447.78   475.79   493.26   508.48   519.93   531.14
eigval :      538.77   550.28   572.83   582.29   586.02   587.55
eigval :      589.01   606.79   612.66   619.88   625.08   630.37
eigval :      637.15   645.24   654.89   666.41   669.25   673.85
eigval :      675.47   685.68   705.51   718.17   729.76   745.51
eigval :      754.13   764.35   775.74   776.62   779.30   786.61
eigval :      806.25   826.43   846.62   847.27   864.73   871.36
eigval :      874.16   880.05   882.48   884.89   902.58   907.40
eigval :      908.78   912.27   914.09   914.50   922.50   924.66
eigval :      928.28   931.54   932.77   933.57   934.35   934.94
eigval :      937.64   939.84   958.13   966.76   990.99   995.41
eigval :     1007.32  1015.64  1022.70  1048.74  1071.36  1075.30
eigval :     1076.72  1080.31  1083.55  1086.57  1107.75  1109.38
eigval :     1112.27  1117.99  1126.42  1143.78  1151.65  1166.96
eigval :     1169.60  1175.27  1179.65  1180.76  1181.27  1181.43
eigval :     1185.23  1187.44  1195.68  1203.15  1211.09  1225.18
eigval :     1227.56  1240.69  1248.52  1262.40  1266.10  1269.96
eigval :     1272.74  1273.25  1281.14  1291.58  1318.30  1324.73
eigval :     1327.11  1328.10  1329.05  1353.50  1362.10  1366.45
eigval :     1375.93  1385.84  1398.20  1414.98  1426.40  1432.23
eigval :     1434.76  1435.10  1438.12  1442.17  1446.04  1467.84
eigval :     1469.73  1472.58  1484.22  1486.48  1490.39  1492.45
eigval :     1494.58  1506.44  1511.96  1527.67  1534.09  1563.22
eigval :     1581.80  1584.07  1584.91  1586.80  1588.00  1595.21
eigval :     1595.82  1596.21  1596.58  1601.92  1616.02  3025.57
eigval :     3027.86  3032.18  3034.94  3048.23  3051.91  3071.24
eigval :     3071.41  3076.19  3077.63  3077.91  3078.58  3079.53
eigval :     3080.91  3082.28  3087.01  3087.40  3089.36  3090.41
eigval :     3090.96  3094.24  3096.02  3099.42  3102.59  3106.44
eigval :     3106.62  3108.59  3111.08  3115.23  3118.33  3129.90

   temp. (K)  partition function   enthalpy   heat capacity  entropy
                                   cal/mol     cal/K/mol   cal/K/mol   J/K/mol
 298.15  VIB  0.528E+17            21954.297    139.309    135.993
         ROT  0.700E+08              888.752      2.981     38.878
         INT  0.369E+25            22843.049    142.290    174.871
         TR   0.144E+29             1481.254      4.968     45.067
         TOT                       24324.3032   147.2584   219.9378   920.2199

       T/K    H(0)-H(T)+PV         H(T)/Eh          T*S/Eh         G(T)/Eh
   ------------------------------------------------------------------------
    298.15    0.387632E-01    0.645081E+00    0.104500E+00    0.540582E+00
   ------------------------------------------------------------------------

         :::::::::::::::::::::::::::::::::::::::::::::::::::::
         ::                  THERMODYNAMIC                  ::
         :::::::::::::::::::::::::::::::::::::::::::::::::::::
         :: total free energy        -119.921760897370 Eh   ::
         ::.................................................::
         :: total energy             -120.462342662431 Eh   ::
         :: zero point energy           0.606318088125 Eh   ::
         :: G(RRHO) w/o ZPVE           -0.065736323063 Eh   ::
         :: G(RRHO) contrib.            0.540581765061 Eh   ::
         :::::::::::::::::::::::::::::::::::::::::::::::::::::

           -------------------------------------------------
          | TOTAL ENERGY             -120.462342662431 Eh   |
          | TOTAL ENTHALPY           -119.817261329825 Eh   |
          | TOTAL FREE ENERGY        -119.921760897370 Eh   |
          | GRADIENT NORM               0.000064147356 Eh/α |
          | HOMO-LUMO GAP               2.193107695720 eV   |
           -------------------------------------------------

 * finished run on 2025/07/19 at 13:13:27.733
