   * xtb version 6.7.1 (edcfbbe) compiled by 'albert@albert-system' on 2024-07-22

   ID    Z sym.   atoms
    1    6 C      1-9, 11, 13-19, 21-27, 29-37, 39-47
    2    7 N      10, 12, 20, 28, 38
    3    1 H      48-78

          program call               : xtb data2507/gas/3DPTIA/3DPTIA_gas_S0_finalOpt.xtbopt.xyz --gfn 2 --spinpol --tblite --uhf 2 --ohess vtight --parallel 40 --molden --ceasefiles --namespace data2507/gas/3DPTIA/3DPTIA_gas_T1_preOpt
 * total energy  :  -120.3732902 Eh     change       -0.1461152E-07 Eh
 * total energy  :  -120.3788008 Eh     change       -0.5510588E-02 Eh
 * total energy  :  -120.3808168 Eh     change       -0.2016029E-02 Eh
 * total energy  :  -120.3809533 Eh     change       -0.1364567E-03 Eh
 * total energy  :  -120.3810628 Eh     change       -0.1094986E-03 Eh
 * total energy  :  -120.3811007 Eh     change       -0.3797568E-04 Eh
 * total energy  :  -120.3811371 Eh     change       -0.3635062E-04 Eh
 * total energy  :  -120.3811639 Eh     change       -0.2685513E-04 Eh
 * total energy  :  -120.3811875 Eh     change       -0.2361537E-04 Eh
 * total energy  :  -120.3812086 Eh     change       -0.2104555E-04 Eh
 * total energy  :  -120.3816203 Eh     change       -0.1952756E-06 Eh
 * total energy  :  -120.3816205 Eh     change       -0.1936278E-06 Eh
 * total energy  :  -120.3816206 Eh     change       -0.1450585E-06 Eh
 * total energy  :  -120.3816208 Eh     change       -0.1668723E-06 Eh
 * total energy  :  -120.3816210 Eh     change       -0.1891518E-06 Eh
 * total energy  :  -120.3816211 Eh     change       -0.1570762E-06 Eh
 * total energy  :  -120.3816213 Eh     change       -0.1897178E-06 Eh
 * total energy  :  -120.3816215 Eh     change       -0.1371413E-06 Eh
 * total energy  :  -120.3816215 Eh     change       -0.3083805E-07 Eh
   *** GEOMETRY OPTIMIZATION CONVERGED AFTER 94 ITERATIONS ***

 final structure:
================
78
 xtb: 6.7.1 (edcfbbe)
C            1.67660100841647        4.15836138392394        1.20251564508983
C            0.61881096665335        3.09433159508965        0.90746673095970
C           -0.04719915940155        2.69280135760650        2.24112423597218
C           -0.46998300440083        3.59871683586185       -0.02182224904853
C           -0.70502383303567        4.93853469467581       -0.28962053268278
C           -1.76655087006977        5.33128918358144       -1.08738381935930
C           -2.60918936593757        4.38348757516384       -1.63960941148970
C           -2.38293997743262        3.04083338859804       -1.40406471007236
C           -1.32530275750979        2.65089709335173       -0.59325828881328
N           -1.03833071556916        1.29230081461974       -0.37931010151089
C           -1.99750944739758        0.33898914821762       -0.17614497654936
N           -3.26834585517811        0.65917348525687       -0.26189359617413
C           -4.18436908890902       -0.32617252883714        0.03524667766375
C           -5.57729243114140        0.00998934152131        0.02727284075533
C           -5.99215638370798        1.32609999336699       -0.22831604449236
C           -7.33263118354852        1.64279177189194       -0.23779038346915
C           -8.28863546508157        0.66586297045402        0.00510527188713
C           -7.88790594557072       -0.63920240891011        0.26284671253561
C           -6.55153253846513       -0.96910827892468        0.27581884185600
N           -3.78852499357225       -1.55950550332114        0.30115130721624
C           -2.50424716669306       -1.86384971963869        0.32815710978695
C           -2.05278317744594       -3.20678414189255        0.53152802713610
C           -2.97041904571086       -4.26001537368155        0.66662973988193
C           -2.52542875864020       -5.55179195735121        0.83390937560614
C           -1.16413018902256       -5.82984471097955        0.86703295948469
C           -0.24773477867167       -4.79467348343834        0.73912791473503
C           -0.67956232163832       -3.49686764864025        0.57759873900477
N           -1.57095961341339       -0.86863776211165        0.16062967123160
C            0.31658925992709        0.93899695887817       -0.31972677379678
C            0.74864245202235       -0.26554784687553       -0.86250709219216
C            2.08303725195125       -0.60797727575357       -0.73234053506930
C            2.84442434437726       -1.77295460056885       -1.08565890829141
C            2.51455344674228       -2.98680688337154       -1.67245177956523
C            3.51920325804160       -3.91224299007007       -1.87696642551611
C            4.83650763652441       -3.63301567555652       -1.51905438546134
C            5.18645036957191       -2.43415187108816       -0.92682319596681
C            4.17733155803360       -1.51130067648425       -0.69192818185109
N            4.24769854054022       -0.25090389349464       -0.12811933812711
C            5.40653303202839        0.36591180815519        0.36566077941493
C            5.73796295780241        1.65492326293575       -0.04211907471067
C            6.87709230993145        2.26285173659755        0.45201983448584
C            7.69620423219945        1.59120082790935        1.34445081073799
C            7.36949832670264        0.30691027520559        1.74743844062629
C            6.22727218644143       -0.30607415327590        1.26666533030348
C            2.98621073393785        0.30134766897066       -0.13953896510001
C            2.55347501195927        1.52041221532829        0.36799745113600
C            1.21092549248188        1.84155519944716        0.28878380876943
H            2.41209255820128        3.77603808039193        1.90548174794637
H            1.21539593321912        5.02612260330320        1.66614518933316
H            2.18247873139377        4.46887709288320        0.29096722101894
H           -0.51930529454783        3.56123859918755        2.69549948038379
H           -0.80672696684134        1.93048002313197        2.08906204805040
H            0.70081442855400        2.29922915139475        2.92624216770333
H           -0.06472389110935        5.69811387910656        0.12822526258198
H           -1.93393855494106        6.38138456194396       -1.27423479462406
H           -3.43561071450510        4.68586514572268       -2.26460979703656
H           -3.01965251166419        2.29102262667421       -1.84350130512006
H           -5.24170056494086        2.08085403507644       -0.40883268856832
H           -7.64229972150628        2.65968898123445       -0.43460408970186
H           -9.33849746454840        0.91920678757085       -0.00432590413225
H           -8.63114085744883       -1.40028621699195        0.45435532656594
H           -6.22966606020193       -1.97972731533790        0.47516691182702
H           -4.02503183134806       -4.03343910457282        0.63255260034767
H           -3.23918984350339       -6.35688435423236        0.93678589667417
H           -0.82131978139794       -6.84616783159627        0.99358617913473
H            0.81244397942842       -5.00583269511823        0.76641763737604
H            0.02822658874931       -2.68654556092773        0.48959348235062
H            0.06450935066091       -0.91639290777914       -1.37998807373033
H            1.49548578041723       -3.19861696928209       -1.95728855864331
H            3.28589895913327       -4.86460259013627       -2.32857376526235
H            5.60258368112327       -4.37012741916126       -1.70842864914499
H            6.21214276764793       -2.22297137692299       -0.66499613759532
H            5.10964228323245        2.16502501187524       -0.75700039440407
H            7.13054742105128        3.26250417143042        0.13191605006879
H            8.58704240599876        2.06737881766214        1.72470911500615
H            8.00302438291625       -0.21817227180602        2.44657997697497
H            5.95609118118487       -1.29761325517023        1.59658515534043
H            3.25896948232619        2.17938964655887        0.84563141976738

 projected vibrational frequencies (cm⁻¹)
eigval :       -0.00    -0.00     0.00     0.00     0.00     0.00
eigval :       11.92    13.38    18.12    34.66    38.90    43.04
eigval :       49.23    50.09    55.08    64.44    66.59    77.72
eigval :       86.93    95.22   110.51   113.42   133.44   151.73
eigval :      154.07   176.61   185.71   195.57   197.32   208.61
eigval :      222.45   224.08   229.07   249.54   257.44   265.48
eigval :      273.01   292.33   309.80   315.34   337.56   356.63
eigval :      370.48   372.56   373.49   377.31   381.14   384.11
eigval :      389.10   396.28   412.88   422.66   429.00   441.93
eigval :      444.18   476.35   478.68   503.37   509.60   524.59
eigval :      536.75   546.24   546.76   555.22   564.97   579.34
eigval :      581.25   586.81   587.15   590.28   593.59   618.10
eigval :      625.26   632.23   641.57   649.84   651.04   653.04
eigval :      665.46   673.05   685.04   705.58   711.88   722.42
eigval :      740.03   748.51   749.25   763.69   776.17   776.34
eigval :      792.55   806.35   824.87   841.18   852.53   859.94
eigval :      863.60   871.20   871.53   879.90   881.34   884.08
eigval :      903.52   908.05   908.83   912.94   919.82   920.72
eigval :      921.00   922.75   923.84   924.27   926.98   929.83
eigval :      933.27   934.19   938.86   963.94   970.16   972.36
eigval :      993.63  1001.49  1007.38  1019.97  1070.30  1071.39
eigval :     1072.21  1075.02  1079.58  1081.56  1100.71  1109.00
eigval :     1110.91  1113.73  1117.68  1124.02  1129.94  1133.37
eigval :     1148.86  1165.11  1174.37  1177.52  1178.52  1178.90
eigval :     1180.03  1182.89  1189.01  1194.19  1199.65  1206.17
eigval :     1221.97  1227.76  1244.90  1259.55  1262.54  1269.67
eigval :     1271.15  1272.93  1278.80  1285.12  1301.29  1315.25
eigval :     1317.57  1325.14  1332.52  1334.03  1338.83  1351.73
eigval :     1358.12  1364.65  1372.64  1389.16  1397.35  1400.54
eigval :     1413.08  1424.11  1432.27  1434.05  1435.36  1435.81
eigval :     1441.97  1453.52  1462.49  1465.95  1480.20  1485.00
eigval :     1486.84  1489.05  1491.18  1502.73  1526.75  1547.46
eigval :     1548.64  1549.70  1579.35  1579.76  1580.72  1581.55
eigval :     1583.81  1588.72  1593.77  1594.88  1608.27  3027.73
eigval :     3029.95  3033.91  3034.21  3049.47  3051.30  3062.98
eigval :     3065.13  3068.60  3068.99  3080.61  3081.42  3083.06
eigval :     3083.67  3084.11  3084.58  3087.27  3091.90  3092.58
eigval :     3093.81  3094.18  3095.02  3095.73  3095.97  3097.59
eigval :     3100.69  3101.59  3112.58  3117.41  3117.65  3118.68

   temp. (K)  partition function   enthalpy   heat capacity  entropy
                                   cal/mol     cal/K/mol   cal/K/mol   J/K/mol
 298.15  VIB  0.520E+17            22246.351    141.826    137.682
         ROT  0.691E+08              888.752      2.981     38.853
         INT  0.359E+25            23135.103    144.807    176.535
         TR   0.144E+29             1481.254      4.968     45.067
         TOT                       24616.3572   149.7747   221.6013   927.1797

       T/K    H(0)-H(T)+PV         H(T)/Eh          T*S/Eh         G(T)/Eh
   ------------------------------------------------------------------------
    298.15    0.392287E-01    0.641015E+00    0.105290E+00    0.535725E+00
   ------------------------------------------------------------------------

         :::::::::::::::::::::::::::::::::::::::::::::::::::::
         ::                  THERMODYNAMIC                  ::
         :::::::::::::::::::::::::::::::::::::::::::::::::::::
         :: total free energy        -119.845896266811 Eh   ::
         ::.................................................::
         :: total energy             -120.381621463442 Eh   ::
         :: zero point energy           0.601786444918 Eh   ::
         :: G(RRHO) w/o ZPVE           -0.066061248286 Eh   ::
         :: G(RRHO) contrib.            0.535725196632 Eh   ::
         :::::::::::::::::::::::::::::::::::::::::::::::::::::

           -------------------------------------------------
          | TOTAL ENERGY             -120.381621463442 Eh   |
          | TOTAL ENTHALPY           -119.740606356318 Eh   |
          | TOTAL FREE ENERGY        -119.845896266811 Eh   |
          | GRADIENT NORM               0.000081904439 Eh/α |
           -------------------------------------------------

 * finished run on 2025/07/19 at 13:17:14.339
