   * xtb version 6.7.1 (edcfbbe) compiled by 'albert@albert-system' on 2024-07-22

   ID    Z sym.   atoms
    1    6 C      1-9, 11, 13-19, 21-27, 29-37, 39-47
    2    7 N      10, 12, 20, 28, 38
    3    1 H      48-78

          program call               : xtb data2507/gas/3DPTIA/3DPTIA_gas_S0_crest.xyz --gfn 2 --ohess vtight --parallel 40 --molden --ceasefiles --namespace data2507/gas/3DPTIA/3DPTIA_gas_S0_finalOpt
          :  Hamiltonian                  GFN2-xTB          :
 * total energy  :  -120.4624309 Eh     change       -0.2393421E-08 Eh
 * total energy  :  -120.4624320 Eh     change       -0.1084943E-05 Eh
 * total energy  :  -120.4624336 Eh     change       -0.1607893E-05 Eh
 * total energy  :  -120.4624351 Eh     change       -0.1509400E-05 Eh
 * total energy  :  -120.4624358 Eh     change       -0.7245965E-06 Eh
 * total energy  :  -120.4624367 Eh     change       -0.9045053E-06 Eh
 * total energy  :  -120.4624375 Eh     change       -0.7725377E-06 Eh
 * total energy  :  -120.4624380 Eh     change       -0.5375985E-06 Eh
 * total energy  :  -120.4624387 Eh     change       -0.7039842E-06 Eh
 * total energy  :  -120.4624394 Eh     change       -0.7294565E-06 Eh
 * total energy  :  -120.4624399 Eh     change       -0.4569274E-06 Eh
 * total energy  :  -120.4624400 Eh     change       -0.8330122E-07 Eh
   *** GEOMETRY OPTIMIZATION CONVERGED AFTER 12 ITERATIONS ***

 final structure:
================
78
 xtb: 6.7.1 (edcfbbe)
C            1.56435056954788        4.05555248233308        1.27056713564301
C            0.55220311383295        2.96691666117910        0.91286096815540
C           -0.16416489872949        2.53442965198717        2.20941926856522
C           -0.49940872200633        3.45136756738079       -0.06828022283115
C           -0.73734078818042        4.78510937051822       -0.36334399148242
C           -1.75500800549908        5.15259587244078       -1.22731136328809
C           -2.54498291153466        4.18579979978511       -1.82268098337341
C           -2.31160059031983        2.84916797914298       -1.56023349904315
C           -1.30321197646623        2.48492824980464       -0.67888258275880
N           -1.01283093838947        1.12978495727147       -0.42875243790402
C           -1.98291718251972        0.21553358744611       -0.18847615423206
N           -3.25040575745227        0.63495832940770       -0.16985712420299
C           -4.15942401379210       -0.29182726710787        0.09476145990315
C           -5.56047181298253        0.13251316214327        0.13252290772658
C           -5.88930214008384        1.47343897322123       -0.05550601481028
C           -7.21195908636797        1.87059102731527       -0.02241682692221
C           -8.21376332213171        0.93797470298988        0.19776774468886
C           -7.89053354455499       -0.39669071782560        0.38645645048317
C           -6.56988911791529       -0.80089626088400        0.35481498160811
N           -3.88577716252170       -1.57541871775192        0.32012347223501
C           -2.59469682280494       -1.89826757250851        0.29907757510228
C           -2.21939122614831       -3.29477068788135        0.53094439127483
C           -3.20118766592964       -4.26550641843022        0.71267917222066
C           -2.84053245070811       -5.58454032516016        0.91012855028190
C           -1.50203314956329       -5.94481685028099        0.92661984368892
C           -0.52118747672643       -4.98138833315447        0.74847730498673
C           -0.87458095920656       -3.66046493893824        0.55278116550546
N           -1.61299968950239       -1.04114829472461        0.06453478262694
C            0.36019095252495        0.81024944678731       -0.33354583250590
C            0.84817215751158       -0.36156948928789       -0.88365119188234
C            2.20209097416834       -0.63266250282071       -0.76753102415033
C            3.02048398135478       -1.74954635683171       -1.14397822790947
C            2.75220969475891       -2.96327790930855       -1.76273279782140
C            3.79993084384793       -3.83255702327260       -1.99118758282780
C            5.10183750131529       -3.49678112233425       -1.62561396518525
C            5.39189773683827       -2.29693664160479       -1.00430710818310
C            4.33954306777578       -1.43032724174074       -0.74607098723880
N            4.34951240568865       -0.18043758498592       -0.15732427253880
C            5.47429125308314        0.47922457000817        0.35619951295096
C            5.74100244256154        1.79484739049924       -0.01305355094946
C            6.84763927273982        2.44547503311699        0.49982095535475
C            7.70128482011097        1.79084061582749        1.37226524943768
C            7.44043831391630        0.48031942187733        1.73657765166184
C            6.32967187990913       -0.17487552002454        1.23823496869907
C            3.05840481715178        0.30981978147096       -0.16012655263072
C            2.56357925285732        1.48959964569372        0.37570960498309
C            1.20455717182585        1.74038772398467        0.29988018206242
H            2.27751556466959        3.68188685279773        2.00094802823755
H            1.05717544907821        4.90343967487346        1.72367530925108
H            2.10271071306259        4.39377264389570        0.38797043972322
H           -0.67265193452544        3.38730403172559        2.65446464682658
H           -0.90170310594340        1.76040610716840        2.01533748376432
H            0.56104806416751        2.14547780925056        2.92136905917102
H           -0.13415210892728        5.55849772692295        0.08379412327539
H           -1.92753155036817        6.19814762772029       -1.43518721752874
H           -3.33483064263296        4.46930153414537       -2.50199692695678
H           -2.90785828042291        2.08580568851985       -2.03234700187586
H           -5.09511791138168        2.18480899942302       -0.22251769762140
H           -7.46598393758177        2.91063010091044       -0.16760070114624
H           -9.24738991895196        1.25169347721914        0.22307315692853
H           -8.67281840226812       -1.12172569660878        0.55843074874311
H           -6.29765110059711       -1.83457160446590        0.49916457397892
H           -4.23723210296977       -3.96591568143806        0.69289089665356
H           -3.60301390713908       -6.33700305899542        1.05042458755594
H           -1.22325501774623       -6.97753363299591        1.07916079853464
H            0.52211950227532       -5.26210511477602        0.76198155616849
H           -0.12367307339226       -2.89749162007607        0.41767682651768
H            0.18748470753764       -1.05245680401728       -1.37794596873543
H            1.74448070510127       -3.21511466850746       -2.05688913838712
H            3.61462633336043       -4.78358300968001       -2.46798609010561
H            5.90380259463688       -4.18986919831733       -1.83332264073353
H            6.40672486054319       -2.04162325725177       -0.73877937331145
H            5.08696977809087        2.29339024831785       -0.71279997643681
H            7.04965370895938        3.46589298460708        0.20929639756718
H            8.56713992361380        2.30046810988545        1.76705314190726
H            8.10077203790263       -0.03236419308414        2.42029121239891
H            6.11033400914641       -1.18848161864047        1.53860840529666
H            3.23345934741960        2.17840124329672        0.86228980256424

          :  Hamiltonian                  GFN2-xTB          :
         :: gradient norm              0.000135772702 Eh/a0 ::
         :: HOMO-LUMO gap              2.191419074541 eV    ::
         :: SCC energy              -122.637355571649 Eh    ::
         :: -> dispersion             -0.111213977378 Eh    ::
         :: repulsion energy           2.174915590214 Eh    ::

    * Orbital Energies and Occupations

         #    Occupation            Energy/Eh            Energy/eV
      -------------------------------------------------------------
         1        2.0000           -0.6772170             -18.4280
       ...           ...                  ...                  ...
       100        2.0000           -0.4126020             -11.2275
       101        2.0000           -0.4098690             -11.1531
       102        2.0000           -0.4045581             -11.0086
       103        2.0000           -0.4033541             -10.9758
       104        2.0000           -0.4029965             -10.9661
       105        2.0000           -0.3989909             -10.8571
       106        2.0000           -0.3981517             -10.8343
       107        2.0000           -0.3972092             -10.8086
       108        2.0000           -0.3791073             -10.3160
       109        2.0000           -0.3725145             -10.1366
       110        2.0000           -0.3609805              -9.8228
       111        2.0000           -0.3601082              -9.7990
       112        2.0000           -0.3547385              -9.6529 (HOMO)
       113                         -0.2742054              -7.4615 (LUMO)
       114                         -0.2575865              -7.0093
       115                         -0.2457808              -6.6880
       116                         -0.2350416              -6.3958
       117                         -0.2339200              -6.3653
       118                         -0.2234901              -6.0815
       119                         -0.2222842              -6.0487
       120                         -0.2209197              -6.0115
       121                         -0.2204826              -5.9996
       122                         -0.2201390              -5.9903
       123                         -0.2001787              -5.4471
       ...                                ...                  ...
       219                          0.7474100              20.3381
      -------------------------------------------------------------
                  HL-Gap            0.0805331 Eh            2.1914 eV

     #   Z          covCN         q      C6AA      α(0)
     1   6 C        3.759    -0.106    22.579     6.774
     2   6 C        3.911     0.024    20.120     6.376
     3   6 C        3.763    -0.097    22.390     6.745
     4   6 C        2.985    -0.005    28.141     8.702
     5   6 C        2.924    -0.039    28.966     8.826
     6   6 C        2.919    -0.037    28.915     8.818
     7   6 C        2.921    -0.032    28.790     8.799
     8   6 C        2.920    -0.038    28.942     8.822
     9   6 C        2.943     0.063    26.586     8.457
    10   7 N        2.767    -0.061    22.420     7.032
    11   6 C        2.931     0.256    22.709     7.815
    12   7 N        1.848    -0.329    29.384     8.034
    13   6 C        2.988     0.202    23.708     7.987
    14   6 C        2.985     0.000    28.020     8.683
    15   6 C        2.924    -0.025    28.630     8.775
    16   6 C        2.919    -0.028    28.708     8.786
    17   6 C        2.920    -0.025    28.632     8.775
    18   6 C        2.919    -0.028    28.711     8.787
    19   6 C        2.924    -0.024    28.609     8.771
    20   7 N        1.843    -0.314    29.000     7.981
    21   6 C        2.987     0.202    23.706     7.987
    22   6 C        2.985    -0.000    28.023     8.684
    23   6 C        2.923    -0.024    28.611     8.772
    24   6 C        2.919    -0.029    28.713     8.787
    25   6 C        2.920    -0.025    28.631     8.775
    26   6 C        2.918    -0.028    28.704     8.786
    27   6 C        2.924    -0.025    28.637     8.776
    28   7 N        1.849    -0.328    29.352     8.030
    29   6 C        2.941     0.051    26.864     8.501
    30   6 C        2.914    -0.043    29.072     8.842
    31   6 C        3.071    -0.018    28.384     8.736
    32   6 C        3.069    -0.015    28.319     8.726
    33   6 C        2.912    -0.032    28.804     8.801
    34   6 C        2.920    -0.041    29.011     8.833
    35   6 C        2.924    -0.034    28.835     8.806
    36   6 C        2.910    -0.051    29.262     8.870
    37   6 C        3.077     0.046    26.876     8.500
    38   7 N        2.803    -0.043    22.061     6.976
    39   6 C        2.913     0.065    26.547     8.449
    40   6 C        2.922    -0.043    29.068     8.842
    41   6 C        2.920    -0.028    28.706     8.786
    42   6 C        2.919    -0.033    28.833     8.805
    43   6 C        2.920    -0.028    28.699     8.785
    44   6 C        2.922    -0.042    29.055     8.839
    45   6 C        3.074     0.041    26.993     8.518
    46   6 C        2.913    -0.061    29.513     8.908
    47   6 C        2.988    -0.008    28.205     8.712
    48   1 H        0.925     0.040     2.446     2.446
    49   1 H        0.925     0.041     2.429     2.437
    50   1 H        0.925     0.038     2.479     2.462
    51   1 H        0.925     0.039     2.460     2.453
    52   1 H        0.925     0.036     2.506     2.476
    53   1 H        0.925     0.039     2.467     2.456
    54   1 H        0.926     0.039     2.460     2.453
    55   1 H        0.926     0.033     2.546     2.495
    56   1 H        0.926     0.036     2.509     2.477
    57   1 H        0.926     0.049     2.332     2.388
    58   1 H        0.926     0.055     2.257     2.349
    59   1 H        0.926     0.034     2.531     2.488
    60   1 H        0.926     0.034     2.533     2.489
    61   1 H        0.926     0.034     2.524     2.485
    62   1 H        0.926     0.055     2.262     2.352
    63   1 H        0.926     0.054     2.270     2.356
    64   1 H        0.926     0.034     2.527     2.486
    65   1 H        0.926     0.034     2.535     2.490
    66   1 H        0.926     0.034     2.523     2.484
    67   1 H        0.926     0.057     2.236     2.338
    68   1 H        0.926     0.055     2.254     2.348
    69   1 H        0.926     0.034     2.532     2.489
    70   1 H        0.926     0.028     2.609     2.526
    71   1 H        0.926     0.029     2.599     2.521
    72   1 H        0.926     0.028     2.621     2.532
    73   1 H        0.926     0.041     2.441     2.443
    74   1 H        0.926     0.036     2.505     2.475
    75   1 H        0.926     0.035     2.516     2.480
    76   1 H        0.926     0.036     2.500     2.472
    77   1 H        0.926     0.041     2.431     2.438
    78   1 H        0.926     0.039     2.456     2.451

molecular dipole:
                 x           y           z       tot (Debye)
 q only:        0.990       0.646       0.241
   full:        0.979       0.635       0.295       3.060

 projected vibrational frequencies (cm⁻¹)
eigval :       -0.00    -0.00    -0.00    -0.00     0.00     0.00
eigval :       11.12    14.62    20.20    29.80    34.63    38.07
eigval :       42.36    50.61    57.18    65.98    67.09    72.43
eigval :       89.14    96.59   113.76   117.19   132.91   141.53
eigval :      154.97   183.82   190.76   195.28   201.57   209.38
eigval :      214.24   222.84   230.48   252.31   261.93   268.43
eigval :      284.91   295.91   317.04   323.83   343.86   365.38
eigval :      365.99   366.97   379.67   382.86   384.19   391.09
eigval :      404.75   408.25   422.49   424.68   428.68   445.29
eigval :      446.83   478.19   492.01   508.97   520.04   531.03
eigval :      538.33   550.40   573.58   582.27   586.68   587.62
eigval :      589.36   605.10   612.96   620.86   625.08   630.33
eigval :      637.01   644.25   654.79   666.47   669.24   674.21
eigval :      675.42   685.87   705.54   717.38   730.29   745.48
eigval :      754.17   764.11   775.80   776.71   779.42   786.60
eigval :      806.40   826.72   845.77   847.18   864.50   871.31
eigval :      874.40   880.07   882.32   884.81   902.37   907.36
eigval :      908.89   912.23   914.02   914.45   922.50   924.77
eigval :      928.30   931.52   932.76   933.40   934.34   935.00
eigval :      937.32   940.31   958.23   967.05   991.00   995.35
eigval :     1007.51  1015.95  1022.72  1048.82  1071.35  1075.34
eigval :     1076.77  1080.31  1083.40  1086.61  1107.56  1109.38
eigval :     1112.36  1118.08  1126.30  1143.75  1151.76  1167.64
eigval :     1169.71  1175.37  1179.61  1180.81  1181.30  1181.38
eigval :     1185.18  1187.46  1195.74  1203.06  1211.10  1225.61
eigval :     1227.48  1240.81  1248.36  1262.52  1265.85  1269.99
eigval :     1272.74  1273.06  1281.09  1291.00  1318.11  1324.85
eigval :     1327.13  1328.13  1329.05  1353.60  1362.24  1366.46
eigval :     1375.70  1385.73  1398.22  1415.22  1426.61  1432.23
eigval :     1434.81  1435.14  1438.04  1442.19  1446.06  1467.78
eigval :     1469.74  1472.53  1484.17  1486.51  1490.63  1492.63
eigval :     1494.52  1506.79  1511.87  1527.79  1534.26  1563.41
eigval :     1581.74  1584.01  1584.94  1586.72  1588.01  1595.15
eigval :     1595.84  1596.19  1596.53  1602.00  1616.06  3026.00
eigval :     3027.66  3031.97  3033.90  3047.84  3052.89  3071.15
eigval :     3071.39  3076.27  3077.61  3077.87  3078.89  3079.40
eigval :     3081.13  3082.39  3086.95  3087.36  3089.44  3090.35
eigval :     3091.21  3094.66  3096.12  3099.60  3102.66  3105.99
eigval :     3106.60  3108.62  3110.86  3116.49  3118.45  3130.15

   temp. (K)  partition function   enthalpy   heat capacity  entropy
                                   cal/mol     cal/K/mol   cal/K/mol   J/K/mol
 298.15  VIB  0.523E+17            21950.009    139.295    135.931
         ROT  0.701E+08              888.752      2.981     38.881
         INT  0.367E+25            22838.761    142.276    174.812
         TR   0.144E+29             1481.254      4.968     45.067
         TOT                       24320.0153   147.2437   219.8791   919.9743

       T/K    H(0)-H(T)+PV         H(T)/Eh          T*S/Eh         G(T)/Eh
   ------------------------------------------------------------------------
    298.15    0.387564E-01    0.645091E+00    0.104472E+00    0.540620E+00
   ------------------------------------------------------------------------

         :::::::::::::::::::::::::::::::::::::::::::::::::::::
         ::                  THERMODYNAMIC                  ::
         :::::::::::::::::::::::::::::::::::::::::::::::::::::
         :: total free energy        -119.921820342892 Eh   ::
         ::.................................................::
         :: total energy             -120.462439981430 Eh   ::
         :: zero point energy           0.606334899461 Eh   ::
         :: G(RRHO) w/o ZPVE           -0.065715260923 Eh   ::
         :: G(RRHO) contrib.            0.540619638538 Eh   ::
         :::::::::::::::::::::::::::::::::::::::::::::::::::::

           -------------------------------------------------
          | TOTAL ENERGY             -120.462439981430 Eh   |
          | TOTAL ENTHALPY           -119.817348670624 Eh   |
          | TOTAL FREE ENERGY        -119.921820342892 Eh   |
          | GRADIENT NORM               0.000135733460 Eh/α |
          | HOMO-LUMO GAP               2.191417872040 eV   |
           -------------------------------------------------

 * finished run on 2025/07/19 at 13:16:57.349
