   * xtb version 6.7.1 (edcfbbe) compiled by 'albert@albert-system' on 2024-07-22

   ID    Z sym.   atoms
    1    6 C      1-4, 6-28, 30-48
    2    7 N      5, 29
    3    1 H      49-84

          program call               : xtb data2507/gas/DTXO-TPA2/DTXO-TPA2.xyz --gfn 2 --ohess vtight --parallel 40 --molden --ceasefiles --namespace data2507/gas/DTXO-TPA2/DTXO-TPA2_gas_S0_preOpt
          :  Hamiltonian                  GFN2-xTB          :
 * total energy  :  -122.7071371 Eh     change       -0.1764803E-08 Eh
 * total energy  :  -122.7240493 Eh     change       -0.1691225E-01 Eh
 * total energy  :  -122.7303867 Eh     change       -0.6337413E-02 Eh
 * total energy  :  -122.7328020 Eh     change       -0.2415234E-02 Eh
 * total energy  :  -122.7345682 Eh     change       -0.1766215E-02 Eh
 * total energy  :  -122.7353680 Eh     change       -0.7998490E-03 Eh
 * total energy  :  -122.7357129 Eh     change       -0.3448824E-03 Eh
 * total energy  :  -122.7359455 Eh     change       -0.2326204E-03 Eh
 * total energy  :  -122.7361320 Eh     change       -0.1865075E-03 Eh
 * total energy  :  -122.7362809 Eh     change       -0.1488615E-03 Eh
 * total energy  :  -122.7370818 Eh     change       -0.4149218E-06 Eh
 * total energy  :  -122.7370822 Eh     change       -0.3425254E-06 Eh
 * total energy  :  -122.7370824 Eh     change       -0.2740571E-06 Eh
 * total energy  :  -122.7370827 Eh     change       -0.2524681E-06 Eh
 * total energy  :  -122.7370830 Eh     change       -0.2771366E-06 Eh
 * total energy  :  -122.7370833 Eh     change       -0.3110172E-06 Eh
 * total energy  :  -122.7370835 Eh     change       -0.2064562E-06 Eh
 * total energy  :  -122.7370836 Eh     change       -0.1036240E-06 Eh
 * total energy  :  -122.7370836 Eh     change       -0.1907921E-08 Eh
   *** GEOMETRY OPTIMIZATION CONVERGED AFTER 61 ITERATIONS ***

 final structure:
================
84
 xtb: 6.7.1 (edcfbbe)
C           -0.85356006755460        1.86473628187618        1.21599559697954
C           -1.51245206061263        0.81606642445475        0.37131536699522
C           -2.88993813474181        0.68799817764349        0.35636141491513
C           -3.52069532478426       -0.27927761779331       -0.42462897589716
N           -4.91744635482285       -0.36833614379934       -0.41451286346372
C           -5.56169637814576       -1.59365643676239       -0.58596737008829
C           -5.02123425596293       -2.76249316801979       -0.04649741979544
C           -5.67220988070119       -3.96924903596839       -0.20753487139005
C           -6.87284810869152       -4.03468368331372       -0.89592789373742
C           -7.41705270694631       -2.87723009684790       -1.42734566962630
C           -6.76920365095869       -1.66650748551692       -1.28174124671131
C           -5.66183730591228        0.82389697486830       -0.41289479585066
C           -5.30071904144071        1.85038807425208       -1.25751791074696
C           -6.03155150136413        3.04130621731132       -1.29770589951010
C           -7.13335060353988        3.20302640634007       -0.50485069349859
C           -7.52368457648983        2.18792474123109        0.39289787326090
C           -8.63902847840356        2.34946087600917        1.24179818004166
C           -8.98254861360978        1.38322905143152        2.14406012196242
C           -8.21235583040293        0.21626384093134        2.24813779673232
C           -7.13557374800632        0.02021164010377        1.42870089288757
C           -6.77229778619046        0.98403678756251        0.46530456625316
C           -2.74197357477873       -1.13054740364330       -1.20483782918337
C           -1.36657768340163       -1.01555176091236       -1.18154840185690
C           -0.73835800287950       -0.05175154153830       -0.40383285613830
C            0.73832354182640        0.05162566511026       -0.40389411986871
C            1.36650081291112        1.01518291407348       -1.18194610412518
C            2.74189363089014        1.13019903189883       -1.20531271886742
C            3.52065895796876        0.27914998390606       -0.42490673688512
N            4.91740853483775        0.36821842401737       -0.41488923868077
C            5.56163964901582        1.59350100879490       -0.58669656547548
C            5.02121228927677        2.76246764387103       -0.04747306531304
C            5.67217015363633        3.96918694022772       -0.20885394044675
C            6.87275808655679        4.03445828118547       -0.89734981421327
C            7.41693281802436        2.87687586570890       -1.42851759801967
C            6.76909929739437        1.66618598096831       -1.28257038447634
C            5.66180950389472       -0.82400850548014       -0.41301836900182
C            5.30064123596094       -1.85071815480351       -1.25735490620060
C            6.03148616157845       -3.04163680103938       -1.29729832659126
C            7.13335239491854       -3.20313920432797       -0.50449268383274
C            7.52374339209999       -2.18780447533447        0.39296728803493
C            8.63915627022075       -2.34911175455246        1.24182039218796
C            8.98273069915910       -1.38265091026599        2.14381626547688
C            8.21252815340921       -0.21567180698300        2.24766297307701
C            7.13567903163630       -0.01984039475195        1.42826155758343
C            6.77234169818021       -0.98391118936853        0.46513417962105
C            2.88994703204936       -0.68791261905707        0.35638600241819
C            1.51246159609658       -0.81596415358285        0.37146787911895
C            0.85361462820238       -1.86445115207981        1.21641015113801
H           -0.41140817778425        2.63457153443358        0.58418581226335
H           -1.57428049840884        2.33509843139910        1.88029200950387
H           -0.05115982006857        1.43072172363334        1.81075684333481
H           -3.49594989482026        1.34798830127329        0.96124060593628
H           -4.09429698781319       -2.71316768547250        0.50626685603537
H           -5.24280131739376       -4.86509385402882        0.21704819936311
H           -7.37993152065925       -4.97995808409778       -1.01608189764628
H           -8.35086674967854       -2.91788577329637       -1.96875960632035
H           -7.19330469938764       -0.76810481545161       -1.70571365248695
H           -4.44459502478999        1.72423125368315       -1.90458889706486
H           -5.72544896462667        3.82273209380432       -1.97755773469279
H           -7.71441447786599        4.11268070252231       -0.54545317335879
H           -9.21447785945286        3.26128840542637        1.16631821480642
H           -9.83826225675564        1.51626139726070        2.78978530509887
H           -8.47353219428637       -0.52951251675305        2.98448830448868
H           -6.54593945702939       -0.87807839408691        1.52789375098684
H           -3.21656443934107       -1.87247345017124       -1.82960355583035
H           -0.76431707499163       -1.67418962979399       -1.79110975022601
H            0.76419637922979        1.67377512698846       -1.79151210156573
H            3.21644373658522        1.87202727920518       -1.83022397575370
H            4.09431479090268        2.71327443979245        0.50536918744751
H            5.24279433127312        4.86513164941914        0.21555131443402
H            7.37983916001483        4.97970183636366       -1.01775306892884
H            8.35071203327889        2.91740158624456       -1.97000100365453
H            7.19317349544648        0.76768146956129       -1.70635375910160
H            4.44447264730196       -1.72473244001194       -1.90440025571713
H            5.72535055530339       -3.82323216030821       -1.97694042793865
H            7.71442913635803       -4.11279319107356       -0.54491498184428
H            9.21461378131727       -3.26094919048942        1.16652247910399
H            9.83849991738406       -1.51550655051198        2.78950365486947
H            8.47375015049443        0.53029202158164        2.98380714552809
H            6.54603718342909        0.87846371103734        1.52727993264403
H            3.49599869181226       -1.34779285456071        0.96134495862658
H            1.57442597410449       -2.33485210806778        1.88057839555722
H            0.05146067154857       -1.43020906486584        1.81133413541859
H            0.41114087996592       -2.63428793862144        0.58482450747410

          :  Hamiltonian                  GFN2-xTB          :
         :: gradient norm              0.000098707462 Eh/a0 ::
         :: HOMO-LUMO gap              2.285919521916 eV    ::
         :: SCC energy              -125.066433923171 Eh    ::
         :: -> dispersion             -0.117810179441 Eh    ::
         :: repulsion energy           2.329350327062 Eh    ::

    * Orbital Energies and Occupations

         #    Occupation            Energy/Eh            Energy/eV
      -------------------------------------------------------------
         1        2.0000           -0.6612153             -17.9926
       ...           ...                  ...                  ...
       103        2.0000           -0.4116682             -11.2021
       104        2.0000           -0.4019713             -10.9382
       105        2.0000           -0.4019452             -10.9375
       106        2.0000           -0.4002889             -10.8924
       107        2.0000           -0.3999433             -10.8830
       108        2.0000           -0.3970741             -10.8049
       109        2.0000           -0.3969114             -10.8005
       110        2.0000           -0.3922560             -10.6738
       111        2.0000           -0.3914953             -10.6531
       112        2.0000           -0.3806803             -10.3588
       113        2.0000           -0.3805409             -10.3550
       114        2.0000           -0.3457032              -9.4071
       115        2.0000           -0.3429832              -9.3330 (HOMO)
       116                         -0.2589772              -7.0471 (LUMO)
       117                         -0.2586367              -7.0379
       118                         -0.2283320              -6.2132
       119                         -0.2281208              -6.2075
       120                         -0.2276115              -6.1936
       121                         -0.2223448              -6.0503
       122                         -0.2194033              -5.9703
       123                         -0.2193940              -5.9700
       124                         -0.2159494              -5.8763
       125                         -0.2154321              -5.8622
       126                         -0.2061956              -5.6109
       ...                                ...                  ...
       228                          0.6960511              18.9405
      -------------------------------------------------------------
                  HL-Gap            0.0840060 Eh            2.2859 eV

     #   Z          covCN         q      C6AA      α(0)
     1   6 C        3.758    -0.105    22.566     6.773
     2   6 C        2.969     0.013    27.728     8.637
     3   6 C        2.928    -0.059    29.479     8.904
     4   6 C        2.924     0.061    26.643     8.465
     5   7 N        2.753    -0.077    22.738     7.082
     6   6 C        2.922     0.067    26.489     8.440
     7   6 C        2.922    -0.050    29.247     8.869
     8   6 C        2.920    -0.030    28.753     8.793
     9   6 C        2.919    -0.040    29.001     8.831
    10   6 C        2.920    -0.029    28.726     8.789
    11   6 C        2.922    -0.049    29.225     8.865
    12   6 C        2.923     0.059    26.676     8.470
    13   6 C        2.921    -0.049    29.212     8.863
    14   6 C        2.914    -0.031    28.780     8.797
    15   6 C        2.919    -0.044    29.093     8.845
    16   6 C        2.987     0.012    27.734     8.639
    17   6 C        2.920    -0.036    28.886     8.814
    18   6 C        2.915    -0.030    28.741     8.791
    19   6 C        2.917    -0.031    28.775     8.796
    20   6 C        2.917    -0.033    28.821     8.804
    21   6 C        2.985    -0.000    28.023     8.684
    22   6 C        2.920    -0.055    29.356     8.885
    23   6 C        2.923    -0.035    28.880     8.813
    24   6 C        2.982    -0.005    28.131     8.700
    25   6 C        2.982    -0.005    28.131     8.700
    26   6 C        2.923    -0.035    28.880     8.813
    27   6 C        2.920    -0.055    29.356     8.885
    28   6 C        2.924     0.061    26.643     8.465
    29   7 N        2.753    -0.077    22.738     7.082
    30   6 C        2.922     0.067    26.489     8.440
    31   6 C        2.922    -0.050    29.247     8.869
    32   6 C        2.920    -0.030    28.753     8.793
    33   6 C        2.919    -0.040    29.001     8.831
    34   6 C        2.920    -0.029    28.726     8.789
    35   6 C        2.922    -0.049    29.225     8.865
    36   6 C        2.923     0.059    26.676     8.470
    37   6 C        2.921    -0.049    29.212     8.863
    38   6 C        2.914    -0.031    28.780     8.797
    39   6 C        2.919    -0.044    29.093     8.845
    40   6 C        2.987     0.012    27.734     8.639
    41   6 C        2.920    -0.036    28.886     8.814
    42   6 C        2.915    -0.030    28.741     8.791
    43   6 C        2.917    -0.031    28.775     8.796
    44   6 C        2.917    -0.033    28.821     8.804
    45   6 C        2.985    -0.000    28.023     8.684
    46   6 C        2.928    -0.059    29.479     8.904
    47   6 C        2.969     0.013    27.728     8.637
    48   6 C        3.758    -0.105    22.566     6.773
    49   1 H        0.925     0.046     2.367     2.406
    50   1 H        0.925     0.040     2.453     2.449
    51   1 H        0.925     0.043     2.403     2.424
    52   1 H        0.926     0.029     2.598     2.520
    53   1 H        0.926     0.030     2.585     2.514
    54   1 H        0.926     0.029     2.601     2.522
    55   1 H        0.926     0.028     2.619     2.531
    56   1 H        0.926     0.029     2.600     2.522
    57   1 H        0.926     0.027     2.626     2.534
    58   1 H        0.926     0.031     2.573     2.508
    59   1 H        0.926     0.031     2.572     2.508
    60   1 H        0.926     0.031     2.573     2.508
    61   1 H        0.926     0.031     2.570     2.507
    62   1 H        0.926     0.030     2.591     2.517
    63   1 H        0.926     0.029     2.599     2.521
    64   1 H        0.926     0.034     2.537     2.491
    65   1 H        0.926     0.031     2.577     2.510
    66   1 H        0.926     0.028     2.608     2.525
    67   1 H        0.926     0.028     2.608     2.525
    68   1 H        0.926     0.031     2.577     2.510
    69   1 H        0.926     0.030     2.585     2.514
    70   1 H        0.926     0.029     2.601     2.522
    71   1 H        0.926     0.028     2.619     2.531
    72   1 H        0.926     0.029     2.600     2.522
    73   1 H        0.926     0.027     2.626     2.534
    74   1 H        0.926     0.031     2.573     2.508
    75   1 H        0.926     0.031     2.572     2.508
    76   1 H        0.926     0.031     2.573     2.508
    77   1 H        0.926     0.031     2.570     2.507
    78   1 H        0.926     0.030     2.591     2.517
    79   1 H        0.926     0.029     2.599     2.521
    80   1 H        0.926     0.034     2.537     2.491
    81   1 H        0.926     0.029     2.598     2.520
    82   1 H        0.925     0.040     2.453     2.449
    83   1 H        0.925     0.043     2.403     2.424
    84   1 H        0.925     0.046     2.367     2.406

molecular dipole:
                 x           y           z       tot (Debye)
 q only:       -0.000       0.000       0.271
   full:       -0.000       0.000       0.209       0.530

 projected vibrational frequencies (cm⁻¹)
eigval :       -0.00     0.00     0.00     0.00     0.00     0.00
eigval :        7.03    12.50    12.68    22.44    26.93    36.36
eigval :       39.39    48.73    50.26    51.17    55.55    65.85
eigval :       69.60    76.36    80.28    89.20    90.77   101.60
eigval :      128.36   142.64   157.37   163.82   165.04   177.39
eigval :      196.98   200.42   210.54   218.53   226.27   227.46
eigval :      257.99   262.78   263.15   290.42   296.87   304.11
eigval :      349.87   363.58   369.45   380.46   382.65   387.32
eigval :      395.19   406.53   411.73   418.22   435.57   436.14
eigval :      440.77   444.49   467.25   471.34   480.30   482.57
eigval :      490.64   494.02   514.00   525.40   526.82   534.61
eigval :      536.81   543.18   562.70   575.63   580.17   587.42
eigval :      590.56   597.87   608.84   616.00   631.44   652.86
eigval :      659.64   661.41   677.11   688.08   693.52   720.11
eigval :      720.12   725.82   753.97   754.47   758.83   758.94
eigval :      776.97   776.97   793.38   793.52   813.36   813.38
eigval :      829.84   831.75   847.71   848.17   872.25   872.27
eigval :      874.69   874.69   879.52   879.79   886.90   887.21
eigval :      887.50   887.55   889.39   889.42   916.24   916.25
eigval :      919.69   920.24   921.72   921.73   926.01   926.02
eigval :      929.02   929.02   929.99   930.06   967.86   969.26
eigval :      996.11  1002.60  1003.25  1030.20  1030.23  1032.18
eigval :     1035.67  1072.39  1072.40  1084.54  1084.55  1088.55
eigval :     1088.56  1121.33  1121.34  1124.81  1124.83  1128.65
eigval :     1160.04  1168.35  1168.49  1180.25  1180.69  1181.02
eigval :     1181.16  1183.32  1184.10  1196.94  1198.54  1198.84
eigval :     1200.14  1218.56  1221.99  1227.98  1236.72  1251.61
eigval :     1252.28  1252.88  1254.60  1272.95  1280.90  1287.00
eigval :     1310.68  1312.93  1315.78  1315.91  1321.13  1326.94
eigval :     1327.06  1337.71  1338.71  1351.67  1374.31  1375.40
eigval :     1393.07  1393.49  1405.26  1409.69  1418.79  1419.34
eigval :     1424.82  1429.24  1440.79  1441.51  1450.20  1450.75
eigval :     1471.97  1475.72  1476.02  1477.10  1478.72  1487.88
eigval :     1488.27  1508.65  1508.86  1509.79  1560.47  1561.35
eigval :     1561.48  1563.37  1577.93  1578.01  1591.85  1591.87
eigval :     1597.19  1597.83  1602.84  1603.16  1610.26  1610.26
eigval :     3004.47  3004.73  3022.36  3022.65  3041.94  3042.09
eigval :     3069.28  3069.28  3072.96  3073.13  3073.95  3074.05
eigval :     3074.07  3074.24  3074.65  3074.83  3075.84  3075.84
eigval :     3077.93  3077.94  3081.75  3081.77  3085.13  3085.13
eigval :     3087.54  3087.61  3088.31  3088.35  3090.35  3090.53
eigval :     3091.56  3091.57  3096.62  3096.67  3102.39  3102.41

   temp. (K)  partition function   enthalpy   heat capacity  entropy
                                   cal/mol     cal/K/mol   cal/K/mol   J/K/mol
 298.15  VIB  0.184E+20            23780.217    147.912    150.158
         ROT  0.504E+08              888.752      2.981     38.224
         INT  0.927E+27            24668.970    150.893    188.383
         TR   0.148E+29             1481.254      4.968     45.121
         TOT                       26150.2236   155.8609   233.5035   976.9788

       T/K    H(0)-H(T)+PV         H(T)/Eh          T*S/Eh         G(T)/Eh
   ------------------------------------------------------------------------
    298.15    0.416730E-01    0.706903E+00    0.110945E+00    0.595958E+00
   ------------------------------------------------------------------------

         :::::::::::::::::::::::::::::::::::::::::::::::::::::
         ::                  THERMODYNAMIC                  ::
         :::::::::::::::::::::::::::::::::::::::::::::::::::::
         :: total free energy        -122.141125732347 Eh   ::
         ::.................................................::
         :: total energy             -122.737083596104 Eh   ::
         :: zero point energy           0.665229890446 Eh   ::
         :: G(RRHO) w/o ZPVE           -0.069272026689 Eh   ::
         :: G(RRHO) contrib.            0.595957863757 Eh   ::
         :::::::::::::::::::::::::::::::::::::::::::::::::::::

           -------------------------------------------------
          | TOTAL ENERGY             -122.737083596104 Eh   |
          | TOTAL ENTHALPY           -122.030180671779 Eh   |
          | TOTAL FREE ENERGY        -122.141125732347 Eh   |
          | GRADIENT NORM               0.000098688091 Eh/α |
          | HOMO-LUMO GAP               2.285920805206 eV   |
           -------------------------------------------------

 * finished run on 2025/08/26 at 00:58:05.805
