   * xtb version 6.7.1 (edcfbbe) compiled by 'albert@albert-system' on 2024-07-22

   ID    Z sym.   atoms
    1    6 C      1-4, 6-28, 30-48
    2    7 N      5, 29
    3    1 H      49-84

          program call               : xtb data2507/gas/DTXO-TPA2/DTXO-TPA2_gas_T1_crest.xyz --gfn 2 --spinpol --tblite --uhf 2 --ohess vtight --parallel 40 --molden --ceasefiles --namespace data2507/gas/DTXO-TPA2/DTXO-TPA2_gas_T1_finalOpt
 * total energy  :  -122.6518962 Eh     change       -0.4393840E-08 Eh
 * total energy  :  -122.6519169 Eh     change       -0.2072250E-04 Eh
 * total energy  :  -122.6520474 Eh     change       -0.1305214E-03 Eh
 * total energy  :  -122.6522015 Eh     change       -0.1540473E-03 Eh
 * total energy  :  -122.6524493 Eh     change       -0.2478432E-03 Eh
 * total energy  :  -122.6520559 Eh     change        0.3934760E-03 Eh
 * total energy  :  -122.6528364 Eh     change       -0.7805441E-03 Eh
 * total energy  :  -122.6528895 Eh     change       -0.5307744E-04 Eh
 * total energy  :  -122.6529278 Eh     change       -0.3833989E-04 Eh
 * total energy  :  -122.6529420 Eh     change       -0.1414669E-04 Eh
 * total energy  :  -122.6530618 Eh     change       -0.4535222E-06 Eh
 * total energy  :  -122.6530622 Eh     change       -0.3818597E-06 Eh
 * total energy  :  -122.6530625 Eh     change       -0.3424455E-06 Eh
 * total energy  :  -122.6530629 Eh     change       -0.3234984E-06 Eh
 * total energy  :  -122.6530632 Eh     change       -0.3871298E-06 Eh
 * total energy  :  -122.6530638 Eh     change       -0.6000787E-06 Eh
 * total energy  :  -122.6530644 Eh     change       -0.5698579E-06 Eh
 * total energy  :  -122.6530649 Eh     change       -0.4748518E-06 Eh
 * total energy  :  -122.6530649 Eh     change       -0.2835320E-07 Eh
   *** GEOMETRY OPTIMIZATION CONVERGED AFTER 44 ITERATIONS ***

 final structure:
================
84
 xtb: 6.7.1 (edcfbbe)
C           -0.69917315182816        1.45892232741410       -1.45295444311752
C           -1.40653401238540        0.34732251758465       -0.73704452216498
C           -2.78798235403105        0.28568434553561       -0.80196094264102
C           -3.50660355338967       -0.74021394735695       -0.19004104050823
N           -4.89843331333603       -0.73418473847471       -0.21773868641121
C           -5.63019008876465       -1.92034014810264       -0.29594486031090
C           -6.88606149937416       -2.00096354028981        0.30777389936995
C           -7.62267941132987       -3.16588865000563        0.22967726133996
C           -7.12299665909006       -4.26901441498054       -0.44384972439760
C           -5.87850953277519       -4.19357384335672       -1.04773568133360
C           -5.13641246822356       -3.03068452373344       -0.98181656487503
C           -5.58568275596336        0.49151020280357       -0.31203526309903
C           -6.53669869063672        0.65732851102172       -1.29794781228924
C           -7.21839772883424        1.86666924239691       -1.44116309068030
C           -6.94050272210090        2.91915590738752       -0.61003241671780
C           -5.99073062711414        2.78556967283341        0.42343042254265
C           -5.71129154155908        3.85180029179777        1.30357948153146
C           -4.81973077709604        3.70311257905852        2.33089542039493
C           -4.18367685959726        2.47266763729434        2.53175948984120
C           -4.42264365688759        1.42021613212170        1.68803719418994
C           -5.31024028817459        1.54981505631797        0.60022085986107
C           -2.80277127578220       -1.75064035764625        0.47029427138138
C           -1.42821182090218       -1.70243428923858        0.52475565674383
C           -0.71115495081146       -0.65046625863147       -0.04483181793780
C            0.75651078752418       -0.65113655172161        0.07736284136645
C            1.47183649672876       -1.70748095390395       -0.48954245297417
C            2.84633400975905       -1.75307859857324       -0.44340603940378
C            3.54983775164917       -0.73169493620214        0.20178367539377
N            4.94242267257645       -0.70819715703811        0.20955176329600
C            5.66738098483711       -1.89446565601355        0.29945731627727
C            6.90943766240086       -1.99912884676431       -0.33576566409702
C            7.64401347016497       -3.16218764491426       -0.23456611868835
C            7.15974985376082       -4.23792428761305        0.49502688446423
C            5.92959338028599       -4.13868040685709        1.12919737435824
C            5.18714347404299       -2.97959667934431        1.03926813528283
C            5.62403375365541        0.50122893012654        0.21043476461071
C            6.72659925674704        0.64205495243893        1.11671688332223
C            7.36436936245555        1.83539966440353        1.25134734901291
C            6.96790432683306        2.94532135858611        0.47662330635702
C            5.92015870085435        2.84044717952676       -0.45947531442160
C            5.55490943780952        3.93126815963750       -1.26062803862406
C            4.55534152663462        3.81347693755313       -2.23203381009585
C            3.93914660503254        2.60389400715413       -2.42880067895214
C            4.28043401427168        1.49509367017009       -1.63701689219809
C            5.23710185585022        1.59577251101779       -0.62618801884307
C            2.83411439836695        0.29643271476766        0.81839262686886
C            1.45386246690313        0.35094622425854        0.76569591700652
C            0.74569725551109        1.46073816065348        1.48234920291005
H           -0.85145670439338        2.40271117525099       -0.93013431639702
H            0.36836523784689        1.26916774468317       -1.52406077125574
H           -1.10449932207696        1.57071245268961       -2.45727847049464
H           -3.32490512951140        1.05120064355158       -1.34382566045934
H           -7.27313304635952       -1.14342134672882        0.83850455923736
H           -8.59168805897312       -3.21553305454110        0.70422380905648
H           -7.70039723435961       -5.17922238827811       -0.50050527752541
H           -5.48576019574174       -5.04468139199527       -1.58472029469432
H           -4.17512128412603       -2.97012636818658       -1.47070000090420
H           -6.74454090035111       -0.16087771960047       -1.97260338399368
H           -7.95308560442825        1.96759055556941       -2.22627096121638
H           -7.45081698076604        3.86378683354389       -0.72783066123048
H           -6.22319210321556        4.79147225463592        1.15205845201371
H           -4.61250877755162        4.52676250518512        2.99846395969587
H           -3.50236086789022        2.35380483696806        3.36170828107216
H           -3.93480862207608        0.47432367933247        1.86676311845958
H           -3.34075818203398       -2.55293682243921        0.95295152592479
H           -0.88784675030452       -2.47700399143322        1.05001084802292
H            0.92830317960503       -2.48563647339264       -1.00555267153820
H            3.38534125876885       -2.55270059832150       -0.92966391907365
H            7.27443422883133       -1.16452428852025       -0.91578520259416
H            8.59867269620060       -3.23456743817386       -0.73397235400810
H            7.73694920883626       -5.14657974574391        0.57087352719743
H            5.55190390394210       -4.96930227751068        1.70692726574007
H            4.24070446462217       -2.89502322204520        1.55278440489607
H            6.98966128195654       -0.20410976850252        1.73397950369346
H            8.16978975546253        1.94699444401431        1.96179480062409
H            7.48090619922729        3.88811793519996        0.58725866059794
H            6.06801020799531        4.87199061108914       -1.12592191425550
H            4.28429060821104        4.67360017003420       -2.82643280632995
H            3.17651383497091        2.49000850490880       -3.18540308483605
H            3.78935244708082        0.55432437288858       -1.83227938952559
H            3.37850811037056        1.06016261281455        1.35498119154022
H           -0.31947007897233        1.26185656131040        1.56368310279075
H            1.16035670522266        1.58214836923885        2.48162270762465
H            0.88599044241474        2.40155933811389        0.95127951380964

 projected vibrational frequencies (cm⁻¹)
eigval :       -0.00    -0.00     0.00     0.00     0.00     0.00
eigval :        9.96    11.12    12.38    25.85    30.93    31.95
eigval :       39.42    42.45    47.69    58.24    62.03    67.32
eigval :       69.74    84.25   101.79   112.94   120.95   123.29
eigval :      141.76   153.83   158.86   163.90   173.36   174.23
eigval :      196.77   202.40   216.12   220.43   226.68   230.65
eigval :      245.03   251.55   274.64   275.79   278.17   331.13
eigval :      336.00   347.26   359.75   377.90   382.55   385.29
eigval :      393.84   407.03   419.39   427.57   433.74   437.17
eigval :      441.01   442.43   454.31   462.40   465.74   475.53
eigval :      482.19   497.41   501.28   509.06   514.89   527.10
eigval :      530.15   540.31   552.53   561.92   577.69   584.12
eigval :      585.68   587.82   596.53   607.15   617.49   645.20
eigval :      656.80   660.13   665.94   681.66   683.75   692.84
eigval :      706.89   716.21   720.04   734.82   751.05   754.25
eigval :      754.68   771.26   775.82   790.51   797.10   804.55
eigval :      806.56   806.85   825.71   828.73   832.72   839.07
eigval :      851.21   867.12   868.07   869.11   873.36   875.68
eigval :      876.56   879.27   882.80   883.84   889.58   891.86
eigval :      893.94   908.66   915.25   916.07   920.03   924.28
eigval :      924.91   926.84   927.06   930.02   966.82   969.52
eigval :      992.18   994.49   999.33  1030.58  1032.92  1034.70
eigval :     1038.11  1039.84  1066.89  1074.46  1077.65  1082.92
eigval :     1090.01  1092.50  1107.09  1120.48  1121.33  1123.30
eigval :     1123.92  1157.34  1166.02  1172.13  1176.29  1178.37
eigval :     1179.45  1180.14  1180.40  1185.11  1191.02  1191.89
eigval :     1194.91  1197.78  1214.52  1219.08  1222.77  1239.40
eigval :     1247.88  1251.79  1254.84  1256.67  1274.01  1276.41
eigval :     1280.31  1284.73  1298.96  1306.23  1316.31  1319.60
eigval :     1324.34  1327.31  1330.95  1337.86  1348.31  1366.46
eigval :     1370.40  1383.96  1388.47  1399.36  1400.50  1404.47
eigval :     1413.86  1419.74  1427.01  1435.86  1436.04  1439.22
eigval :     1444.22  1453.97  1462.95  1466.19  1471.79  1474.97
eigval :     1478.28  1486.97  1487.79  1498.67  1502.05  1506.09
eigval :     1518.57  1533.92  1549.69  1551.06  1555.94  1564.67
eigval :     1566.58  1576.23  1585.08  1590.13  1592.74  1596.64
eigval :     3003.36  3007.51  3023.59  3025.51  3050.00  3052.15
eigval :     3068.87  3069.17  3073.85  3074.05  3074.48  3075.43
eigval :     3075.57  3075.73  3077.09  3077.84  3079.26  3080.34
eigval :     3080.65  3081.33  3081.70  3084.47  3086.19  3086.37
eigval :     3086.59  3088.78  3089.13  3090.29  3090.90  3091.09
eigval :     3092.74  3093.97  3096.30  3097.33  3099.64  3100.67

   temp. (K)  partition function   enthalpy   heat capacity  entropy
                                   cal/mol     cal/K/mol   cal/K/mol   J/K/mol
 298.15  VIB  0.566E+19            23850.348    150.087    148.689
         ROT  0.925E+08              888.752      2.981     39.432
         INT  0.523E+27            24739.101    153.068    188.121
         TR   0.148E+29             1481.254      4.968     45.121
         TOT                       26220.3545   158.0358   233.2414   975.8819

       T/K    H(0)-H(T)+PV         H(T)/Eh          T*S/Eh         G(T)/Eh
   ------------------------------------------------------------------------
    298.15    0.417848E-01    0.702757E+00    0.110820E+00    0.591936E+00
   ------------------------------------------------------------------------

         :::::::::::::::::::::::::::::::::::::::::::::::::::::
         ::                  THERMODYNAMIC                  ::
         :::::::::::::::::::::::::::::::::::::::::::::::::::::
         :: total free energy        -122.061128591283 Eh   ::
         ::.................................................::
         :: total energy             -122.653064929047 Eh   ::
         :: zero point energy           0.660972041699 Eh   ::
         :: G(RRHO) w/o ZPVE           -0.069035703935 Eh   ::
         :: G(RRHO) contrib.            0.591936337764 Eh   ::
         :::::::::::::::::::::::::::::::::::::::::::::::::::::

           -------------------------------------------------
          | TOTAL ENERGY             -122.653064929047 Eh   |
          | TOTAL ENTHALPY           -121.950308092677 Eh   |
          | TOTAL FREE ENERGY        -122.061128591283 Eh   |
          | GRADIENT NORM               0.000044054303 Eh/α |
           -------------------------------------------------

 * finished run on 2025/08/26 at 01:24:27.484
