   * xtb version 6.7.1 (edcfbbe) compiled by 'albert@albert-system' on 2024-07-22

   ID    Z sym.   atoms
    1    6 C      1-4, 6-28, 30-48
    2    7 N      5, 29
    3    1 H      49-84

          program call               : xtb data2507/gas/DTXO-TPA2/DTXO-TPA2_gas_S0_crest.xyz --gfn 2 --ohess vtight --parallel 40 --molden --ceasefiles --namespace data2507/gas/DTXO-TPA2/DTXO-TPA2_gas_S0_finalOpt
          :  Hamiltonian                  GFN2-xTB          :
 * total energy  :  -122.7373217 Eh     change       -0.1760654E-08 Eh
 * total energy  :  -122.7373230 Eh     change       -0.1319349E-05 Eh
 * total energy  :  -122.7373250 Eh     change       -0.2016121E-05 Eh
 * total energy  :  -122.7373272 Eh     change       -0.2145621E-05 Eh
 * total energy  :  -122.7373295 Eh     change       -0.2350965E-05 Eh
 * total energy  :  -122.7373323 Eh     change       -0.2784584E-05 Eh
 * total energy  :  -122.7373347 Eh     change       -0.2367176E-05 Eh
 * total energy  :  -122.7373362 Eh     change       -0.1467200E-05 Eh
 * total energy  :  -122.7373371 Eh     change       -0.9472703E-06 Eh
 * total energy  :  -122.7373378 Eh     change       -0.7326395E-06 Eh
 * total energy  :  -122.7373408 Eh     change       -0.8055651E-06 Eh
 * total energy  :  -122.7373415 Eh     change       -0.7455254E-06 Eh
 * total energy  :  -122.7373421 Eh     change       -0.5650667E-06 Eh
 * total energy  :  -122.7373425 Eh     change       -0.3890892E-06 Eh
 * total energy  :  -122.7373428 Eh     change       -0.3346152E-06 Eh
 * total energy  :  -122.7373432 Eh     change       -0.3737418E-06 Eh
 * total energy  :  -122.7373436 Eh     change       -0.4142006E-06 Eh
 * total energy  :  -122.7373441 Eh     change       -0.4743535E-06 Eh
 * total energy  :  -122.7373441 Eh     change       -0.1062814E-07 Eh
   *** GEOMETRY OPTIMIZATION CONVERGED AFTER 22 ITERATIONS ***

 final structure:
================
84
 xtb: 6.7.1 (edcfbbe)
C           -1.08790455203667        0.33374950481567       -2.34097235052958
C           -1.77839800701035       -0.18293030325791       -1.11505939520588
C           -3.15969049116817       -0.19485511661561       -1.03711321041050
C           -3.81737400868594       -0.66877902569856        0.09686841588837
N           -5.21221632945247       -0.60997999221607        0.17469475574244
C           -5.94243590632022       -1.63403014068452        0.78230315891549
C           -7.14512243421800       -1.34049612659320        1.42635942158323
C           -7.87586872038345       -2.34468299249066        2.02949549049342
C           -7.42139020967605       -3.65336636419058        2.00890588293682
C           -6.22845047013863       -3.95047904285873        1.37081892481999
C           -5.49399597266293       -2.95456632384150        0.75713818441919
C           -5.90082777665388        0.40651798498614       -0.50765384253673
C           -6.94998186362406        0.07708492178068       -1.33771680942504
C           -7.63836566814973        1.05947597098014       -2.05516971588190
C           -7.26789626708371        2.37184100533226       -1.95967180308575
C           -6.21349191590626        2.75666289823770       -1.10595986530177
C           -5.83550081759482        4.10982318096202       -0.97508627569690
C           -4.84477871243830        4.48414701657310       -0.11265409500637
C           -4.20030197494928        3.51881197528528        0.67365497584762
C           -4.53226596657321        2.19720961862158        0.56087515043455
C           -5.52656688121070        1.77246960095212       -0.34504036841339
C           -3.06297831573662       -1.16540090690561        1.15860894934657
C           -1.68525706542215       -1.16280302372604        1.08036957496166
C           -1.03016330718237       -0.66711348744793       -0.03936334688286
C            0.44957561751184       -0.64036737753406       -0.07797263548812
C            1.15418003574454       -1.68258623903276       -0.66446198274064
C            2.53438518009561       -1.67877696135742       -0.70324215952016
C            3.23909393511105       -0.60717766729035       -0.16061733484474
N            4.63813042605947       -0.56470537617864       -0.18338300227493
C            5.35785866562568       -1.14500760853180       -1.22834960665462
C            4.87885926068309       -1.08819482278612       -2.53849194046690
C            5.60449703837369       -1.65034844658095       -3.56973140799813
C            6.81934750232834       -2.26808808323081       -3.32015835657397
C            7.30202006031140       -2.32240587087788       -2.02312112622575
C            6.57966872681397       -1.77280307903386       -0.98250843859186
C            5.31138572962093       -0.10048363469447        0.95953815578758
C            4.90665525635472       -0.52534246343978        2.20586546914690
C            5.56920011068661       -0.10242701018452        3.36176912865233
C            6.64748106548467        0.73319767940077        3.27372843900198
C            7.08046845566863        1.21213643119586        2.01998424465705
C            8.17279120403811        2.09861777238798        1.91179606438775
C            8.55723466692805        2.59722187752327        0.69967173953260
C            7.85162609938390        2.24318303570235       -0.45900889986702
C            6.79903947900636        1.37314650704197       -0.39177642519303
C            6.39673334480348        0.81493634780241        0.83933654462738
C            2.53083566121162        0.44004615823092        0.42732294153667
C            1.14851734011253        0.43331924063618        0.48103861561879
C            0.40275873073942        1.56139291168844        1.12844055061655
H           -0.57845965574937       -0.47921472101174       -2.85787032283838
H           -1.80137165548938        0.78776253021936       -3.02416664621203
H           -0.33374967048191        1.07258908326104       -2.07403459619965
H           -3.74464286488668        0.17798772508022       -1.86599488756743
H           -7.49740494983370       -0.31941861912773        1.44922406591773
H           -8.80392470156728       -2.10233782804395        2.52633832608009
H           -7.99341068656867       -4.43546623263456        2.48460554564238
H           -5.87029814755780       -4.96926716022507        1.34133004839580
H           -4.57213843775844       -3.19402925622830        0.24768786678387
H           -7.23515048437141       -0.96007774953852       -1.44083686414999
H           -8.45210408991526        0.76457094016827       -2.70118252393833
H           -7.78161628344724        3.13371738331078       -2.52743576085669
H           -6.35371779864112        4.84770277244372       -1.57111866911820
H           -4.56203275975032        5.52265664784219       -0.02036163138823
H           -3.43898617972069        3.82615447323191        1.37569498436961
H           -4.03587397117324        1.46937719051734        1.18353668371309
H           -3.55966491912975       -1.53348057878558        2.04422422487292
H           -1.10116468242934       -1.54102880068719        1.90735655142914
H            0.60911982863655       -2.51670968131413       -1.08307247828861
H            3.06942267174969       -2.50594345318903       -1.14544918787989
H            3.94032173467581       -0.59232563433226       -2.73967117542268
H            5.22241922875819       -1.59672674158858       -4.57885555879017
H            7.38506999476099       -2.70248495522088       -4.13032240743847
H            8.24618929850604       -2.80505897094234       -1.81725513252353
H            6.95611654590427       -1.82558110218080        0.02855595936434
H            4.07013436540958       -1.20465032177542        2.28532280031976
H            5.23022612985372       -0.46124168053668        4.32243924821476
H            7.17705798817055        1.04715281895823        4.16126715845266
H            8.69729280731761        2.38025366868029        2.81393474226966
H            9.39525788123123        3.27498596858118        0.62713675580932
H            8.14359742015981        2.66523620110792       -1.40939973409781
H            6.25899771334889        1.11859633913566       -1.29063312352610
H            3.07974260576372        1.27034280640073        0.84927932946446
H           -0.37477787693067        1.94077950316432        0.46672723570541
H           -0.08637113277995        1.21428217762043        2.03833383117448
H            1.07781423661657        2.37375349688612        1.38609515471473

          :  Hamiltonian                  GFN2-xTB          :
         :: gradient norm              0.000069108626 Eh/a0 ::
         :: HOMO-LUMO gap              2.310378300017 eV    ::
         :: SCC energy              -125.066555247898 Eh    ::
         :: -> dispersion             -0.118345406960 Eh    ::
         :: repulsion energy           2.329211145151 Eh    ::

    * Orbital Energies and Occupations

         #    Occupation            Energy/Eh            Energy/eV
      -------------------------------------------------------------
         1        2.0000           -0.6614687             -17.9995
       ...           ...                  ...                  ...
       103        2.0000           -0.4118944             -11.2082
       104        2.0000           -0.4026247             -10.9560
       105        2.0000           -0.4018651             -10.9353
       106        2.0000           -0.4005019             -10.8982
       107        2.0000           -0.3999397             -10.8829
       108        2.0000           -0.3973357             -10.8121
       109        2.0000           -0.3966823             -10.7943
       110        2.0000           -0.3925782             -10.6826
       111        2.0000           -0.3913067             -10.6480
       112        2.0000           -0.3804875             -10.3536
       113        2.0000           -0.3803101             -10.3488
       114        2.0000           -0.3447015              -9.3798
       115        2.0000           -0.3438383              -9.3563 (HOMO)
       116                         -0.2589334              -7.0459 (LUMO)
       117                         -0.2585629              -7.0359
       118                         -0.2283695              -6.2142
       119                         -0.2279336              -6.2024
       120                         -0.2261554              -6.1540
       121                         -0.2236301              -6.0853
       122                         -0.2199275              -5.9845
       123                         -0.2192913              -5.9672
       124                         -0.2159331              -5.8758
       125                         -0.2152928              -5.8584
       126                         -0.2057039              -5.5975
       ...                                ...                  ...
       228                          0.6961641              18.9436
      -------------------------------------------------------------
                  HL-Gap            0.0849048 Eh            2.3104 eV

     #   Z          covCN         q      C6AA      α(0)
     1   6 C        3.758    -0.105    22.560     6.772
     2   6 C        2.969     0.013    27.721     8.636
     3   6 C        2.927    -0.060    29.487     8.905
     4   6 C        2.922     0.063    26.591     8.456
     5   7 N        2.753    -0.077    22.727     7.080
     6   6 C        2.924     0.065    26.540     8.448
     7   6 C        2.923    -0.049    29.206     8.862
     8   6 C        2.919    -0.029    28.735     8.791
     9   6 C        2.919    -0.040    28.985     8.829
    10   6 C        2.920    -0.030    28.743     8.792
    11   6 C        2.922    -0.049    29.219     8.864
    12   6 C        2.922     0.059    26.676     8.470
    13   6 C        2.921    -0.049    29.228     8.866
    14   6 C        2.914    -0.031    28.780     8.797
    15   6 C        2.919    -0.044    29.101     8.846
    16   6 C        2.987     0.012    27.735     8.639
    17   6 C        2.920    -0.036    28.887     8.814
    18   6 C        2.915    -0.030    28.748     8.792
    19   6 C        2.917    -0.032    28.787     8.798
    20   6 C        2.917    -0.033    28.831     8.805
    21   6 C        2.985    -0.000    28.025     8.684
    22   6 C        2.920    -0.055    29.374     8.888
    23   6 C        2.923    -0.036    28.888     8.814
    24   6 C        2.982    -0.005    28.138     8.701
    25   6 C        2.982    -0.004    28.126     8.699
    26   6 C        2.923    -0.036    28.886     8.814
    27   6 C        2.920    -0.055    29.357     8.885
    28   6 C        2.924     0.060    26.644     8.465
    29   7 N        2.753    -0.077    22.740     7.082
    30   6 C        2.922     0.068    26.489     8.440
    31   6 C        2.922    -0.050    29.243     8.868
    32   6 C        2.920    -0.030    28.752     8.793
    33   6 C        2.919    -0.040    29.000     8.831
    34   6 C        2.920    -0.029    28.726     8.789
    35   6 C        2.922    -0.049    29.222     8.865
    36   6 C        2.923     0.059    26.676     8.470
    37   6 C        2.920    -0.049    29.216     8.864
    38   6 C        2.914    -0.031    28.781     8.797
    39   6 C        2.919    -0.044    29.096     8.845
    40   6 C        2.987     0.012    27.735     8.639
    41   6 C        2.920    -0.036    28.887     8.814
    42   6 C        2.915    -0.030    28.742     8.791
    43   6 C        2.917    -0.031    28.776     8.797
    44   6 C        2.917    -0.033    28.822     8.804
    45   6 C        2.985    -0.000    28.025     8.684
    46   6 C        2.928    -0.059    29.477     8.904
    47   6 C        2.969     0.013    27.728     8.637
    48   6 C        3.758    -0.105    22.560     6.772
    49   1 H        0.925     0.046     2.372     2.409
    50   1 H        0.925     0.039     2.462     2.454
    51   1 H        0.925     0.044     2.398     2.422
    52   1 H        0.926     0.028     2.619     2.531
    53   1 H        0.926     0.029     2.600     2.522
    54   1 H        0.926     0.030     2.589     2.516
    55   1 H        0.926     0.028     2.609     2.526
    56   1 H        0.926     0.030     2.588     2.516
    57   1 H        0.926     0.031     2.566     2.505
    58   1 H        0.926     0.031     2.578     2.511
    59   1 H        0.926     0.031     2.573     2.509
    60   1 H        0.926     0.031     2.576     2.510
    61   1 H        0.926     0.031     2.572     2.508
    62   1 H        0.926     0.029     2.596     2.519
    63   1 H        0.926     0.028     2.609     2.526
    64   1 H        0.926     0.034     2.532     2.488
    65   1 H        0.926     0.030     2.588     2.516
    66   1 H        0.926     0.028     2.612     2.527
    67   1 H        0.926     0.029     2.607     2.525
    68   1 H        0.926     0.031     2.578     2.511
    69   1 H        0.926     0.030     2.584     2.514
    70   1 H        0.926     0.029     2.600     2.522
    71   1 H        0.926     0.028     2.618     2.530
    72   1 H        0.926     0.029     2.600     2.521
    73   1 H        0.926     0.027     2.626     2.534
    74   1 H        0.926     0.031     2.574     2.509
    75   1 H        0.926     0.031     2.573     2.509
    76   1 H        0.926     0.031     2.574     2.509
    77   1 H        0.926     0.031     2.571     2.507
    78   1 H        0.926     0.030     2.592     2.518
    79   1 H        0.926     0.029     2.600     2.522
    80   1 H        0.926     0.034     2.537     2.491
    81   1 H        0.926     0.029     2.598     2.521
    82   1 H        0.925     0.044     2.394     2.420
    83   1 H        0.925     0.046     2.376     2.411
    84   1 H        0.925     0.039     2.458     2.452

molecular dipole:
                 x           y           z       tot (Debye)
 q only:       -0.015       0.313      -0.026
   full:       -0.028       0.280      -0.019       0.716

 projected vibrational frequencies (cm⁻¹)
eigval :       -0.00    -0.00     0.00     0.00     0.00     0.00
eigval :        7.23    10.94    14.41    22.60    28.07    34.84
eigval :       40.84    46.37    49.02    52.92    56.26    66.46
eigval :       68.34    72.52    81.60    86.57    89.37   107.30
eigval :      126.21   147.26   159.50   163.14   168.63   173.33
eigval :      199.41   202.09   214.45   217.26   224.62   227.59
eigval :      250.76   262.15   267.71   273.81   295.98   318.41
eigval :      344.67   365.76   374.48   379.54   382.66   387.28
eigval :      395.46   406.19   413.36   419.57   435.05   436.08
eigval :      441.52   442.36   463.18   469.62   479.29   485.11
eigval :      491.90   500.61   515.18   517.52   529.71   532.90
eigval :      535.71   544.97   568.03   570.07   581.65   588.16
eigval :      589.82   599.68   607.38   617.17   629.15   651.65
eigval :      660.01   661.25   676.19   689.27   691.25   719.70
eigval :      720.14   727.24   754.20   755.09   758.92   759.36
eigval :      775.94   776.91   793.50   808.62   812.57   813.38
eigval :      827.94   830.31   839.53   847.99   872.39   873.81
eigval :      874.68   874.98   877.12   879.63   882.55   887.03
eigval :      887.49   888.24   889.47   891.25   916.25   916.42
eigval :      919.04   919.72   921.71   922.02   926.05   927.34
eigval :      929.01   929.12   929.73   929.93   968.48   971.86
eigval :      996.11  1003.17  1003.47  1030.33  1031.37  1033.74
eigval :     1037.04  1069.42  1072.35  1084.22  1084.47  1088.61
eigval :     1089.25  1121.18  1121.38  1124.14  1124.75  1127.91
eigval :     1159.92  1168.34  1168.63  1179.94  1180.60  1180.91
eigval :     1181.06  1183.60  1185.02  1196.35  1198.56  1198.61
eigval :     1199.42  1218.64  1222.49  1228.06  1237.29  1251.17
eigval :     1252.12  1253.41  1256.62  1274.48  1280.66  1287.16
eigval :     1306.63  1311.43  1315.03  1315.77  1321.48  1326.84
eigval :     1327.32  1338.25  1338.76  1352.39  1374.31  1376.09
eigval :     1392.93  1393.30  1405.17  1411.06  1418.33  1419.08
eigval :     1425.94  1429.35  1440.33  1441.23  1449.97  1450.55
eigval :     1471.90  1475.38  1475.90  1476.66  1478.97  1487.79
eigval :     1488.81  1507.60  1508.84  1510.26  1559.15  1561.13
eigval :     1562.18  1563.65  1577.97  1578.65  1591.64  1591.82
eigval :     1596.84  1597.82  1603.18  1603.46  1610.18  1610.26
eigval :     3002.84  3003.64  3021.02  3022.45  3041.56  3042.27
eigval :     3069.09  3069.21  3072.90  3073.34  3073.97  3074.17
eigval :     3074.29  3074.66  3074.67  3075.60  3075.84  3076.45
eigval :     3077.01  3077.92  3081.48  3081.85  3085.14  3085.34
eigval :     3087.43  3087.59  3087.91  3088.35  3089.35  3090.56
eigval :     3091.62  3091.67  3096.60  3096.69  3102.60  3105.41

   temp. (K)  partition function   enthalpy   heat capacity  entropy
                                   cal/mol     cal/K/mol   cal/K/mol   J/K/mol
 298.15  VIB  0.181E+20            23778.013    147.861    150.099
         ROT  0.972E+08              888.752      2.981     39.531
         INT  0.176E+28            24666.765    150.842    189.631
         TR   0.148E+29             1481.254      4.968     45.121
         TOT                       26148.0189   155.8102   234.7513   982.1993

       T/K    H(0)-H(T)+PV         H(T)/Eh          T*S/Eh         G(T)/Eh
   ------------------------------------------------------------------------
    298.15    0.416695E-01    0.706906E+00    0.111538E+00    0.595368E+00
   ------------------------------------------------------------------------

         :::::::::::::::::::::::::::::::::::::::::::::::::::::
         ::                  THERMODYNAMIC                  ::
         :::::::::::::::::::::::::::::::::::::::::::::::::::::
         :: total free energy        -122.141976063084 Eh   ::
         ::.................................................::
         :: total energy             -122.737344102746 Eh   ::
         :: zero point energy           0.665236422408 Eh   ::
         :: G(RRHO) w/o ZPVE           -0.069868382746 Eh   ::
         :: G(RRHO) contrib.            0.595368039662 Eh   ::
         :::::::::::::::::::::::::::::::::::::::::::::::::::::

           -------------------------------------------------
          | TOTAL ENERGY             -122.737344102746 Eh   |
          | TOTAL ENTHALPY           -122.030438159841 Eh   |
          | TOTAL FREE ENERGY        -122.141976063084 Eh   |
          | GRADIENT NORM               0.000069100927 Eh/α |
          | HOMO-LUMO GAP               2.310377616464 eV   |
           -------------------------------------------------

 * finished run on 2025/08/26 at 01:09:24.845
