   * xtb version 6.7.1 (edcfbbe) compiled by 'albert@albert-system' on 2024-07-22

   ID    Z sym.   atoms
    1    6 C      1-4, 6-28, 30-48
    2    7 N      5, 29
    3    1 H      49-84

          program call               : xtb data2507/gas/DTXO-TPA2/DTXO-TPA2_gas_S0_finalOpt.xtbopt.xyz --gfn 2 --spinpol --tblite --uhf 2 --ohess vtight --parallel 40 --molden --ceasefiles --namespace data2507/gas/DTXO-TPA2/DTXO-TPA2_gas_T1_preOpt
 * total energy  :  -122.6464642 Eh     change       -0.5147882E-09 Eh
 * total energy  :  -122.6496694 Eh     change       -0.3205196E-02 Eh
 * total energy  :  -122.6503781 Eh     change       -0.7087688E-03 Eh
 * total energy  :  -122.6506636 Eh     change       -0.2855004E-03 Eh
 * total energy  :  -122.6300805 Eh     change        0.2058311E-01 Eh
 * total energy  :  -122.6496412 Eh     change       -0.1956070E-01 Eh
 * total energy  :  -122.6508214 Eh     change       -0.1180150E-02 Eh
 * total energy  :  -122.6510153 Eh     change       -0.1939430E-03 Eh
 * total energy  :  -122.6507000 Eh     change        0.3152492E-03 Eh
 * total energy  :  -122.6511099 Eh     change       -0.4098962E-03 Eh
 * total energy  :  -122.6524051 Eh     change       -0.2650068E-06 Eh
 * total energy  :  -122.6524054 Eh     change       -0.2284234E-06 Eh
 * total energy  :  -122.6524056 Eh     change       -0.2009757E-06 Eh
 * total energy  :  -122.6524054 Eh     change        0.1343708E-06 Eh
 * total energy  :  -122.6524056 Eh     change       -0.1801189E-06 Eh
 * total energy  :  -122.6524058 Eh     change       -0.1421557E-06 Eh
 * total energy  :  -122.6524056 Eh     change        0.1799852E-06 Eh
 * total energy  :  -122.6524058 Eh     change       -0.2283164E-06 Eh
 * total energy  :  -122.6524059 Eh     change       -0.6396829E-07 Eh
   *** GEOMETRY OPTIMIZATION CONVERGED AFTER 49 ITERATIONS ***

 final structure:
================
84
 xtb: 6.7.1 (edcfbbe)
C           -1.09833349895586        0.34218580001537       -2.33292431461436
C           -1.78816000282809       -0.18049955552447       -1.11029054582187
C           -3.16737573378699       -0.19160106716257       -1.03054534922947
C           -3.82264672325882       -0.67358136885306        0.10478349539814
N           -5.21542626840193       -0.61432981130958        0.17836553882686
C           -5.93056574559286       -1.63138588148101        0.80467115436869
C           -7.12893746282711       -1.33322824936176        1.46328721364302
C           -7.85656798536164       -2.33688307043501        2.06773012673036
C           -7.40894692574745       -3.64929582337227        2.03109602953273
C           -6.22219750950533       -3.95114676424411        1.37806207620556
C           -5.48727756763866       -2.95754001027205        0.76587256873295
C           -5.90852959264126        0.41568650639479       -0.44132603751948
C           -7.07679314340815        0.06668913864928       -1.20399286768132
C           -7.72945306852804        1.00555307870443       -1.93559940585741
C           -7.28798260478072        2.34859842170207       -1.92911223055249
C           -6.17653184180104        2.74454965957826       -1.15903377698506
C           -5.76585685024933        4.08337383560203       -1.11791811212715
C           -4.69788418071431        4.49017956728058       -0.30596587383934
C           -4.06051401785174        3.57202588969235        0.48525709825019
C           -4.44884710454271        2.21923087232958        0.46103012108081
C           -5.47338014177388        1.77686594136200       -0.37531067762446
C           -3.06772069861616       -1.17191404881996        1.16775590823854
C           -1.69106402673866       -1.16328747421928        1.08933295795827
C           -1.03813821566130       -0.66525872557748       -0.03283814184715
C            0.44060243730113       -0.63905830047863       -0.07349998961806
C            1.14018176859077       -1.65960223988619       -0.70372859257424
C            2.51966751329170       -1.65855635985084       -0.74612752438045
C            3.23054059779323       -0.61123536659419       -0.16308766960754
N            4.62685861006468       -0.57366692359150       -0.18752225308255
C            5.34640335702750       -1.12243145504659       -1.24887918200410
C            4.86530976633587       -1.03280110234339       -2.55668119356400
C            5.59215022599134       -1.56353669585793       -3.60349135999858
C            6.81047905822262       -2.18161778953855       -3.37203794780384
C            7.29623274017558       -2.26653542416200       -2.07770052127826
C            6.57309870523768       -1.74810704920233       -1.02183848820935
C            5.30534124993618       -0.13363995784797        0.96466078594007
C            4.91854298684900       -0.60692457588189        2.20018451776169
C            5.58582297735308       -0.21227890289957        3.36217314444097
C            6.65015242848601        0.64456337584434        3.29057744529206
C            7.06349927181684        1.17123648668241        2.04957017477220
C            8.13987801557475        2.07866428149183        1.96010716141195
C            8.50571062969842        2.62112804239735        0.75967081816377
C            7.79776804996953        2.29032492880535       -0.40302302868441
C            6.75867733573538        1.40105634067347       -0.35433217413907
C            6.37514640238856        0.80065294627680        0.86254740233725
C            2.52610662365745        0.41385887294424        0.46840142518376
C            1.14409692271024        0.41021720230600        0.52521584917399
C            0.40376619746229        1.51829335642622        1.21175075308860
H           -0.59392248203915       -0.46826691132636       -2.85837764278376
H           -1.81121588382440        0.80658001509593       -3.00924495119468
H           -0.34044942317222        1.07448902796740       -2.05929398154264
H           -3.75876551792314        0.17747665075697       -1.85586861955634
H           -7.46422155480717       -0.30747265895791        1.50397835441778
H           -8.77656966535838       -2.09433181356336        2.57845260115095
H           -7.98041798744748       -4.43162814683764        2.50637869075538
H           -5.87336041419006       -4.97246215378749        1.33813218759584
H           -4.57583285027155       -3.19778934292210        0.23851092225469
H           -7.37352719419964       -0.97113664181008       -1.23249721298369
H           -8.58272377025871        0.73392217110015       -2.53888636267445
H           -7.81660889070341        3.08926458189362       -2.50885607325902
H           -6.29391359208548        4.81022655897351       -1.71716131246044
H           -4.39395775907708        5.52655159938415       -0.30534184942627
H           -3.24493744849713        3.86795852201288        1.12881525039170
H           -3.93731540675537        1.52725259856513        1.11169114433287
H           -3.56423111147494       -1.53373465913793        2.05605701868045
H           -1.10429959597298       -1.53931242517822        1.91504936888455
H            0.59150444470577       -2.47550855319278       -1.15244936629886
H            3.05027551997477       -2.47024412623979       -1.22086875324106
H            3.92513467047464       -0.53455857839685       -2.74396100273163
H            5.20846941543271       -1.48459794659008       -4.61031792257194
H            7.37690596249995       -2.59164165434180       -4.19428759372562
H            8.24379441012059       -2.74842183000013       -1.88639133535861
H            6.95192887942224       -1.82409539136292       -0.01324211786766
H            4.09334312725700       -1.30171483731907        2.26380496001983
H            5.26311363105809       -0.60730779029164        4.31418334860803
H            7.18304690445334        0.93802669349009        4.18311543100275
H            8.66757543010922        2.34150118014290        2.86597883954447
H            9.33151222651344        3.31515196506538        0.70203955786421
H            8.07552966536453        2.74433115336350       -1.34291274586260
H            6.21638540524535        1.16438207950435       -1.25676737018423
H            3.07846670998758        1.22602312159414        0.91962038809493
H           -0.38567285706131        1.91013382950974        0.57175292470730
H           -0.06842131892141        1.14844085533049        2.12166451307692
H            1.07952196113243        2.32716783320629        1.47792744466649

 projected vibrational frequencies (cm⁻¹)
eigval :       -0.00    -0.00    -0.00     0.00     0.00     0.00
eigval :        5.36    10.56    14.57    21.22    31.44    34.52
eigval :       38.22    44.55    50.98    51.68    54.70    67.66
eigval :       69.08    73.69    81.13    86.98    91.39   105.40
eigval :      124.31   146.20   160.56   162.76   167.65   173.93
eigval :      196.71   200.21   212.52   217.29   221.34   227.25
eigval :      244.01   262.30   266.40   273.38   294.98   311.79
eigval :      336.39   349.20   366.03   372.98   381.86   382.72
eigval :      393.56   403.04   412.02   417.35   431.28   436.06
eigval :      438.94   441.47   456.44   461.69   469.51   478.60
eigval :      480.08   491.81   504.45   510.33   513.87   527.96
eigval :      534.58   536.07   548.38   564.39   570.12   584.16
eigval :      586.90   592.13   600.91   605.30   622.43   646.64
eigval :      656.41   659.74   673.12   681.30   688.61   691.03
eigval :      702.15   718.62   724.92   730.92   751.23   754.01
eigval :      756.66   771.21   776.99   785.04   793.52   798.42
eigval :      800.62   810.48   825.09   829.85   834.82   847.23
eigval :      847.52   867.41   868.57   870.35   872.18   874.77
eigval :      878.00   882.05   884.26   886.68   888.49   889.73
eigval :      893.11   912.30   917.70   918.57   918.72   924.68
eigval :      925.88   926.51   926.70   930.03   967.63   968.84
eigval :      994.18   997.25  1002.97  1026.47  1030.20  1030.76
eigval :     1032.17  1035.44  1067.07  1071.09  1078.00  1084.33
eigval :     1089.39  1091.22  1106.54  1121.32  1121.92  1124.75
eigval :     1126.45  1157.63  1167.23  1170.63  1174.89  1178.56
eigval :     1180.03  1180.41  1180.76  1183.58  1187.65  1191.61
eigval :     1196.39  1198.47  1214.11  1222.17  1232.36  1245.75
eigval :     1249.54  1251.61  1253.28  1257.48  1273.83  1277.84
eigval :     1284.83  1292.14  1301.07  1313.50  1316.23  1318.19
eigval :     1320.05  1327.09  1329.97  1337.41  1346.37  1367.31
eigval :     1371.32  1382.67  1387.58  1402.98  1404.76  1410.38
eigval :     1415.74  1419.37  1427.11  1436.47  1439.39  1440.79
eigval :     1447.38  1453.03  1456.52  1466.51  1473.54  1474.13
eigval :     1477.72  1482.86  1486.92  1502.73  1506.69  1511.18
eigval :     1529.88  1540.44  1549.73  1558.81  1564.59  1571.34
eigval :     1576.46  1580.30  1588.98  1595.28  1600.31  1600.97
eigval :     3002.86  3005.81  3020.87  3024.85  3043.40  3046.57
eigval :     3069.03  3069.68  3072.93  3073.74  3074.36  3074.76
eigval :     3076.18  3076.54  3076.69  3076.80  3077.32  3079.12
eigval :     3080.71  3081.01  3082.30  3085.25  3085.41  3086.86
eigval :     3087.14  3088.38  3089.06  3089.75  3090.25  3091.41
eigval :     3092.52  3094.50  3097.03  3098.46  3100.25  3101.31

   temp. (K)  partition function   enthalpy   heat capacity  entropy
                                   cal/mol     cal/K/mol   cal/K/mol   J/K/mol
 298.15  VIB  0.335E+20            24055.367    149.821    151.840
         ROT  0.969E+08              888.752      2.981     39.524
         INT  0.324E+28            24944.119    152.802    191.364
         TR   0.148E+29             1481.254      4.968     45.121
         TOT                       26425.3733   157.7701   236.4850   989.4531

       T/K    H(0)-H(T)+PV         H(T)/Eh          T*S/Eh         G(T)/Eh
   ------------------------------------------------------------------------
    298.15    0.421115E-01    0.702913E+00    0.112362E+00    0.590552E+00
   ------------------------------------------------------------------------

         :::::::::::::::::::::::::::::::::::::::::::::::::::::
         ::                  THERMODYNAMIC                  ::
         :::::::::::::::::::::::::::::::::::::::::::::::::::::
         :: total free energy        -122.061854198886 Eh   ::
         ::.................................................::
         :: total energy             -122.652405877539 Eh   ::
         :: zero point energy           0.660801798986 Eh   ::
         :: G(RRHO) w/o ZPVE           -0.070250120332 Eh   ::
         :: G(RRHO) contrib.            0.590551678654 Eh   ::
         :::::::::::::::::::::::::::::::::::::::::::::::::::::

           -------------------------------------------------
          | TOTAL ENERGY             -122.652405877539 Eh   |
          | TOTAL ENTHALPY           -121.949492565725 Eh   |
          | TOTAL FREE ENERGY        -122.061854198886 Eh   |
          | GRADIENT NORM               0.000083401638 Eh/α |
           -------------------------------------------------

 * finished run on 2025/08/26 at 01:09:38.558
