   * xtb version 6.7.1 (edcfbbe) compiled by 'albert@albert-system' on 2024-07-22

   ID    Z sym.   atoms
    1    6 C      1-9, 11-20, 22-25, 27-30, 32, 33, 35, 36, 38-44
    2    7 N      10, 21, 26, 31, 34, 37
    3    1 H      45-66

          program call               : xtb data2507/toluene/3-AcBPtCN/3-AcBPtCN_toluene_S0_crest.xyz --gfn 2 --gbsa toluene --ohess vtight --parallel 40 --molden --ceasefiles --namespace data2507/toluene/3-AcBPtCN/3-AcBPtCN_toluene_S0_finalOpt
      * Solvation model:               GBSA
        Solvent                        toluene
        Solvent mass                       9.2140E+01 g/mol
          :  Hamiltonian                  GFN2-xTB          :
 * total energy  :  -110.1357270 Eh     change       -0.3990081E-08 Eh
 * total energy  :  -110.1357842 Eh     change       -0.5724864E-04 Eh
 * total energy  :  -110.1357832 Eh     change        0.1002887E-05 Eh
 * total energy  :  -110.1357975 Eh     change       -0.1431395E-04 Eh
 * total energy  :  -110.1358046 Eh     change       -0.7111132E-05 Eh
 * total energy  :  -110.1357809 Eh     change        0.2376628E-04 Eh
 * total energy  :  -110.1358077 Eh     change       -0.2678832E-04 Eh
 * total energy  :  -110.1358087 Eh     change       -0.9926941E-06 Eh
 * total energy  :  -110.1357986 Eh     change        0.1001348E-04 Eh
 * total energy  :  -110.1358132 Eh     change       -0.1457108E-04 Eh
 * total energy  :  -110.1358173 Eh     change       -0.4871084E-06 Eh
 * total energy  :  -110.1358180 Eh     change       -0.7074162E-06 Eh
 * total energy  :  -110.1358184 Eh     change       -0.3778213E-06 Eh
 * total energy  :  -110.1358187 Eh     change       -0.2962420E-06 Eh
 * total energy  :  -110.1358190 Eh     change       -0.3217845E-06 Eh
 * total energy  :  -110.1358193 Eh     change       -0.3391246E-06 Eh
 * total energy  :  -110.1358195 Eh     change       -0.1241494E-06 Eh
 * total energy  :  -110.1358195 Eh     change        0.3754081E-09 Eh
 * total energy  :  -110.1358196 Eh     change       -0.8326393E-07 Eh
   *** GEOMETRY OPTIMIZATION CONVERGED AFTER 23 ITERATIONS ***

 final structure:
================
66
 xtb: 6.7.1 (edcfbbe)
C           -6.72706703994393        1.30655336683709        2.03077180222326
C           -5.37581375421234        1.12790141008611        1.33822388874511
C           -4.29211619142103        1.01135957975516        2.43019654130036
C           -5.03645150181468        2.29085327564231        0.42023929801593
C           -5.70249334505170        3.50716471098100        0.41436886297437
C           -5.34493147009681        4.50988396517927       -0.47203399471166
C           -4.33158847404962        4.30104622825396       -1.39088720830029
C           -3.65860330694869        3.09311926545093       -1.40746014030073
C           -3.98744981093179        2.10711108686350       -0.48595150019956
N           -3.34763021143764        0.84604238512893       -0.50487092773701
C           -1.99443417410854        0.68158005479858       -0.39305056721735
C           -1.12752793628335        1.79129671391873       -0.31009445429516
C            0.22304009348185        1.60735175155398       -0.21117573190622
C            0.79155645088528        0.32477950874189       -0.17297658959357
C           -0.06183555215629       -0.80242295342720       -0.18050839705859
C           -1.43115232340095       -0.59627221955415       -0.27654720042499
C            0.51432516496073       -2.14040973120392       -0.08788317443053
C           -0.27091296059746       -3.29513767337261       -0.07742927417876
C            0.30644485681548       -4.55628368541163        0.00440743893375
C           -0.52594460872945       -5.69923601577996        0.01211014801954
N           -1.20421817220252       -6.62466205821539        0.01670933227098
C            1.69734924153717       -4.70459847448491        0.07787301389599
C            2.48280183807732       -3.57868121599716        0.06897846097380
C            1.91398504331637       -2.30183046896348       -0.01165295527498
C            2.78243705882188       -1.14436378526242       -0.01492440716558
N            4.08345451302216       -1.32621196701016        0.05797012514943
C            4.87523991059920       -0.23875355066347        0.06188528100332
C            6.27010037160443       -0.39675854682990        0.14190801397777
C            7.08743349743930        0.71158160826058        0.15170471876859
C            8.48994400181788        0.56375200492275        0.23446419562109
N            9.62759410085365        0.43332601941064        0.30255516311449
C            6.52459649234878        2.02184038983328        0.08003518638290
C            7.38422776516871        3.14473996710002        0.09385956384821
N            8.07088092283351        4.06306804963886        0.10414438306320
C            5.16294503456267        2.19441452051347       -0.00019894122677
C            4.30980070122729        1.07106745223135       -0.01089478585043
N            2.98527238233180        1.24822086803962       -0.08880932403916
C            2.21072768685646        0.17153399548073       -0.09251683036459
C           -4.27723157732107       -0.21807486853030       -0.44902798029114
C           -4.20477812496478       -1.28396831977633       -1.33751555079371
C           -5.14774585977316       -2.29395729740622       -1.27901053833057
C           -6.17460003752463       -2.22097241153333       -0.35422821103040
C           -6.27423202141828       -1.13106483593683        0.49497079680080
C           -5.33387393906877       -0.11226680804659        0.46072291105689
H           -6.71306510264605        2.19745441724188        2.65319596621860
H           -7.53133033445071        1.39298179630043        1.30361012787557
H           -6.92734234371867        0.46110621682706        2.68388962314034
H           -4.50457720514967        0.15671362298830        3.06907948089821
H           -4.28803568686278        1.91130573235460        3.04144856774271
H           -3.29962591734550        0.88264682083424        2.00723072020017
H           -6.51180155543184        3.68809781463686        1.10229939833948
H           -5.87288850836735        5.45153375864338       -0.45424904405280
H           -4.07163721732495        5.07019569250677       -2.10250452720415
H           -2.89150445359319        2.90559663853470       -2.14385171567006
H           -1.52908869463812        2.79104660428909       -0.29977154960037
H            0.88953774383123        2.45334679340180       -0.15391436822446
H           -2.09831255208699       -1.43901261202236       -0.23977285611495
H           -1.34598269705856       -3.23635282802890       -0.13095501533377
H            2.13294215456999       -5.69007378680112        0.13958837562918
H            3.55752702513183       -3.64985036993147        0.12400972768720
H            6.68229321171820       -1.39294572090073        0.19623258857582
H            4.72742125040315        3.18047273753102       -0.05508095221683
H           -3.42318962142885       -1.30958100169137       -2.08253595547791
H           -5.08560402404411       -3.12717777691251       -1.96284401037215
H           -6.91217391359681       -3.00771681769921       -0.30303947821772
H           -7.09880940911373       -1.08699822171920        1.18700224955954

          :  Hamiltonian                  GFN2-xTB          :
         :: gradient norm              0.000096233936 Eh/a0 ::
         :: HOMO-LUMO gap              1.004776620311 eV    ::
         :: SCC energy              -112.214281734074 Eh    ::
         :: -> dispersion             -0.096750741572 Eh    ::
         :: -> Gsolv                  -0.054811296906 Eh    ::
         :: repulsion energy           2.078462177284 Eh    ::

    * Orbital Energies and Occupations

         #    Occupation            Energy/Eh            Energy/eV
      -------------------------------------------------------------
         1        2.0000           -0.7013647             -19.0851
       ...           ...                  ...                  ...
        90        2.0000           -0.4372169             -11.8973
        91        2.0000           -0.4357657             -11.8578
        92        2.0000           -0.4311655             -11.7326
        93        2.0000           -0.4274781             -11.6323
        94        2.0000           -0.4251416             -11.5687
        95        2.0000           -0.4228792             -11.5071
        96        2.0000           -0.4158002             -11.3145
        97        2.0000           -0.4122650             -11.2183
        98        2.0000           -0.4103257             -11.1655
        99        2.0000           -0.4073018             -11.0832
       100        2.0000           -0.4066499             -11.0655
       101        2.0000           -0.3745169             -10.1911
       102        2.0000           -0.3697070             -10.0602 (HOMO)
       103                         -0.3327822              -9.0555 (LUMO)
       104                         -0.3092206              -8.4143
       105                         -0.2868084              -7.8045
       106                         -0.2757290              -7.5030
       107                         -0.2608274              -7.0975
       108                         -0.2470023              -6.7213
       109                         -0.2368124              -6.4440
       110                         -0.2332856              -6.3480
       111                         -0.2330028              -6.3403
       112                         -0.2314894              -6.2991
       113                         -0.2284438              -6.2163
       ...                                ...                  ...
       198                          1.1613724              31.6026
      -------------------------------------------------------------
                  HL-Gap            0.0369249 Eh            1.0048 eV

     #   Z          covCN         q      C6AA      α(0)
     1   6 C        3.759    -0.110    22.656     6.786
     2   6 C        3.910     0.023    20.123     6.376
     3   6 C        3.761    -0.100    22.462     6.756
     4   6 C        2.986    -0.003    28.099     8.695
     5   6 C        2.923    -0.036    28.908     8.817
     6   6 C        2.919    -0.034    28.850     8.808
     7   6 C        2.920    -0.032    28.801     8.801
     8   6 C        2.920    -0.045    29.109     8.847
     9   6 C        2.951     0.052    26.836     8.497
    10   7 N        2.755    -0.048    22.172     6.993
    11   6 C        2.909     0.076    26.295     8.408
    12   6 C        2.919    -0.053    29.304     8.877
    13   6 C        2.920    -0.024    28.614     8.772
    14   6 C        2.986    -0.019    28.477     8.754
    15   6 C        2.974     0.008    27.826     8.653
    16   6 C        2.926    -0.063    29.557     8.916
    17   6 C        2.975     0.014    27.689     8.631
    18   6 C        2.931    -0.023    28.579     8.767
    19   6 C        2.972     0.024    27.469     8.597
    20   6 C        1.913     0.120    28.145     8.568
    21   7 N        0.911    -0.254    26.599     7.459
    22   6 C        2.922    -0.018    28.462     8.749
    23   6 C        2.923    -0.022    28.548     8.762
    24   6 C        2.987     0.002    27.971     8.675
    25   6 C        2.960     0.090    26.005     8.364
    26   7 N        1.848    -0.248    27.311     7.745
    27   6 C        2.964     0.082    26.175     8.392
    28   6 C        2.926    -0.029    28.728     8.790
    29   6 C        2.974     0.020    27.565     8.612
    30   6 C        1.911     0.120    28.161     8.570
    31   7 N        0.911    -0.245    26.385     7.429
    32   6 C        2.973     0.023    27.486     8.600
    33   6 C        1.912     0.121    28.137     8.567
    34   7 N        0.911    -0.241    26.288     7.415
    35   6 C        2.927    -0.031    28.767     8.796
    36   6 C        2.961     0.088    26.048     8.371
    37   7 N        1.848    -0.257    27.548     7.779
    38   6 C        2.957     0.089    26.021     8.367
    39   6 C        2.951     0.051    26.850     8.499
    40   6 C        2.920    -0.046    29.137     8.852
    41   6 C        2.919    -0.033    28.812     8.802
    42   6 C        2.919    -0.034    28.846     8.807
    43   6 C        2.923    -0.036    28.902     8.816
    44   6 C        2.986    -0.003    28.096     8.695
    45   1 H        0.925     0.047     2.362     2.403
    46   1 H        0.925     0.042     2.418     2.432
    47   1 H        0.925     0.046     2.365     2.405
    48   1 H        0.925     0.044     2.401     2.423
    49   1 H        0.925     0.044     2.395     2.420
    50   1 H        0.925     0.034     2.537     2.491
    51   1 H        0.926     0.050     2.321     2.383
    52   1 H        0.926     0.040     2.455     2.450
    53   1 H        0.926     0.040     2.453     2.449
    54   1 H        0.926     0.042     2.416     2.431
    55   1 H        0.926     0.053     2.279     2.361
    56   1 H        0.926     0.060     2.200     2.320
    57   1 H        0.926     0.052     2.292     2.368
    58   1 H        0.926     0.058     2.219     2.330
    59   1 H        0.926     0.056     2.252     2.347
    60   1 H        0.926     0.069     2.093     2.262
    61   1 H        0.926     0.069     2.099     2.266
    62   1 H        0.926     0.069     2.092     2.262
    63   1 H        0.926     0.041     2.433     2.439
    64   1 H        0.926     0.039     2.464     2.455
    65   1 H        0.926     0.040     2.452     2.449
    66   1 H        0.926     0.050     2.316     2.380

molecular dipole:
                 x           y           z       tot (Debye)
 q only:       -5.421       0.349       0.113
   full:       -5.633       0.376       0.035      14.350

 projected vibrational frequencies (cm⁻¹)
eigval :       -0.00    -0.00    -0.00    -0.00     0.00     0.00
eigval :       14.98    21.77    24.22    37.19    39.04    59.35
eigval :       61.39    71.72    81.13    85.52    90.58   102.29
eigval :      103.97   131.74   132.54   141.04   144.82   158.68
eigval :      175.73   182.39   187.11   192.51   219.29   224.49
eigval :      236.38   266.43   284.80   292.44   297.78   307.33
eigval :      320.50   329.84   338.01   351.41   359.29   368.39
eigval :      378.06   391.34   398.32   403.84   405.81   412.13
eigval :      423.25   433.62   435.16   450.84   458.05   474.12
eigval :      479.48   493.04   498.53   522.19   535.31   537.89
eigval :      549.81   560.29   561.60   568.65   570.57   575.41
eigval :      597.39   600.37   622.91   624.05   645.96   647.05
eigval :      649.40   676.26   684.05   692.68   694.11   707.57
eigval :      723.53   726.31   730.15   739.29   767.20   768.38
eigval :      778.53   786.11   809.63   822.19   830.92   846.70
eigval :      851.57   854.26   867.29   868.36   873.68   889.73
eigval :      894.17   907.85   916.96   922.58   923.75   924.53
eigval :      938.77   942.39   944.96   961.26   966.20   989.10
eigval :     1009.29  1045.40  1060.43  1072.53  1081.66  1098.97
eigval :     1106.89  1119.90  1136.07  1141.48  1151.49  1157.57
eigval :     1172.86  1175.19  1181.04  1187.04  1188.22  1189.65
eigval :     1195.30  1224.63  1228.76  1240.47  1255.32  1263.80
eigval :     1267.24  1271.91  1277.74  1279.73  1287.70  1299.71
eigval :     1315.08  1322.47  1324.16  1337.52  1347.87  1354.38
eigval :     1380.64  1397.57  1403.41  1411.49  1414.71  1426.58
eigval :     1432.05  1436.17  1437.14  1444.01  1451.38  1462.60
eigval :     1470.64  1477.14  1488.91  1490.64  1492.01  1503.39
eigval :     1510.53  1519.17  1527.45  1539.06  1568.29  1570.34
eigval :     1574.07  1581.97  1586.38  1587.08  1597.05  2361.92
eigval :     2365.15  2367.49  3027.94  3030.43  3033.29  3034.50
eigval :     3048.22  3052.49  3079.48  3079.81  3084.64  3085.70
eigval :     3094.89  3095.04  3095.60  3099.54  3100.13  3106.33
eigval :     3111.27  3113.35  3116.26  3117.47  3119.38  3139.92

   temp. (K)  partition function   enthalpy   heat capacity  entropy
                                   cal/mol     cal/K/mol   cal/K/mol   J/K/mol
 298.15  VIB  0.270E+15            20306.362    129.317    124.288
         ROT  0.705E+08              888.752      2.981     38.892
         INT  0.190E+23            21195.115    132.298    163.180
         TR   0.129E+29             1481.254      4.968     44.847
         TOT                       22676.3687   137.2665   208.0269   870.3845

       T/K    H(0)-H(T)+PV         H(T)/Eh          T*S/Eh         G(T)/Eh
   ------------------------------------------------------------------------
    298.15    0.361371E-01    0.521553E+00    0.988403E-01    0.422713E+00
   ------------------------------------------------------------------------

         :::::::::::::::::::::::::::::::::::::::::::::::::::::
         ::                  THERMODYNAMIC                  ::
         :::::::::::::::::::::::::::::::::::::::::::::::::::::
         :: total free energy        -109.713106628028 Eh   ::
         ::.................................................::
         :: total energy             -110.135819549978 Eh   ::
         :: zero point energy           0.485416112739 Eh   ::
         :: G(RRHO) w/o ZPVE           -0.062703190788 Eh   ::
         :: G(RRHO) contrib.            0.422712921950 Eh   ::
         :::::::::::::::::::::::::::::::::::::::::::::::::::::

           -------------------------------------------------
          | TOTAL ENERGY             -110.135819549978 Eh   |
          | TOTAL ENTHALPY           -109.614266343477 Eh   |
          | TOTAL FREE ENERGY        -109.713106628028 Eh   |
          | GRADIENT NORM               0.000096218359 Eh/α |
          | HOMO-LUMO GAP               1.004776682768 eV   |
           -------------------------------------------------

 * finished run on 2025/07/19 at 23:39:00.345
