   * xtb version 6.7.1 (edcfbbe) compiled by 'albert@albert-system' on 2024-07-22

   ID    Z sym.   atoms
    1    6 C      1-9, 11-20, 22-25, 27-30, 32, 33, 35, 36, 38-44
    2    7 N      10, 21, 26, 31, 34, 37
    3    1 H      45-66

          program call               : xtb data2507/toluene/3-AcBPtCN/3-AcBPtCN.xyz --gfn 2 --gbsa toluene --ohess vtight --parallel 40 --molden --ceasefiles --namespace data2507/toluene/3-AcBPtCN/3-AcBPtCN_toluene_S0_preOpt
      * Solvation model:               GBSA
        Solvent                        toluene
        Solvent mass                       9.2140E+01 g/mol
          :  Hamiltonian                  GFN2-xTB          :
 * total energy  :  -110.1060531 Eh     change       -0.4308674E-08 Eh
 * total energy  :  -110.1253730 Eh     change       -0.1931991E-01 Eh
 * total energy  :  -110.1308071 Eh     change       -0.5434182E-02 Eh
 * total energy  :  -110.1316149 Eh     change       -0.8077616E-03 Eh
 * total energy  :  -110.1320275 Eh     change       -0.4125435E-03 Eh
 * total energy  :  -110.1319874 Eh     change        0.4006386E-04 Eh
 * total energy  :  -110.1321293 Eh     change       -0.1419124E-03 Eh
 * total energy  :  -110.1321490 Eh     change       -0.1973144E-04 Eh
 * total energy  :  -110.1321500 Eh     change       -0.9255629E-06 Eh
 * total energy  :  -110.1321544 Eh     change       -0.4395672E-05 Eh
 * total energy  :  -110.1321336 Eh     change        0.3098854E-04 Eh
 * total energy  :  -110.1321643 Eh     change       -0.3079394E-04 Eh
 * total energy  :  -110.1321679 Eh     change       -0.3536278E-05 Eh
 * total energy  :  -110.1321691 Eh     change       -0.1234111E-05 Eh
 * total energy  :  -110.1321694 Eh     change       -0.2464473E-06 Eh
 * total energy  :  -110.1321696 Eh     change       -0.2844926E-06 Eh
 * total energy  :  -110.1321697 Eh     change       -0.1014493E-06 Eh
 * total energy  :  -110.1321697 Eh     change        0.7657093E-08 Eh
 * total energy  :  -110.1321698 Eh     change       -0.6205114E-07 Eh
   *** GEOMETRY OPTIMIZATION CONVERGED AFTER 20 ITERATIONS ***

 final structure:
================
66
 xtb: 6.7.1 (edcfbbe)
C           -6.23885933674037       -0.69614378591573       -0.00003696361774
C           -5.34049218697833        0.55536398026976       -0.00000106616680
C           -6.20504848918364        1.83000863729117        0.00003518035345
C           -4.49094298038095        0.54233716048987       -1.25748704481855
C           -5.10757544785047        0.56312920102838       -2.50129959213865
C           -4.38541916551224        0.54902889310294       -3.68085013194203
C           -3.00354827986921        0.51215877132560       -3.62827039240600
C           -2.36439357671768        0.49046260413853       -2.40602964015867
C           -3.09329487643288        0.50523043159579       -1.21330226697784
N           -2.42136472344415        0.47978874481656        0.00000231462623
C           -1.00067515071166        0.44691306819409        0.00000322136345
C           -0.27446982910012        1.63935485733179        0.00001795665286
C            1.09902943270849        1.58998878449127        0.00001498160634
C            1.77238264945021        0.36322260921388        0.00000276819138
C            1.04993983476172       -0.84835993103785       -0.00000635658849
C           -0.34566316353139       -0.77256623332938       -0.00001003973555
C            1.76158543818169       -2.12089926643969       -0.00001516895499
C            1.09397098318557       -3.34765827966149        0.00001848537518
C            1.79758499147553       -4.54551386370026       -0.00001767513265
C            1.08676909160510       -5.76876781161774       -0.00009475007531
N            0.51023831388568       -6.76043336363237       -0.00000039234259
C            3.19861537852484       -4.55495946231575       -0.00006279723082
C            3.86909881302156       -3.35688699840355       -0.00007111640386
C            3.17278810252515       -2.14194156525995       -0.00005600243955
C            3.91665739811268       -0.90230973710708       -0.00005379808278
N            5.23465771299802       -0.94730541975830       -0.00008295966516
C            5.90796796979995        0.21242552809858       -0.00004672906934
C            7.31762087798718        0.19979163768139       -0.00004796702159
C            8.01176453918885        1.38653817155602        0.00000498870286
C            9.42690711954742        1.38511364111485        0.00004318265198
N           10.57323180822241        1.37361737978467        0.00015028032187
C            7.31458919122078        2.63391231358753        0.00005203643140
C            8.05413216718656        3.84043688214489        0.00011282042556
N            8.64289284975259        4.82404242543219        0.00001663673283
C            5.94022689045821        2.66571804625255        0.00006883214742
C            5.21084008898653        1.45902960597712        0.00002381028674
N            3.87064916711082        1.49438903860263        0.00004213042784
C            3.21649725090721        0.34847196328589       -0.00000151806320
C           -3.09329870156545        0.50516246202553        1.21330650880175
C           -2.36440322774125        0.49033319029721        2.40603685217742
C           -3.00356394376764        0.51195868014163        3.62827582314729
C           -4.38543522275874        0.54881923432346        3.68085085742600
C           -5.10758538890455        0.56298469442647        2.50129758738205
C           -4.49094697208174        0.54226494682779        1.25748698058120
H           -6.87510064413919       -0.71586761897941        0.88041637887395
H           -6.87509926043130       -0.71582031217966       -0.88049241281432
H           -5.62515297863729       -1.59559647665660       -0.00006066741423
H           -5.56717222951381        2.71235932926018        0.00005712343395
H           -6.84113715811439        1.86699443884129        0.87988911694294
H           -6.84114231764254        1.86704177038134       -0.87981298302004
H           -6.18509367301028        0.59029424144225       -2.55825675396758
H           -4.89844401847462        0.56587106727577       -4.63068258096280
H           -2.41982185321980        0.50039652939609       -4.53706000059987
H           -1.28584262898236        0.46299024899508       -2.37244869484658
H           -0.79833794154909        2.58278826470304        0.00003109594656
H            1.68956232840442        2.49225387341726        0.00002048466403
H           -0.95195359106354       -1.66376525848838       -0.00002743100853
H            0.01715548210132       -3.39350373411197        0.00007633984158
H            3.73112680596739       -5.49354792682744       -0.00008832855958
H            4.94694962613219       -3.32270074824139       -0.00008643690444
H            7.83207396160468       -0.74899622520029       -0.00007821682609
H            5.40303663138325        3.60178902242897        0.00012482877886
H           -1.28585224338897        0.46287033825102        2.37246027213723
H           -2.41984151708923        0.50014966285372        4.53706739558725
H           -4.89846517832424        0.56560604895300        4.63068152450149
H           -6.18510399954536        0.59014359781507        2.55825007943539

          :  Hamiltonian                  GFN2-xTB          :
         :: gradient norm              0.000055079849 Eh/a0 ::
         :: HOMO-LUMO gap              0.243070600393 eV    ::
         :: SCC energy              -112.210907954254 Eh    ::
         :: -> dispersion             -0.095554132980 Eh    ::
         :: -> Gsolv                  -0.052789567667 Eh    ::
         :: repulsion energy           2.078738151452 Eh    ::

    * Orbital Energies and Occupations

         #    Occupation            Energy/Eh            Energy/eV
      -------------------------------------------------------------
         1        2.0000           -0.7118217             -19.3697
       ...           ...                  ...                  ...
        90        2.0000           -0.4429845             -12.0542
        91        2.0000           -0.4367323             -11.8841
        92        2.0000           -0.4351726             -11.8417
        93        2.0000           -0.4304820             -11.7140
        94        2.0000           -0.4236993             -11.5294
        95        2.0000           -0.4212090             -11.4617
        96        2.0000           -0.4123649             -11.2210
        97        2.0000           -0.4108808             -11.1806
        98        2.0000           -0.4075613             -11.0903
        99        2.0000           -0.4018218             -10.9341
       100        2.0000           -0.3964158             -10.7870
       101        2.0000           -0.3846902             -10.4680
       102        1.9820           -0.3518306              -9.5738 (HOMO)
       103        0.0180           -0.3428979              -9.3307 (LUMO)
       104                         -0.3181860              -8.6583
       105                         -0.2933859              -7.9834
       106                         -0.2856530              -7.7730
       107                         -0.2719969              -7.4014
       108                         -0.2546583              -6.9296
       109                         -0.2383319              -6.4853
       110                         -0.2331297              -6.3438
       111                         -0.2294812              -6.2445
       112                         -0.2282885              -6.2120
       113                         -0.2251909              -6.1278
       ...                                ...                  ...
       198                          1.1566347              31.4736
      -------------------------------------------------------------
                  HL-Gap            0.0089327 Eh            0.2431 eV

     #   Z          covCN         q      C6AA      α(0)
     1   6 C        3.761    -0.104    22.528     6.766
     2   6 C        3.908     0.021    20.158     6.382
     3   6 C        3.761    -0.104    22.534     6.767
     4   6 C        2.978    -0.013    28.321     8.729
     5   6 C        2.928    -0.036    28.904     8.817
     6   6 C        2.917    -0.045    29.113     8.848
     7   6 C        2.919    -0.034    28.847     8.808
     8   6 C        2.924    -0.060    29.496     8.906
     9   6 C        2.928     0.057    26.717     8.477
    10   7 N        2.755    -0.071    22.618     7.063
    11   6 C        2.925     0.080    26.214     8.396
    12   6 C        2.918    -0.032    28.796     8.800
    13   6 C        2.923    -0.022    28.556     8.763
    14   6 C        2.987    -0.003    28.091     8.694
    15   6 C        2.975     0.013    27.715     8.635
    16   6 C        2.924    -0.040    28.999     8.831
    17   6 C        2.975     0.017    27.634     8.623
    18   6 C        2.930    -0.021    28.527     8.759
    19   6 C        2.972     0.027    27.395     8.585
    20   6 C        1.913     0.120    28.141     8.567
    21   7 N        0.911    -0.248    26.461     7.440
    22   6 C        2.922    -0.015    28.398     8.739
    23   6 C        2.923    -0.020    28.504     8.755
    24   6 C        2.987     0.004    27.918     8.667
    25   6 C        2.960     0.088    26.040     8.370
    26   7 N        1.849    -0.234    26.977     7.698
    27   6 C        2.964     0.085    26.109     8.381
    28   6 C        2.926    -0.026    28.659     8.779
    29   6 C        2.973     0.026    27.407     8.587
    30   6 C        1.911     0.121    28.133     8.566
    31   7 N        0.911    -0.232    26.081     7.386
    32   6 C        2.973     0.027    27.398     8.586
    33   6 C        1.911     0.121    28.131     8.566
    34   7 N        0.911    -0.232    26.071     7.385
    35   6 C        2.926    -0.027    28.665     8.780
    36   6 C        2.964     0.086    26.088     8.378
    37   7 N        1.849    -0.235    27.003     7.701
    38   6 C        2.959     0.090    26.002     8.364
    39   6 C        2.928     0.057    26.717     8.477
    40   6 C        2.924    -0.060    29.496     8.906
    41   6 C        2.919    -0.034    28.847     8.808
    42   6 C        2.917    -0.045    29.113     8.848
    43   6 C        2.928    -0.036    28.904     8.817
    44   6 C        2.978    -0.013    28.321     8.730
    45   1 H        0.925     0.042     2.418     2.432
    46   1 H        0.925     0.042     2.418     2.432
    47   1 H        0.925     0.030     2.580     2.512
    48   1 H        0.925     0.031     2.572     2.508
    49   1 H        0.925     0.042     2.417     2.431
    50   1 H        0.925     0.042     2.417     2.431
    51   1 H        0.926     0.034     2.524     2.484
    52   1 H        0.926     0.027     2.625     2.534
    53   1 H        0.926     0.028     2.619     2.530
    54   1 H        0.926     0.023     2.694     2.567
    55   1 H        0.926     0.062     2.177     2.307
    56   1 H        0.926     0.073     2.048     2.238
    57   1 H        0.926     0.060     2.197     2.318
    58   1 H        0.926     0.062     2.179     2.308
    59   1 H        0.926     0.061     2.192     2.315
    60   1 H        0.926     0.075     2.035     2.231
    61   1 H        0.926     0.076     2.016     2.220
    62   1 H        0.926     0.077     2.013     2.219
    63   1 H        0.926     0.023     2.694     2.567
    64   1 H        0.926     0.028     2.619     2.530
    65   1 H        0.926     0.027     2.625     2.534
    66   1 H        0.926     0.034     2.524     2.484

molecular dipole:
                 x           y           z       tot (Debye)
 q only:       -2.585      -0.326      -0.000
   full:       -2.879      -0.298      -0.000       7.356

 projected vibrational frequencies (cm⁻¹)
eigval :       -0.00    -0.00    -0.00    -0.00     0.00     0.00
eigval :      -17.15    11.23    19.37    23.30    35.70    42.72
eigval :       54.99    67.33    68.46    89.21    89.91    94.24
eigval :      104.26   107.02   108.17   127.45   130.39   139.10
eigval :      153.28   182.52   186.89   192.76   213.82   219.21
eigval :      226.20   237.94   249.13   278.36   291.26   303.90
eigval :      306.58   329.32   330.94   343.23   356.64   364.84
eigval :      366.87   378.34   380.25   385.93   407.13   417.56
eigval :      419.61   424.79   434.58   445.89   452.95   475.59
eigval :      477.05   487.89   508.46   512.88   531.83   534.75
eigval :      542.49   546.11   550.98   566.97   569.17   583.74
eigval :      592.08   605.12   619.01   643.10   644.44   647.80
eigval :      651.44   675.52   680.39   688.24   692.31   695.44
eigval :      707.61   723.90   731.32   738.60   770.55   770.69
eigval :      776.64   777.54   819.21   830.18   832.01   850.68
eigval :      854.26   859.65   865.53   866.15   872.16   873.85
eigval :      874.43   912.48   913.18   916.16   921.62   921.67
eigval :      924.24   926.50   939.00   958.00   961.60   987.90
eigval :     1010.99  1043.87  1058.51  1075.31  1087.23  1111.08
eigval :     1117.70  1118.38  1135.79  1138.69  1144.75  1158.16
eigval :     1167.86  1171.39  1185.11  1185.64  1185.90  1187.93
eigval :     1192.58  1222.47  1232.50  1241.38  1247.57  1259.61
eigval :     1264.85  1270.81  1276.72  1291.01  1292.65  1310.05
eigval :     1314.61  1323.23  1327.96  1332.59  1336.23  1343.64
eigval :     1373.53  1391.02  1400.59  1408.88  1419.26  1423.48
eigval :     1426.22  1435.19  1439.02  1440.39  1459.64  1471.05
eigval :     1475.49  1486.27  1486.75  1487.78  1491.66  1496.69
eigval :     1501.66  1507.56  1532.73  1545.15  1570.33  1570.52
eigval :     1573.29  1582.47  1588.91  1589.34  1599.13  2365.91
eigval :     2367.33  2367.48  3021.78  3024.31  3039.37  3041.57
eigval :     3047.94  3052.13  3073.05  3073.09  3080.87  3080.97
eigval :     3090.11  3090.14  3095.79  3096.44  3098.76  3099.36
eigval :     3102.44  3102.70  3109.24  3114.07  3114.67  3118.97

   temp. (K)  partition function   enthalpy   heat capacity  entropy
                                   cal/mol     cal/K/mol   cal/K/mol   J/K/mol
 298.15  VIB  0.452E+16            20734.407    129.165    128.638
         ROT  0.719E+08              888.752      2.981     38.931
         INT  0.325E+24            21623.159    132.146    167.569
         TR   0.129E+29             1481.254      4.968     44.847
         TOT                       23104.4133   137.1139   212.4157   888.7474

       T/K    H(0)-H(T)+PV         H(T)/Eh          T*S/Eh         G(T)/Eh
   ------------------------------------------------------------------------
    298.15    0.368192E-01    0.520743E+00    0.100926E+00    0.419818E+00
   ------------------------------------------------------------------------

         :::::::::::::::::::::::::::::::::::::::::::::::::::::
         ::                  THERMODYNAMIC                  ::
         :::::::::::::::::::::::::::::::::::::::::::::::::::::
         :: total free energy        -109.712352162755 Eh   ::
         ::.................................................::
         :: total energy             -110.132169806674 Eh   ::
         :: zero point energy           0.483923981453 Eh   ::
         :: G(RRHO) w/o ZPVE           -0.064106337535 Eh   ::
         :: G(RRHO) contrib.            0.419817643919 Eh   ::
         :::::::::::::::::::::::::::::::::::::::::::::::::::::

           -------------------------------------------------
          | TOTAL ENERGY             -110.132169806674 Eh   |
          | TOTAL ENTHALPY           -109.611426598916 Eh   |
          | TOTAL FREE ENERGY        -109.712352162755 Eh   |
          | GRADIENT NORM               0.000055036231 Eh/α |
          | HOMO-LUMO GAP               0.243071119954 eV   |
           -------------------------------------------------

 * finished run on 2025/07/19 at 23:35:49.656
