   * xtb version 6.7.1 (edcfbbe) compiled by 'albert@albert-system' on 2024-07-22

   ID    Z sym.   atoms
    1    6 C      1-9, 11-20, 22-25, 27-30, 32, 33, 35, 36, 38-44
    2    7 N      10, 21, 26, 31, 34, 37
    3    1 H      45-66

          program call               : xtb data2507/toluene/3-AcBPtCN/3-AcBPtCN_toluene_T1_crest.xyz --gfn 2 --uhf 2 --gbsa toluene --ohess vtight --parallel 40 --molden --ceasefiles --namespace data2507/toluene/3-AcBPtCN/3-AcBPtCN_toluene_T1_finalOpt
      * Solvation model:               GBSA
        Solvent                        toluene
        Solvent mass                       9.2140E+01 g/mol
          :  Hamiltonian                  GFN2-xTB          :
 * total energy  :  -110.0981122 Eh     change        0.9481482E-10 Eh
 * total energy  :  -110.0982568 Eh     change       -0.1446507E-03 Eh
 * total energy  :  -110.0982143 Eh     change        0.4248555E-04 Eh
 * total energy  :  -110.0983118 Eh     change       -0.9741195E-04 Eh
 * total energy  :  -110.0983248 Eh     change       -0.1302176E-04 Eh
 * total energy  :  -110.0983071 Eh     change        0.1766611E-04 Eh
 * total energy  :  -110.0983262 Eh     change       -0.1906666E-04 Eh
 * total energy  :  -110.0983188 Eh     change        0.7412125E-05 Eh
 * total energy  :  -110.0983243 Eh     change       -0.5492799E-05 Eh
 * total energy  :  -110.0983270 Eh     change       -0.2733360E-05 Eh
 * total energy  :  -110.0983426 Eh     change       -0.1848643E-06 Eh
 * total energy  :  -110.0983422 Eh     change        0.4136254E-06 Eh
 * total energy  :  -110.0983429 Eh     change       -0.7676456E-06 Eh
 * total energy  :  -110.0983405 Eh     change        0.2410558E-05 Eh
 * total energy  :  -110.0983432 Eh     change       -0.2714453E-05 Eh
 * total energy  :  -110.0983434 Eh     change       -0.1249922E-06 Eh
 * total energy  :  -110.0983440 Eh     change       -0.6218468E-06 Eh
 * total energy  :  -110.0983441 Eh     change       -0.1104419E-06 Eh
 * total energy  :  -110.0983441 Eh     change       -0.5406164E-07 Eh
   *** GEOMETRY OPTIMIZATION CONVERGED AFTER 32 ITERATIONS ***

 final structure:
================
66
 xtb: 6.7.1 (edcfbbe)
C           -7.31763086965967       -0.03059571461081       -0.05166485617537
C           -6.26632636082590       -1.15686855368397        0.01052814232784
C           -6.96481741034280       -2.52979273406420        0.08271000084084
C           -5.43188029938125       -0.97450043335726        1.25924295388743
C           -6.04289006851422       -0.98887954377883        2.50606849099933
C           -5.32185012425816       -0.83488701824628        3.67614124425350
C           -3.94610111467473       -0.66187997719517        3.61669893190615
C           -3.31125994950407       -0.64312199126558        2.39583248944698
C           -4.03948497070913       -0.79536352211584        1.20598736069604
N           -3.37762619063717       -0.77063663222408       -0.00356770887275
C           -1.96066638832316       -0.60938438536688       -0.00872116445770
C           -1.13739433204607       -1.74242382780361        0.00409241291831
C            0.22245240822034       -1.57746138092322        0.00416920753999
C            0.79614970208656       -0.29567198678297       -0.00779431474383
C           -0.02970239846018        0.85263877715256       -0.02302593231167
C           -1.41777891319913        0.65784037385943       -0.02315891312414
C            0.57551195250287        2.16611512243745       -0.03547560234885
C           -0.17659737893521        3.34363455454055       -0.05272227167905
C            0.43577468647395        4.58821424224003       -0.06306263403298
C           -0.35768410623849        5.75405186446955       -0.08082117152517
N           -1.00772457262915        6.70111745307459       -0.09518481364373
C            1.83949970761925        4.69489471324569       -0.05598566925570
C            2.59227417973227        3.55377027502479       -0.03946897236899
C            1.98904427366073        2.28234552398763       -0.02949940644839
C            2.81783192564706        1.11875736805280       -0.01278423717670
N            4.14637736197963        1.23615613580922       -0.00599612630739
C            4.92327997697236        0.15656615078766        0.01038367243327
C            6.31833577117764        0.26242398117254        0.02016089222623
C            7.11401357738377       -0.87688789328758        0.03780380954825
C            8.51750260120939       -0.75726433402556        0.04845567352511
N            9.66092425709383       -0.64708260364167        0.05700127218785
C            6.52102376708154       -2.15947460218609        0.04532995311452
C            7.33723932405760       -3.30631935122235        0.06281440028669
N            7.99212552267377       -4.25045475434320        0.07729199070572
C            5.13525677368620       -2.28683034202324        0.03573779155414
C            4.31745658238361       -1.15499538813099        0.01905064726507
N            2.98755991342629       -1.25868172499938        0.01240543665778
C            2.22372560037258       -0.17119004408634       -0.00281553732109
C           -4.03503706140190       -0.91662584751661       -1.20679679401762
C           -3.30378232251051       -0.87175182200720       -2.40357874545231
C           -3.93351540938982       -1.01576952743654       -3.61875235458400
C           -5.30723046504954       -1.20803794726389       -3.66519166589206
C           -6.03209195002319       -1.25007296981807       -2.48811176615517
C           -5.42647429409753       -1.10611651625108       -1.24693847968203
H           -7.95384964718465       -0.04897246977284        0.82783449030583
H           -6.82394611512682        0.93808953762777       -0.10001052621599
H           -7.94739056172097       -0.13987979571029       -0.92920810993975
H           -7.59458604562087       -2.59461975369311        0.96472460587663
H           -6.22228285015089       -3.32408451285019        0.13033591947138
H           -7.58630985036033       -2.69133300719258       -0.79270326548400
H           -7.11061574603941       -1.12501893535390        2.57239622663482
H           -5.82816611292568       -0.85066986685344        4.62891954035405
H           -3.37027585483022       -0.54291638136650        4.52167347730607
H           -2.24183361042289       -0.51093286320396        2.35201581439407
H           -1.58016981968584       -2.72618937699316        0.01491915163375
H            0.88911404484116       -2.42549800681833        0.01513593070452
H           -2.09170433617540        1.49915559651424       -0.03308260488091
H           -1.25435572179631        3.31170756061845       -0.05862300436200
H            2.30227735547973        5.67016127605478       -0.06386988407400
H            3.67037158497643        3.59751509254709       -0.03385047578280
H            6.76860098859650        1.24299895587706        0.01401150933874
H            4.67773239292606       -3.26406032271974        0.04158961799015
H           -2.23630730057484       -0.72229186539214       -2.36942712427760
H           -3.35543332059552       -0.97875058493734       -4.52933892750508
H           -5.80927847732657       -1.32289803804124       -4.61341698791860
H           -7.09865483361417       -1.39939506393650       -2.54430099131305

          :  Hamiltonian                  GFN2-xTB          :
         :: gradient norm              0.000062723604 Eh/a0 ::
         :: HOMO-LUMO gap              0.672717613729 eV    ::
         :: SCC energy              -112.175636569043 Eh    ::
         :: -> dispersion             -0.095291617379 Eh    ::
         :: -> Gsolv                  -0.062949119536 Eh    ::
         :: repulsion energy           2.077292427414 Eh    ::

    * Orbital Energies and Occupations

         #    Occupation            Energy/Eh            Energy/eV
      -------------------------------------------------------------
         1        2.0000           -0.6979311             -18.9917
       ...           ...                  ...                  ...
        91        2.0000           -0.4326747             -11.7737
        92        2.0000           -0.4301758             -11.7057
        93        2.0000           -0.4285774             -11.6622
        94        2.0000           -0.4270886             -11.6217
        95        2.0000           -0.4256279             -11.5819
        96        2.0000           -0.4212900             -11.4639
        97        2.0000           -0.4202224             -11.4348
        98        2.0000           -0.4145303             -11.2799
        99        2.0000           -0.4126003             -11.2274
       100        2.0000           -0.4088411             -11.1251
       101        1.6948           -0.3735212             -10.1640
       102        1.3052           -0.3719584             -10.1215
       103        1.0000           -0.3283079              -8.9337 (HOMO)
       104        0.0000           -0.3035859              -8.2610 (LUMO)
       105                         -0.2807578              -7.6398
       106                         -0.2766604              -7.5283
       107                         -0.2597642              -7.0685
       108                         -0.2498963              -6.8000
       109                         -0.2409532              -6.5567
       110                         -0.2403065              -6.5391
       111                         -0.2382702              -6.4837
       112                         -0.2223150              -6.0495
       113                         -0.2208067              -6.0085
       114                         -0.2169430              -5.9033
       ...                                ...                  ...
       198                          1.1704342              31.8491
      -------------------------------------------------------------
                  HL-Gap            0.0247220 Eh            0.6727 eV

     #   Z          covCN         q      C6AA      α(0)
     1   6 C        3.761    -0.109    22.624     6.780
     2   6 C        3.909     0.025    20.093     6.371
     3   6 C        3.761    -0.109    22.621     6.780
     4   6 C        2.978     0.001    27.989     8.678
     5   6 C        2.925    -0.031    28.763     8.795
     6   6 C        2.917    -0.028    28.709     8.786
     7   6 C        2.917    -0.026    28.641     8.776
     8   6 C        2.922    -0.047    29.177     8.858
     9   6 C        2.929     0.060    26.662     8.468
    10   7 N        2.756    -0.013    21.506     6.888
    11   6 C        2.928     0.060    26.647     8.466
    12   6 C        2.916    -0.037    28.909     8.817
    13   6 C        2.924    -0.024    28.596     8.769
    14   6 C        2.987    -0.004    28.124     8.699
    15   6 C        2.977     0.007    27.850     8.656
    16   6 C        2.922    -0.041    29.018     8.834
    17   6 C        2.975     0.006    27.890     8.663
    18   6 C        2.929    -0.023    28.590     8.769
    19   6 C        2.971     0.015    27.677     8.629
    20   6 C        1.913     0.117    28.210     8.578
    21   7 N        0.911    -0.271    27.003     7.516
    22   6 C        2.921    -0.022    28.552     8.763
    23   6 C        2.922    -0.024    28.607     8.771
    24   6 C        2.986    -0.001    28.044     8.687
    25   6 C        2.945     0.079    26.244     8.402
    26   7 N        1.849    -0.243    27.206     7.731
    27   6 C        2.943     0.091    25.967     8.357
    28   6 C        2.925    -0.052    29.283     8.874
    29   6 C        2.974     0.013    27.721     8.636
    30   6 C        1.912     0.117    28.212     8.578
    31   7 N        0.911    -0.269    26.958     7.509
    32   6 C        2.974     0.011    27.762     8.643
    33   6 C        1.912     0.117    28.227     8.580
    34   7 N        0.911    -0.271    27.011     7.517
    35   6 C        2.925    -0.051    29.276     8.873
    36   6 C        2.944     0.090    26.009     8.364
    37   7 N        1.849    -0.240    27.133     7.720
    38   6 C        2.946     0.082    26.168     8.390
    39   6 C        2.929     0.060    26.660     8.468
    40   6 C        2.922    -0.047    29.175     8.858
    41   6 C        2.917    -0.026    28.641     8.776
    42   6 C        2.917    -0.028    28.708     8.786
    43   6 C        2.925    -0.031    28.763     8.795
    44   6 C        2.978     0.001    27.989     8.678
    45   1 H        0.925     0.054     2.275     2.359
    46   1 H        0.925     0.039     2.465     2.455
    47   1 H        0.925     0.054     2.275     2.359
    48   1 H        0.925     0.054     2.275     2.359
    49   1 H        0.925     0.039     2.460     2.453
    50   1 H        0.925     0.054     2.275     2.359
    51   1 H        0.926     0.054     2.270     2.356
    52   1 H        0.926     0.047     2.355     2.400
    53   1 H        0.926     0.045     2.386     2.415
    54   1 H        0.926     0.042     2.428     2.437
    55   1 H        0.926     0.059     2.205     2.322
    56   1 H        0.926     0.065     2.144     2.290
    57   1 H        0.926     0.058     2.227     2.334
    58   1 H        0.926     0.053     2.277     2.359
    59   1 H        0.926     0.047     2.353     2.399
    60   1 H        0.926     0.058     2.228     2.334
    61   1 H        0.926     0.052     2.293     2.368
    62   1 H        0.926     0.054     2.270     2.356
    63   1 H        0.926     0.042     2.426     2.435
    64   1 H        0.926     0.045     2.384     2.415
    65   1 H        0.926     0.047     2.355     2.400
    66   1 H        0.926     0.054     2.270     2.356

molecular dipole:
                 x           y           z       tot (Debye)
 q only:       -9.189      -0.792      -0.020
   full:       -9.289      -0.810      -0.022      23.701

 projected vibrational frequencies (cm⁻¹)
eigval :       -0.00    -0.00    -0.00     0.00     0.00     0.00
eigval :        2.93    15.39    17.08    26.47    38.51    41.34
eigval :       61.35    66.58    79.91    87.61    91.22    95.55
eigval :      100.34   106.17   114.71   124.66   125.96   138.91
eigval :      150.45   180.40   187.92   191.05   209.71   214.35
eigval :      227.61   238.29   252.20   281.53   283.80   301.37
eigval :      305.69   323.95   328.61   337.45   359.64   364.61
eigval :      372.07   378.41   382.02   395.68   407.97   414.99
eigval :      418.72   421.14   433.25   445.32   446.36   475.96
eigval :      484.40   499.67   500.94   517.50   529.11   534.84
eigval :      536.12   541.44   548.45   562.85   568.02   579.61
eigval :      586.72   598.00   619.24   625.41   639.06   643.50
eigval :      644.85   651.57   683.72   686.22   686.91   696.36
eigval :      700.85   706.51   714.00   728.92   732.14   759.95
eigval :      771.91   774.19   812.49   815.00   818.59   823.82
eigval :      828.46   851.21   852.77   866.33   869.77   870.23
eigval :      871.52   913.59   915.07   916.55   917.08   919.27
eigval :      923.83   926.43   935.36   946.37   957.15   982.86
eigval :     1010.64  1037.18  1061.73  1072.07  1084.74  1104.89
eigval :     1110.21  1113.88  1137.48  1139.61  1142.69  1145.18
eigval :     1162.22  1182.12  1182.62  1183.78  1184.88  1186.11
eigval :     1188.56  1218.61  1230.52  1234.57  1241.14  1245.70
eigval :     1257.05  1267.50  1272.31  1288.05  1291.37  1293.42
eigval :     1302.98  1313.14  1318.32  1327.46  1333.23  1334.39
eigval :     1341.40  1363.80  1391.05  1395.88  1399.86  1411.68
eigval :     1414.51  1414.65  1419.84  1427.09  1451.50  1452.67
eigval :     1466.53  1470.48  1479.12  1479.29  1480.03  1480.12
eigval :     1489.92  1494.58  1503.57  1506.96  1529.55  1547.49
eigval :     1560.32  1564.83  1574.49  1574.83  1586.72  2339.41
eigval :     2346.26  2351.22  3028.27  3030.15  3051.01  3052.82
eigval :     3057.88  3061.62  3088.34  3088.51  3089.15  3095.35
eigval :     3095.50  3096.45  3098.22  3098.50  3103.40  3104.22
eigval :     3104.54  3104.90  3106.69  3109.07  3109.76  3113.35

   temp. (K)  partition function   enthalpy   heat capacity  entropy
                                   cal/mol     cal/K/mol   cal/K/mol   J/K/mol
 298.15  VIB  0.167E+17            20834.318    130.237    130.457
         ROT  0.721E+08              888.752      2.981     38.939
         INT  0.120E+25            21723.070    133.218    169.396
         TR   0.129E+29             1481.254      4.968     44.847
         TOT                       23204.3242   138.1865   214.2423   896.3900

       T/K    H(0)-H(T)+PV         H(T)/Eh          T*S/Eh         G(T)/Eh
   ------------------------------------------------------------------------
    298.15    0.369784E-01    0.518696E+00    0.101793E+00    0.416903E+00
   ------------------------------------------------------------------------

         :::::::::::::::::::::::::::::::::::::::::::::::::::::
         ::                  THERMODYNAMIC                  ::
         :::::::::::::::::::::::::::::::::::::::::::::::::::::
         :: total free energy        -109.681441559748 Eh   ::
         ::.................................................::
         :: total energy             -110.098344135592 Eh   ::
         :: zero point energy           0.481717582799 Eh   ::
         :: G(RRHO) w/o ZPVE           -0.064815006955 Eh   ::
         :: G(RRHO) contrib.            0.416902575844 Eh   ::
         :::::::::::::::::::::::::::::::::::::::::::::::::::::

           -------------------------------------------------
          | TOTAL ENERGY             -110.098344135592 Eh   |
          | TOTAL ENTHALPY           -109.579648108466 Eh   |
          | TOTAL FREE ENERGY        -109.681441559748 Eh   |
          | GRADIENT NORM               0.000061403788 Eh/α |
          | HOMO-LUMO GAP               0.672719229152 eV   |
           -------------------------------------------------

 * finished run on 2025/07/19 at 23:43:41.801
