   * xtb version 6.7.1 (edcfbbe) compiled by 'albert@albert-system' on 2024-07-22

   ID    Z sym.   atoms
    1    6 C      1-9, 11-20, 22-25, 27-30, 32, 33, 35, 36, 38-44
    2    7 N      10, 21, 26, 31, 34, 37
    3    1 H      45-66

          program call               : xtb data2507/toluene/3-AcBPtCN/3-AcBPtCN_toluene_S0_finalOpt.xtbopt.xyz --gfn 2 --uhf 2 --gbsa toluene --ohess vtight --parallel 40 --molden --ceasefiles --namespace data2507/toluene/3-AcBPtCN/3-AcBPtCN_toluene_T1_preOpt
      * Solvation model:               GBSA
        Solvent                        toluene
        Solvent mass                       9.2140E+01 g/mol
          :  Hamiltonian                  GFN2-xTB          :
 * total energy  :  -110.0899565 Eh     change       -0.5746202E-08 Eh
 * total energy  :  -110.0923027 Eh     change       -0.2346248E-02 Eh
 * total energy  :  -110.0931014 Eh     change       -0.7986660E-03 Eh
 * total energy  :  -110.0930474 Eh     change        0.5400063E-04 Eh
 * total energy  :  -110.0932343 Eh     change       -0.1868528E-03 Eh
 * total energy  :  -110.0932125 Eh     change        0.2177901E-04 Eh
 * total energy  :  -110.0932497 Eh     change       -0.3718898E-04 Eh
 * total energy  :  -110.0932520 Eh     change       -0.2336510E-05 Eh
 * total energy  :  -110.0932536 Eh     change       -0.1604191E-05 Eh
 * total energy  :  -110.0932609 Eh     change       -0.7317941E-05 Eh
 * total energy  :  -110.0932825 Eh     change       -0.2849220E-08 Eh
 * total energy  :  -110.0932826 Eh     change       -0.1398329E-06 Eh
 * total energy  :  -110.0932823 Eh     change        0.3565480E-06 Eh
 * total energy  :  -110.0932830 Eh     change       -0.7104926E-06 Eh
 * total energy  :  -110.0932828 Eh     change        0.1404170E-06 Eh
 * total energy  :  -110.0932831 Eh     change       -0.3137533E-06 Eh
 * total energy  :  -110.0932830 Eh     change        0.1288478E-06 Eh
 * total energy  :  -110.0932833 Eh     change       -0.2710580E-06 Eh
 * total energy  :  -110.0932834 Eh     change       -0.6986467E-07 Eh
   *** GEOMETRY OPTIMIZATION CONVERGED AFTER 30 ITERATIONS ***

 final structure:
================
66
 xtb: 6.7.1 (edcfbbe)
C           -6.78070752609105        1.33670747608757        1.99609427785388
C           -5.41519381325756        1.14340084517178        1.33555895810789
C           -4.35681356872601        1.02547838596400        2.45283201086765
C           -5.04577466221693        2.29801585350603        0.42082083398825
C           -5.68865533098729        3.52592680559324        0.40614140841479
C           -5.29928683246548        4.52360695769139       -0.47337598627190
C           -4.27254818066425        4.29955982368073       -1.37492376013164
C           -3.61566381811870        3.08371562556143       -1.37842323115175
C           -3.97814625190554        2.09974304329581       -0.46392812478060
N           -3.35592938937109        0.83575933936555       -0.46725951142483
C           -1.99579986740925        0.65847918138888       -0.37127884200201
C           -1.12507481004112        1.76910941587037       -0.28358123766531
C            0.22371228806156        1.58134352798658       -0.19234890460501
C            0.78776842662512        0.29319988997982       -0.16271282631632
C           -0.06779397512739       -0.83363507537323       -0.17493676340813
C           -1.44260320864496       -0.61873766545977       -0.26274899007198
C            0.50850962532655       -2.16100612990741       -0.09644958400237
C           -0.26536133233883       -3.32298631737277       -0.09730132146045
C            0.31979494742483       -4.57979218101036       -0.02662801331371
C           -0.49814121370370       -5.72802152527219       -0.03045664571521
N           -1.16886888400974       -6.66083920488063       -0.03531060998426
C            1.71905652036177       -4.71308282006102        0.04739338208639
C            2.49458748090460       -3.58769113713534        0.04780798402168
C            1.91821516499443       -2.30439229453314       -0.02327708600220
C            2.77049692897259       -1.16155593870362       -0.01948248966424
N            4.09486651516110       -1.29489053073901        0.05002999143677
C            4.89967417419956       -0.24227054401734        0.05593911049471
C            6.29046014183273       -0.37371863876142        0.13209724173474
C            7.10999057583026        0.74850399481554        0.13758877683081
C            8.50914288278686        0.59921790156641        0.21495569711563
N            9.64810347224452        0.46579512768829        0.27844377769530
C            6.54742703860564        2.04225514236751        0.06671772768336
C            7.38606300305170        3.17249765240297        0.07301941955711
N            8.05886671386080        4.10410948634254        0.07680714413630
C            5.16515402540304        2.19706053177858       -0.00893460554526
C            4.32298160488718        1.08547860294067       -0.01454805496458
N            2.99927890754106        1.20657486951823       -0.07789999296033
C            2.20471762586946        0.14430927065694       -0.08570048896482
C           -4.28810956806281       -0.22017012029044       -0.42175585765709
C           -4.20456169063181       -1.29572337783678       -1.30077274463575
C           -5.15137715923334       -2.30123593695244       -1.24873467394327
C           -6.19026631034390       -2.22003765719312       -0.33692900217731
C           -6.30082884974032       -1.12238404526048        0.50160755475059
C           -5.36267009017512       -0.10232263141939        0.46876988360390
H           -6.77354531269217        2.23054686611176        2.61396951757892
H           -7.56705413923417        1.42508695921715        1.25005556572436
H           -7.00217612982918        0.49700007642666        2.64932600403288
H           -4.59122267241947        0.17753351656809        3.09248921785786
H           -4.35886224780356        1.92950720966759        3.05763615636857
H           -3.35634132717285        0.88475774642735        2.05278915682498
H           -6.50575832376215        3.71957013712602        1.08085189222721
H           -5.81363498369790        5.47255248568205       -0.46548851201017
H           -3.99063963129414        5.06341706211040       -2.08338260486037
H           -2.84293924677423        2.88227250542249       -2.10489599694260
H           -1.52227275456758        2.77008798089369       -0.25765160842546
H            0.89351935164406        2.42475386311151       -0.12872726019280
H           -2.10679718629155       -1.46342107711270       -0.22258216736743
H           -1.34113269434808       -3.27250141116474       -0.15149316685909
H            2.16124185518639       -5.69636954711757        0.10159165648238
H            3.57021434328883       -3.65353917127995        0.10269523887713
H            6.71865819568395       -1.36261227050330        0.18590202605974
H            4.73063641271356        3.18309552139389       -0.06445551029650
H           -3.41768387823555       -1.32517325564643       -2.03955940727429
H           -5.08344567684578       -3.13783893021722       -1.92738239276446
H           -6.92954933388431       -3.00506030527915       -0.28991611634117
H           -7.13356290817064       -1.07224301475906        1.18301617197956

          :  Hamiltonian                  GFN2-xTB          :
         :: gradient norm              0.000093684487 Eh/a0 ::
         :: HOMO-LUMO gap              0.706863309516 eV    ::
         :: SCC energy              -112.172168749445 Eh    ::
         :: -> dispersion             -0.096476425881 Eh    ::
         :: -> Gsolv                  -0.060730740343 Eh    ::
         :: repulsion energy           2.078885393504 Eh    ::

    * Orbital Energies and Occupations

         #    Occupation            Energy/Eh            Energy/eV
      -------------------------------------------------------------
         1        2.0000           -0.6986089             -19.0101
       ...           ...                  ...                  ...
        91        2.0000           -0.4337140             -11.8020
        92        2.0000           -0.4314594             -11.7406
        93        2.0000           -0.4286854             -11.6651
        94        2.0000           -0.4281761             -11.6513
        95        2.0000           -0.4214287             -11.4677
        96        2.0000           -0.4178449             -11.3701
        97        2.0000           -0.4166762             -11.3383
        98        2.0000           -0.4145605             -11.2808
        99        2.0000           -0.4135525             -11.2533
       100        2.0000           -0.4088313             -11.1249
       101        1.6676           -0.3773798             -10.2690
       102        1.3324           -0.3760549             -10.2330
       103        1.0000           -0.3295195              -8.9667 (HOMO)
       104        0.0000           -0.3035426              -8.2598 (LUMO)
       105                         -0.2808585              -7.6425
       106                         -0.2734311              -7.4404
       107                         -0.2582013              -7.0260
       108                         -0.2434380              -6.6243
       109                         -0.2416886              -6.5767
       110                         -0.2398770              -6.5274
       111                         -0.2358820              -6.4187
       112                         -0.2354002              -6.4056
       113                         -0.2236053              -6.0846
       114                         -0.2179354              -5.9303
       ...                                ...                  ...
       198                          1.1694776              31.8231
      -------------------------------------------------------------
                  HL-Gap            0.0259769 Eh            0.7069 eV

     #   Z          covCN         q      C6AA      α(0)
     1   6 C        3.759    -0.112    22.699     6.792
     2   6 C        3.910     0.024    20.108     6.374
     3   6 C        3.761    -0.102    22.494     6.761
     4   6 C        2.986     0.001    27.997     8.680
     5   6 C        2.922    -0.034    28.835     8.806
     6   6 C        2.919    -0.029    28.727     8.789
     7   6 C        2.919    -0.029    28.730     8.790
     8   6 C        2.919    -0.041    29.023     8.834
     9   6 C        2.952     0.052    26.841     8.497
    10   7 N        2.755    -0.021    21.654     6.911
    11   6 C        2.909     0.071    26.411     8.427
    12   6 C        2.918    -0.048    29.186     8.859
    13   6 C        2.920    -0.024    28.601     8.770
    14   6 C        2.987    -0.007    28.184     8.708
    15   6 C        2.974     0.009    27.819     8.652
    16   6 C        2.925    -0.058    29.431     8.897
    17   6 C        2.975     0.005    27.907     8.665
    18   6 C        2.929    -0.023    28.591     8.769
    19   6 C        2.971     0.014    27.696     8.632
    20   6 C        1.913     0.117    28.216     8.579
    21   7 N        0.911    -0.272    27.032     7.520
    22   6 C        2.920    -0.022    28.555     8.763
    23   6 C        2.922    -0.025    28.625     8.774
    24   6 C        2.986    -0.000    28.031     8.685
    25   6 C        2.944     0.077    26.289     8.409
    26   7 N        1.850    -0.228    26.822     7.676
    27   6 C        2.940     0.092    25.949     8.355
    28   6 C        2.925    -0.051    29.278     8.874
    29   6 C        2.973     0.015    27.674     8.629
    30   6 C        1.912     0.118    28.201     8.576
    31   7 N        0.911    -0.265    26.864     7.496
    32   6 C        2.974     0.012    27.754     8.642
    33   6 C        1.912     0.116    28.233     8.581
    34   7 N        0.911    -0.270    26.979     7.512
    35   6 C        2.925    -0.051    29.263     8.871
    36   6 C        2.941     0.090    25.994     8.362
    37   7 N        1.850    -0.225    26.760     7.667
    38   6 C        2.943     0.085    26.105     8.380
    39   6 C        2.951     0.051    26.859     8.500
    40   6 C        2.919    -0.042    29.046     8.838
    41   6 C        2.919    -0.030    28.738     8.791
    42   6 C        2.919    -0.029    28.723     8.789
    43   6 C        2.922    -0.033    28.832     8.806
    44   6 C        2.986     0.001    27.997     8.679
    45   1 H        0.925     0.050     2.315     2.379
    46   1 H        0.925     0.046     2.373     2.409
    47   1 H        0.925     0.050     2.319     2.381
    48   1 H        0.925     0.048     2.350     2.397
    49   1 H        0.925     0.048     2.343     2.393
    50   1 H        0.925     0.035     2.515     2.480
    51   1 H        0.926     0.057     2.232     2.336
    52   1 H        0.926     0.046     2.366     2.406
    53   1 H        0.926     0.046     2.368     2.406
    54   1 H        0.926     0.049     2.329     2.387
    55   1 H        0.926     0.062     2.181     2.309
    56   1 H        0.926     0.059     2.206     2.323
    57   1 H        0.926     0.058     2.217     2.328
    58   1 H        0.926     0.053     2.278     2.360
    59   1 H        0.926     0.047     2.352     2.398
    60   1 H        0.926     0.056     2.244     2.343
    61   1 H        0.926     0.055     2.257     2.349
    62   1 H        0.926     0.057     2.236     2.339
    63   1 H        0.926     0.048     2.345     2.395
    64   1 H        0.926     0.045     2.382     2.413
    65   1 H        0.926     0.046     2.366     2.405
    66   1 H        0.926     0.058     2.228     2.334

molecular dipole:
                 x           y           z       tot (Debye)
 q only:       -8.319       0.934       0.047
   full:       -8.444       0.953      -0.041      21.600

 projected vibrational frequencies (cm⁻¹)
eigval :       -0.00    -0.00     0.00     0.00     0.00     0.00
eigval :       14.17    21.16    25.53    37.03    39.93    58.80
eigval :       61.13    70.66    83.20    85.38    90.61   101.92
eigval :      108.86   129.47   131.05   138.37   141.51   158.24
eigval :      172.97   180.50   187.55   188.72   205.97   220.89
eigval :      237.68   265.43   281.19   284.74   294.35   298.52
eigval :      315.40   328.52   337.53   350.08   360.21   369.40
eigval :      376.59   383.00   393.04   399.38   406.06   410.91
eigval :      417.97   425.85   430.74   444.53   458.32   475.97
eigval :      485.13   492.95   496.82   520.01   527.41   534.64
eigval :      545.15   557.16   558.91   566.65   568.25   573.12
eigval :      594.02   596.65   609.53   621.49   623.00   642.05
eigval :      643.58   647.01   676.94   687.66   688.16   692.47
eigval :      703.64   712.29   722.77   725.15   728.58   756.03
eigval :      775.22   783.12   801.14   806.67   809.98   819.35
eigval :      823.83   841.08   850.70   861.68   871.10   886.35
eigval :      890.48   907.01   914.48   915.87   919.85   924.14
eigval :      937.01   939.72   942.48   944.66   966.06   985.71
eigval :     1008.32  1038.54  1061.30  1072.05  1080.19  1097.94
eigval :     1104.81  1117.11  1133.47  1144.26  1148.80  1158.06
eigval :     1169.27  1179.11  1183.81  1185.46  1186.83  1189.50
eigval :     1191.29  1218.11  1227.10  1236.95  1245.11  1251.27
eigval :     1264.26  1267.72  1269.24  1272.69  1280.49  1282.70
eigval :     1296.41  1301.89  1315.54  1321.01  1323.03  1338.73
eigval :     1348.58  1369.57  1386.86  1395.88  1405.93  1412.51
eigval :     1415.36  1420.86  1424.32  1431.28  1442.58  1452.83
eigval :     1463.44  1468.36  1476.77  1483.07  1486.39  1487.91
eigval :     1496.54  1500.66  1501.92  1517.03  1519.19  1559.73
eigval :     1564.37  1570.43  1574.48  1578.25  1589.36  2338.85
eigval :     2345.65  2351.41  3032.18  3033.59  3036.97  3037.51
eigval :     3051.31  3052.41  3084.29  3084.55  3089.08  3089.29
eigval :     3090.27  3099.16  3099.59  3099.76  3100.36  3100.91
eigval :     3103.81  3105.95  3119.58  3119.95  3120.53  3141.49

   temp. (K)  partition function   enthalpy   heat capacity  entropy
                                   cal/mol     cal/K/mol   cal/K/mol   J/K/mol
 298.15  VIB  0.349E+15            20495.451    130.534    125.431
         ROT  0.709E+08              888.752      2.981     38.905
         INT  0.247E+23            21384.203    133.515    164.336
         TR   0.129E+29             1481.254      4.968     44.847
         TOT                       22865.4573   138.4835   209.1827   875.2205

       T/K    H(0)-H(T)+PV         H(T)/Eh          T*S/Eh         G(T)/Eh
   ------------------------------------------------------------------------
    298.15    0.364384E-01    0.519066E+00    0.993895E-01    0.419677E+00
   ------------------------------------------------------------------------

         :::::::::::::::::::::::::::::::::::::::::::::::::::::
         ::                  THERMODYNAMIC                  ::
         :::::::::::::::::::::::::::::::::::::::::::::::::::::
         :: total free energy        -109.673606308530 Eh   ::
         ::.................................................::
         :: total energy             -110.093283349471 Eh   ::
         :: zero point energy           0.482628072698 Eh   ::
         :: G(RRHO) w/o ZPVE           -0.062951031758 Eh   ::
         :: G(RRHO) contrib.            0.419677040941 Eh   ::
         :::::::::::::::::::::::::::::::::::::::::::::::::::::

           -------------------------------------------------
          | TOTAL ENERGY             -110.093283349471 Eh   |
          | TOTAL ENTHALPY           -109.574216851110 Eh   |
          | TOTAL FREE ENERGY        -109.673606308530 Eh   |
          | GRADIENT NORM               0.000094333175 Eh/α |
          | HOMO-LUMO GAP               0.706866206788 eV   |
           -------------------------------------------------

 * finished run on 2025/07/19 at 23:39:05.180
