   * xtb version 6.7.1 (edcfbbe) compiled by 'albert@albert-system' on 2024-07-22

   ID    Z sym.   atoms
    1    7 N      1, 14, 24
    2    6 C      2-13, 15-23, 25-36
    3    1 H      37-55

          program call               : xtb data2507/gas/ACRF/ACRF_gas_S0_finalOpt.xtbopt.xyz --gfn 2 --spinpol --tblite --uhf 2 --ohess vtight --parallel 40 --molden --ceasefiles --namespace data2507/gas/ACRF/ACRF_gas_T1_preOpt
 * total energy  :   -88.9908133 Eh     change        0.3711875E-10 Eh
 * total energy  :   -88.9975207 Eh     change       -0.6707383E-02 Eh
 * total energy  :   -88.9991026 Eh     change       -0.1581899E-02 Eh
 * total energy  :   -88.9991391 Eh     change       -0.3653520E-04 Eh
 * total energy  :   -88.9991353 Eh     change        0.3793124E-05 Eh
 * total energy  :   -88.9991256 Eh     change        0.9735162E-05 Eh
 * total energy  :   -88.9991505 Eh     change       -0.2494944E-04 Eh
 * total energy  :   -88.9991513 Eh     change       -0.7687490E-06 Eh
 * total energy  :   -88.9991512 Eh     change        0.1549258E-06 Eh
 * total energy  :   -88.9991520 Eh     change       -0.7971482E-06 Eh
 * total energy  :   -88.9991523 Eh     change       -0.3708581E-06 Eh
 * total energy  :   -88.9991524 Eh     change       -0.1200524E-06 Eh
 * total energy  :   -88.9991525 Eh     change       -0.9292336E-07 Eh
   *** GEOMETRY OPTIMIZATION CONVERGED AFTER 13 ITERATIONS ***

 final structure:
================
55
 xtb: 6.7.1 (edcfbbe)
N           -2.59964876054017       -5.76293950632575        0.01440336655982
C           -2.71522689118181       -4.61380854542565        0.01141420525351
C           -2.84583739458726       -3.22846961785351        0.00753035419901
C           -4.13661058431055       -2.62983785890586        0.00484432032009
C           -4.28975105967538       -1.27741217525667        0.00133745322374
C           -3.13739084805306       -0.44570449319618        0.00033842979288
C           -1.83795770092332       -1.06310783042108        0.00279407947715
C           -1.68256019849413       -2.40824158856397        0.00634456048818
C           -0.75298128393370        0.00331489788350        0.00092732824919
C           -1.59132753705245        1.27509907764304       -0.00196858741075
C           -1.15767190327956        2.55768384081251       -0.00410364893396
C           -2.12341422431765        3.60327817449411       -0.00701298851789
C           -1.70468486049789        4.93013743329105       -0.00910356455306
N           -1.34853210947594        6.02886200119156       -0.01089726723490
C           -3.51093048406429        3.28768513326368       -0.00782886761341
C           -3.94338522831200        1.99727936135501       -0.00564114057088
C           -2.99067687292098        0.94265412726951       -0.00252812840053
C            0.07315216211387       -0.07137449571639        1.25409437100175
C           -0.56788579014529       -0.05972371398096        2.48465138615384
C            0.14835328853334       -0.11225895573522        3.66514996260896
C            1.53431190801864       -0.17595491895518        3.62217216466804
C            2.19174718164654       -0.18836242702854        2.41179548105806
C            1.47307100655635       -0.13699690288187        1.21045421944856
N            2.13934451385157       -0.15402965799121        0.00143603195141
C            3.56497203069219       -0.20316054737795        0.00175511041796
C            4.21423697557681       -1.43062570441969       -0.01088652530999
C            5.59734741986217       -1.47149821624350       -0.01058633595786
C            6.32810260548910       -0.29475404644199        0.00236647618398
C            5.67685733877158        0.92764914524568        0.01503765952257
C            4.29394924373054        0.97840463103696        0.01473613893621
C            1.47338188164403       -0.13982346157697       -1.20778719504018
C            2.19244878894148       -0.19074615891534       -2.40891573965385
C            1.53522974186357       -0.18208413469901       -3.61944186009616
C            0.14911835281223       -0.12212367758880       -3.66280374171224
C           -0.56742356781080       -0.06806693375437       -2.48256148927013
C            0.07339888318665       -0.07574881381907       -1.25185920522623
H           -4.99778807015359       -3.28232079386376        0.00572276246686
H           -5.27151300425526       -0.82901618459403       -0.00062619639452
H           -0.70695037715952       -2.87331150667490        0.00837917703302
H           -0.10637776615780        2.80877800459253       -0.00370545727914
H           -4.21658679895775        4.10585182184418       -0.01025138211942
H           -4.99721840198713        1.76411758574940       -0.00626233472857
H           -1.64619449148416       -0.00768652874439        2.50889688517510
H           -0.36751638891388       -0.10270393861927        4.61229709481975
H            2.10441823801929       -0.21638990832772        4.53756367578066
H            3.26926504074376       -0.23886842116410        2.38672328950955
H            3.63313942221731       -2.34069185731395       -0.02092907919263
H            6.10375670080463       -2.42453039061593       -0.02040318726498
H            7.40670545256161       -0.33054372628851        0.00258684902795
H            6.24510371813103        1.84511176946341        0.02509331064133
H            3.77476217152548        1.92509852038586        0.02456614853563
H            3.27013021184348       -0.23740286820515       -2.38359529909579
H            2.10564107796608       -0.22224823938753       -4.53465503494305
H           -0.36660378164821       -0.11580462091384       -4.61005804526554
H           -1.64579821478430       -0.01763847743555       -2.50715820175200

 projected vibrational frequencies (cm⁻¹)
eigval :       -0.00    -0.00    -0.00    -0.00     0.00     0.00
eigval :        0.92    14.33    28.95    34.20    43.90    45.40
eigval :       62.86    69.07    77.94    78.20   108.48   124.67
eigval :      133.64   151.59   156.10   175.18   198.38   220.61
eigval :      239.59   241.97   248.39   259.60   286.51   312.97
eigval :      324.26   371.59   381.99   384.08   388.99   394.35
eigval :      407.07   411.02   419.97   429.68   440.02   448.03
eigval :      473.87   483.13   494.66   515.63   517.41   541.36
eigval :      561.52   572.69   590.43   590.81   592.50   597.75
eigval :      601.19   608.04   644.30   653.62   670.44   671.32
eigval :      676.01   700.03   700.29   721.23   738.74   764.58
eigval :      774.59   776.85   780.76   798.07   827.92   843.81
eigval :      855.32   868.12   868.40   875.17   893.06   898.41
eigval :      900.01   904.20   908.70   913.04   913.66   922.90
eigval :      922.96   929.13   931.84   934.35   938.29   939.70
eigval :      977.90   994.98  1067.68  1077.92  1100.43  1101.73
eigval :     1105.88  1114.09  1126.26  1137.93  1148.77  1154.26
eigval :     1179.34  1180.13  1181.31  1184.44  1187.25  1193.58
eigval :     1197.64  1225.59  1233.47  1237.75  1248.91  1259.03
eigval :     1271.78  1273.81  1296.92  1306.74  1308.93  1311.63
eigval :     1313.55  1325.97  1332.47  1337.55  1368.61  1372.86
eigval :     1396.20  1418.47  1431.19  1432.55  1449.81  1463.52
eigval :     1475.46  1482.11  1483.08  1534.25  1541.61  1549.07
eigval :     1564.79  1575.50  1582.79  1587.90  1593.34  1621.53
eigval :     2247.55  2281.65  3075.11  3076.36  3080.03  3081.45
eigval :     3087.51  3088.46  3089.91  3089.99  3092.29  3092.49
eigval :     3092.52  3094.55  3094.75  3099.80  3102.36  3102.67
eigval :     3106.14  3108.25  3108.36

   temp. (K)  partition function   enthalpy   heat capacity  entropy
                                   cal/mol     cal/K/mol   cal/K/mol   J/K/mol
 298.15  VIB  0.162E+12            15721.065    102.125     96.061
         ROT  0.257E+08              888.752      2.981     36.885
         INT  0.415E+19            16609.817    105.105    132.946
         TR   0.947E+28             1481.254      4.968     44.231
         TOT                       18091.0714   110.0736   177.1769   741.3081

       T/K    H(0)-H(T)+PV         H(T)/Eh          T*S/Eh         G(T)/Eh
   ------------------------------------------------------------------------
    298.15    0.288300E-01    0.433949E+00    0.841825E-01    0.349767E+00
   ------------------------------------------------------------------------

         :::::::::::::::::::::::::::::::::::::::::::::::::::::
         ::                  THERMODYNAMIC                  ::
         :::::::::::::::::::::::::::::::::::::::::::::::::::::
         :: total free energy         -88.649385711721 Eh   ::
         ::.................................................::
         :: total energy              -88.999152553468 Eh   ::
         :: zero point energy           0.405119345297 Eh   ::
         :: G(RRHO) w/o ZPVE           -0.055352503551 Eh   ::
         :: G(RRHO) contrib.            0.349766841746 Eh   ::
         :::::::::::::::::::::::::::::::::::::::::::::::::::::

           -------------------------------------------------
          | TOTAL ENERGY              -88.999152553468 Eh   |
          | TOTAL ENTHALPY            -88.565203250773 Eh   |
          | TOTAL FREE ENERGY         -88.649385711721 Eh   |
          | GRADIENT NORM               0.000100877624 Eh/α |
           -------------------------------------------------

 * finished run on 2025/09/11 at 04:28:05.872
