   * xtb version 6.7.1 (edcfbbe) compiled by 'albert@albert-system' on 2024-07-22

   ID    Z sym.   atoms
    1    7 N      1, 14, 24
    2    6 C      2-13, 15-23, 25-36
    3    1 H      37-55

          program call               : xtb data2507/gas/ACRF/ACRF.xyz --gfn 2 --ohess vtight --parallel 40 --molden --ceasefiles --namespace data2507/gas/ACRF/ACRF_gas_S0_preOpt
          :  Hamiltonian                  GFN2-xTB          :
 * total energy  :   -89.0650463 Eh     change       -0.4342866E-08 Eh
 * total energy  :   -89.0787896 Eh     change       -0.1374330E-01 Eh
 * total energy  :   -89.0824124 Eh     change       -0.3622763E-02 Eh
 * total energy  :   -89.0827184 Eh     change       -0.3060657E-03 Eh
 * total energy  :   -89.0828157 Eh     change       -0.9724189E-04 Eh
 * total energy  :   -89.0828309 Eh     change       -0.1525448E-04 Eh
 * total energy  :   -89.0827953 Eh     change        0.3562901E-04 Eh
 * total energy  :   -89.0828385 Eh     change       -0.4317665E-04 Eh
 * total energy  :   -89.0828452 Eh     change       -0.6762230E-05 Eh
 * total energy  :   -89.0828472 Eh     change       -0.1992511E-05 Eh
 * total energy  :   -89.0828384 Eh     change        0.8809068E-05 Eh
 * total energy  :   -89.0828486 Eh     change       -0.1013647E-04 Eh
 * total energy  :   -89.0828488 Eh     change       -0.2831587E-06 Eh
 * total energy  :   -89.0828490 Eh     change       -0.2110696E-06 Eh
 * total energy  :   -89.0828491 Eh     change       -0.1752626E-07 Eh
   *** GEOMETRY OPTIMIZATION CONVERGED AFTER 15 ITERATIONS ***

 final structure:
================
55
 xtb: 6.7.1 (edcfbbe)
N           -2.21765141039143       -5.93462146917108        0.00009400379183
C           -2.44150698695768       -4.81001724068467        0.00002793607889
C           -2.71680791536996       -3.42404704384279        0.00002990825288
C           -4.04442690029571       -2.98625621914747        0.00002395522298
C           -4.33703765321195       -1.63559686662993        0.00001918437269
C           -3.28918368636461       -0.72613844302700        0.00002117700587
C           -1.95643625121599       -1.17044617154402        0.00001998573171
C           -1.65639393963364       -2.51119653961465        0.00002374379726
C           -0.99480003743689       -0.00000160219774        0.00000626914803
C           -1.95642636062531        1.17045257209989       -0.00001481640219
C           -1.65637071168716        2.51119772379939       -0.00006127075450
C           -2.71677348262336        3.42406711340930       -0.00008348672865
C           -2.44146584893529        4.81003013095496       -0.00014318679908
N           -2.21761766139197        5.93464105610961       -0.00019675283102
C           -4.04439824538178        2.98628119133521       -0.00006148665575
C           -4.33702163679346        1.63562673457261       -0.00001678589568
C           -3.28917724146769        0.72615646368780        0.00000067954679
C           -0.15671717425760        0.00000930045886        1.25809862290732
C           -0.80082219193229        0.00002505961892        2.48643484358166
C           -0.08784222249626        0.00003591184859        3.67036482522883
C            1.29609975374580        0.00002958106421        3.62497950975833
C            1.95343931355972        0.00001197974973        2.41239085176775
C            1.23961705200500        0.00000281221917        1.21030236589985
N            1.91063254780330       -0.00001581119461        0.00001150050333
C            3.33593705748358       -0.00001087726421        0.00001479625076
C            4.02812591769954       -1.20384398250916       -0.00000305256624
C            5.41179382320476       -1.20000604079947       -0.00000111820339
C            6.10344959505251        0.00000157915307        0.00001973891686
C            5.41178311286239        1.20000302911775        0.00003778329808
C            4.02811529899866        1.20382832237807        0.00003589794539
C            1.23962176891562       -0.00002584621972       -1.21028179614585
C            1.95344800692097       -0.00004191007167       -2.41236857502344
C            1.29611206652631       -0.00005053389933       -3.62495900801688
C           -0.08782972252317       -0.00004194924978       -3.67034840065086
C           -0.80081319358168       -0.00002720922469       -2.48642041891547
C           -0.15671204151114       -0.00002011352679       -1.25808249164456
H           -4.83900592698603       -3.71784056355821        0.00002623377727
H           -5.36271478295183       -1.29897526189931        0.00001219856071
H           -0.63445137721133       -2.86067897273180        0.00002363199649
H           -0.63442577130830        2.86067281621732       -0.00007795922960
H           -4.83896724754407        3.71787668581130       -0.00007974814658
H           -5.36270227540814        1.29901512413676        0.00001172168616
H           -1.88157062138297        0.00002834016267        2.51005888431644
H           -0.60636228951643        0.00004649712918        4.61629068770300
H            1.87001180105777        0.00003629660449        4.53937378375838
H            3.03238912986221        0.00000517659394        2.38898631573105
H            3.47791104461489       -2.13319098755977       -0.00002019581552
H            5.95028606230793       -2.13576235426741       -0.00001738696803
H            7.18298347848438        0.00000643345703        0.00002132562071
H            5.95026673253501        2.13576427960360        0.00005653819857
H            3.47789178193701        2.13317022932137        0.00005231200336
H            3.03239768974320       -0.00004766935771       -2.38896013055381
H            1.87002717819485       -0.00006188909067       -4.53935137035620
H           -0.60634690504866       -0.00004405918346       -4.61627561668423
H           -1.88156150007155       -0.00001581314767       -2.51004715737170

          :  Hamiltonian                  GFN2-xTB          :
         :: gradient norm              0.000046015624 Eh/a0 ::
         :: HOMO-LUMO gap              1.652743152604 eV    ::
         :: SCC energy               -90.838294752306 Eh    ::
         :: -> dispersion             -0.082516840402 Eh    ::
         :: repulsion energy           1.755445683289 Eh    ::

    * Orbital Energies and Occupations

         #    Occupation            Energy/Eh            Energy/eV
      -------------------------------------------------------------
         1        2.0000           -0.6848455             -18.6356
       ...           ...                  ...                  ...
        71        2.0000           -0.4385739             -11.9342
        72        2.0000           -0.4350175             -11.8374
        73        2.0000           -0.4259134             -11.5897
        74        2.0000           -0.4242003             -11.5431
        75        2.0000           -0.4239147             -11.5353
        76        2.0000           -0.4232452             -11.5171
        77        2.0000           -0.4226884             -11.5019
        78        2.0000           -0.4157635             -11.3135
        79        2.0000           -0.4153163             -11.3013
        80        2.0000           -0.4137919             -11.2599
        81        2.0000           -0.4044970             -11.0069
        82        2.0000           -0.4025126             -10.9529
        83        2.0000           -0.3588055              -9.7636 (HOMO)
        84                         -0.2980684              -8.1109 (LUMO)
        85                         -0.2590976              -7.0504
        86                         -0.2505446              -6.8177
        87                         -0.2484759              -6.7614
        88                         -0.2454337              -6.6786
        89                         -0.2441065              -6.6425
        90                         -0.2342212              -6.3735
        91                         -0.2335872              -6.3562
        92                         -0.2299507              -6.2573
        93                         -0.2094661              -5.6999
        94                         -0.2084156              -5.6713
       ...                                ...                  ...
       163                          1.1677779              31.7769
      -------------------------------------------------------------
                  HL-Gap            0.0607371 Eh            1.6527 eV

     #   Z          covCN         q      C6AA      α(0)
     1   7 N        0.911    -0.233    26.094     7.388
     2   6 C        1.913     0.112    28.328     8.596
     3   6 C        2.977     0.019    27.588     8.616
     4   6 C        2.929    -0.023    28.573     8.766
     5   6 C        2.913    -0.030    28.749     8.792
     6   6 C        3.034     0.008    27.806     8.649
     7   6 C        3.059     0.009    27.764     8.641
     8   6 C        2.921    -0.023    28.574     8.766
     9   6 C        3.949     0.015    20.259     6.396
    10   6 C        3.059     0.009    27.764     8.641
    11   6 C        2.921    -0.023    28.574     8.766
    12   6 C        2.977     0.019    27.588     8.616
    13   6 C        1.913     0.112    28.328     8.596
    14   7 N        0.911    -0.233    26.094     7.388
    15   6 C        2.929    -0.023    28.573     8.766
    16   6 C        2.913    -0.030    28.749     8.792
    17   6 C        3.034     0.008    27.806     8.649
    18   6 C        2.983    -0.013    28.322     8.730
    19   6 C        2.926    -0.035    28.879     8.813
    20   6 C        2.917    -0.042    29.040     8.837
    21   6 C        2.920    -0.030    28.746     8.792
    22   6 C        2.924    -0.056    29.398     8.892
    23   6 C        2.926     0.061    26.641     8.464
    24   7 N        2.754    -0.070    22.595     7.060
    25   6 C        2.929     0.068    26.480     8.439
    26   6 C        2.922    -0.037    28.914     8.818
    27   6 C        2.920    -0.027    28.670     8.781
    28   6 C        2.920    -0.029    28.723     8.789
    29   6 C        2.920    -0.027    28.670     8.781
    30   6 C        2.922    -0.037    28.914     8.818
    31   6 C        2.926     0.061    26.641     8.464
    32   6 C        2.924    -0.056    29.398     8.892
    33   6 C        2.920    -0.030    28.746     8.792
    34   6 C        2.917    -0.042    29.040     8.837
    35   6 C        2.926    -0.035    28.879     8.813
    36   6 C        2.983    -0.013    28.322     8.730
    37   1 H        0.926     0.044     2.394     2.420
    38   1 H        0.926     0.041     2.436     2.441
    39   1 H        0.926     0.039     2.459     2.452
    40   1 H        0.926     0.039     2.459     2.452
    41   1 H        0.926     0.044     2.394     2.420
    42   1 H        0.926     0.041     2.436     2.441
    43   1 H        0.926     0.024     2.671     2.556
    44   1 H        0.926     0.032     2.562     2.503
    45   1 H        0.926     0.034     2.531     2.488
    46   1 H        0.926     0.030     2.587     2.515
    47   1 H        0.926     0.042     2.426     2.436
    48   1 H        0.926     0.041     2.433     2.439
    49   1 H        0.926     0.040     2.445     2.445
    50   1 H        0.926     0.041     2.433     2.439
    51   1 H        0.926     0.042     2.426     2.436
    52   1 H        0.926     0.030     2.587     2.515
    53   1 H        0.926     0.034     2.531     2.488
    54   1 H        0.926     0.032     2.562     2.503
    55   1 H        0.926     0.024     2.671     2.556

molecular dipole:
                 x           y           z       tot (Debye)
 q only:        0.726      -0.000       0.000
   full:        0.516      -0.000       0.000       1.311

 projected vibrational frequencies (cm⁻¹)
eigval :       -0.00    -0.00     0.00     0.00     0.00     0.00
eigval :        4.71    10.18    34.13    35.01    42.40    44.61
eigval :       59.29    68.58    77.89    84.73   110.99   124.77
eigval :      157.08   157.80   160.13   171.86   198.25   233.71
eigval :      245.01   250.18   250.78   261.12   298.44   316.41
eigval :      370.55   373.15   380.08   387.51   399.14   412.81
eigval :      421.71   432.50   435.76   442.55   457.13   476.11
eigval :      483.34   488.25   504.76   511.18   541.14   556.53
eigval :      574.05   592.09   592.34   594.48   608.41   608.86
eigval :      609.51   630.47   646.08   670.86   675.41   675.46
eigval :      689.76   705.23   732.15   732.86   749.20   765.13
eigval :      778.33   784.84   820.73   835.32   857.09   866.24
eigval :      866.25   875.67   876.10   877.48   896.11   905.92
eigval :      910.39   910.42   910.91   911.36   913.76   921.87
eigval :      922.14   929.43   934.24   949.65   958.24   978.23
eigval :      997.30  1008.12  1078.25  1088.33  1107.39  1108.66
eigval :     1113.75  1126.51  1140.35  1144.78  1158.05  1158.29
eigval :     1180.41  1182.93  1184.34  1185.20  1191.33  1207.61
eigval :     1220.34  1233.75  1234.52  1251.85  1257.10  1267.51
eigval :     1272.90  1272.91  1292.41  1309.71  1321.70  1324.06
eigval :     1326.49  1336.00  1346.67  1358.47  1412.35  1427.77
eigval :     1432.77  1436.81  1437.77  1440.23  1461.17  1470.11
eigval :     1483.71  1496.01  1561.13  1573.40  1574.84  1584.05
eigval :     1586.09  1590.38  1591.37  1594.89  1596.02  1604.37
eigval :     2371.67  2373.46  3074.02  3074.35  3082.13  3083.67
eigval :     3084.95  3084.99  3085.00  3086.96  3090.19  3090.44
eigval :     3090.85  3094.94  3095.93  3097.48  3097.51  3097.75
eigval :     3101.25  3103.58  3104.12

   temp. (K)  partition function   enthalpy   heat capacity  entropy
                                   cal/mol     cal/K/mol   cal/K/mol   J/K/mol
 298.15  VIB  0.530E+13            15971.874    101.388    100.050
         ROT  0.128E+08              888.752      2.981     35.506
         INT  0.679E+20            16860.626    104.369    135.556
         TR   0.947E+28             1481.254      4.968     44.231
         TOT                       18341.8804   109.3369   179.7870   752.2288

       T/K    H(0)-H(T)+PV         H(T)/Eh          T*S/Eh         G(T)/Eh
   ------------------------------------------------------------------------
    298.15    0.292296E-01    0.438215E+00    0.854226E-01    0.352792E+00
   ------------------------------------------------------------------------

         :::::::::::::::::::::::::::::::::::::::::::::::::::::
         ::                  THERMODYNAMIC                  ::
         :::::::::::::::::::::::::::::::::::::::::::::::::::::
         :: total free energy         -88.730056768059 Eh   ::
         ::.................................................::
         :: total energy              -89.082849069024 Eh   ::
         :: zero point energy           0.408985260889 Eh   ::
         :: G(RRHO) w/o ZPVE           -0.056192959924 Eh   ::
         :: G(RRHO) contrib.            0.352792300965 Eh   ::
         :::::::::::::::::::::::::::::::::::::::::::::::::::::

           -------------------------------------------------
          | TOTAL ENERGY              -89.082849069024 Eh   |
          | TOTAL ENTHALPY            -88.644634161147 Eh   |
          | TOTAL FREE ENERGY         -88.730056768059 Eh   |
          | GRADIENT NORM               0.000046139409 Eh/α |
          | HOMO-LUMO GAP               1.652741344300 eV   |
           -------------------------------------------------

 * finished run on 2025/09/11 at 04:25:35.595
