   * xtb version 6.7.1 (edcfbbe) compiled by 'albert@albert-system' on 2024-07-22

   ID    Z sym.   atoms
    1    7 N      1, 14, 24
    2    6 C      2-13, 15-23, 25-36
    3    1 H      37-55

          program call               : xtb data2507/gas/ACRF/ACRF_gas_S0_crest.xyz --gfn 2 --ohess vtight --parallel 40 --molden --ceasefiles --namespace data2507/gas/ACRF/ACRF_gas_S0_finalOpt
          :  Hamiltonian                  GFN2-xTB          :
 * total energy  :   -89.0828374 Eh     change       -0.1453273E-08 Eh
 * total energy  :   -89.0828370 Eh     change        0.4444924E-06 Eh
 * total energy  :   -89.0828374 Eh     change       -0.4320766E-06 Eh
 * total energy  :   -89.0828367 Eh     change        0.7130155E-06 Eh
 * total energy  :   -89.0828381 Eh     change       -0.1413754E-05 Eh
 * total energy  :   -89.0828382 Eh     change       -0.1381721E-06 Eh
 * total energy  :   -89.0828384 Eh     change       -0.1863805E-06 Eh
 * total energy  :   -89.0828387 Eh     change       -0.2413238E-06 Eh
 * total energy  :   -89.0828389 Eh     change       -0.2653351E-06 Eh
 * total energy  :   -89.0828392 Eh     change       -0.3139191E-06 Eh
 * total energy  :   -89.0828395 Eh     change       -0.2555770E-06 Eh
 * total energy  :   -89.0828397 Eh     change       -0.1653087E-06 Eh
 * total energy  :   -89.0828397 Eh     change       -0.6514867E-07 Eh
 * total energy  :   -89.0828398 Eh     change       -0.8498174E-07 Eh
   *** GEOMETRY OPTIMIZATION CONVERGED AFTER 14 ITERATIONS ***

 final structure:
================
55
 xtb: 6.7.1 (edcfbbe)
N           -2.60126024081392       -5.76583834962098        0.01647149650398
C           -2.70622650917285       -4.62402405239896        0.01262334986641
C           -2.83482833394806       -3.21683360838936        0.00795944662863
C           -4.10934799448464       -2.64254432423273        0.00443929802647
C           -4.25894935028872       -1.26865987553378        0.00042780998707
C           -3.12163026070834       -0.47392195636184       -0.00012016406282
C           -1.84245515820342       -1.05517335969677        0.00297053793496
C           -1.68458411262112       -2.42003447466169        0.00714701701385
C           -0.76405812114388        0.00779207298703        0.00115452513309
C           -1.59822538313185        1.27294276641315       -0.00187638443475
C           -1.15937779709689        2.57483000395123       -0.00387924249996
C           -2.11834000078302        3.59367626842341       -0.00717419995744
C           -1.69897195178338        4.94302623997083       -0.00931075647576
N           -1.35740044536359        6.03763479758927       -0.01136846974893
C           -3.48447348994242        3.29717901377115       -0.00845928787089
C           -3.91681923066712        1.98457034459961       -0.00641656039450
C           -2.96993096401945        0.97041142282372       -0.00308766017642
C            0.07034100031671       -0.07010919116544        1.25925430102593
C           -0.57417272738012       -0.06004628254155        2.48731631743138
C            0.13690644588417       -0.11513353016021        3.67113739482612
C            1.51933670510679       -0.17978449167624        3.62598403200191
C            2.17707464758246       -0.19072586785013        2.41364977029409
C            1.46513875166704       -0.13634338185734        1.21170020831502
N            2.13632648754981       -0.14981768187663        0.00154315134237
C            3.56070402065004       -0.20085626767447        0.00179694287187
C            4.21173403432604       -1.42752123713873       -0.01146883708393
C            5.59468616132906       -1.47047308617436       -0.01143511048529
C            6.32662443797918       -0.29458454133273        0.00202378640730
C            5.67604296047522        0.92802509028852        0.01539033877891
C            4.29323877709635        0.97863609787431        0.01522428678244
C            1.46536260234090       -0.13916261862666       -1.20876453348250
C            2.17763083318807       -0.19286004883529       -2.41055360700653
C            1.52006740754978       -0.18529809735307       -3.62300436520166
C            0.13748392380816       -0.12429493916725       -3.66845405657256
C           -0.57384088702236       -0.06797151325491       -2.48484152055497
C            0.07050339801950       -0.07443596663072       -1.25667015834453
H           -4.97616454147957       -3.28690919296652        0.00519116469969
H           -5.24369948377486       -0.82640994724987       -0.00201803128464
H           -0.70488266872458       -2.87461122152356        0.00968029497720
H           -0.10646867299676        2.81546552618208       -0.00299146225410
H           -4.19810491221590        4.10791395701602       -0.01101861818769
H           -4.97210460831224        1.75720472431909       -0.00744864448096
H           -1.65358860492979       -0.00655376577624        2.51093181171837
H           -0.38188531979081       -0.10622336966650        4.61687298748796
H            2.09174226936660       -0.22223194743129        4.54034012620941
H            3.25481781141840       -0.24176569962413        2.39034621646587
H            3.63018418638108       -2.33755380736354       -0.02212303947110
H            6.10127079577237       -2.42383670616990       -0.02197749041811
H            7.40554114070304       -0.33118844815664        0.00213652787296
H            6.24582704741394        1.84498650601391        0.02611815746562
H            3.77495816297114        1.92608162123301        0.02584407398268
H            3.25553706179296       -0.24009944116382       -2.38706480918879
H            2.09274232240976       -0.22729495219978       -4.53721150123675
H           -0.38120975132514       -0.11826870472348       -4.61426493935242
H           -1.65331725667372       -0.01592016622903       -2.50878697772366

          :  Hamiltonian                  GFN2-xTB          :
         :: gradient norm              0.000095573544 Eh/a0 ::
         :: HOMO-LUMO gap              1.652434811163 eV    ::
         :: SCC energy               -90.838293671412 Eh    ::
         :: -> dispersion             -0.082526449309 Eh    ::
         :: repulsion energy           1.755453865968 Eh    ::

    * Orbital Energies and Occupations

         #    Occupation            Energy/Eh            Energy/eV
      -------------------------------------------------------------
         1        2.0000           -0.6848522             -18.6358
       ...           ...                  ...                  ...
        71        2.0000           -0.4386060             -11.9351
        72        2.0000           -0.4349365             -11.8352
        73        2.0000           -0.4258953             -11.5892
        74        2.0000           -0.4242413             -11.5442
        75        2.0000           -0.4239076             -11.5351
        76        2.0000           -0.4232323             -11.5167
        77        2.0000           -0.4226813             -11.5017
        78        2.0000           -0.4157421             -11.3129
        79        2.0000           -0.4153725             -11.3029
        80        2.0000           -0.4137118             -11.2577
        81        2.0000           -0.4045085             -11.0072
        82        2.0000           -0.4025251             -10.9533
        83        2.0000           -0.3588077              -9.7637 (HOMO)
        84                         -0.2980819              -8.1112 (LUMO)
        85                         -0.2591045              -7.0506
        86                         -0.2505903              -6.8189
        87                         -0.2484545              -6.7608
        88                         -0.2454209              -6.6782
        89                         -0.2440891              -6.6420
        90                         -0.2342311              -6.3738
        91                         -0.2335709              -6.3558
        92                         -0.2299229              -6.2565
        93                         -0.2094788              -5.7002
        94                         -0.2084125              -5.6712
       ...                                ...                  ...
       163                          1.1678886              31.7799
      -------------------------------------------------------------
                  HL-Gap            0.0607258 Eh            1.6524 eV

     #   Z          covCN         q      C6AA      α(0)
     1   7 N        0.911    -0.232    26.091     7.388
     2   6 C        1.913     0.112    28.328     8.596
     3   6 C        2.977     0.019    27.588     8.616
     4   6 C        2.929    -0.023    28.573     8.766
     5   6 C        2.913    -0.030    28.751     8.793
     6   6 C        3.034     0.008    27.806     8.649
     7   6 C        3.059     0.009    27.762     8.641
     8   6 C        2.921    -0.023    28.571     8.766
     9   6 C        3.949     0.015    20.259     6.396
    10   6 C        3.060     0.009    27.765     8.641
    11   6 C        2.921    -0.023    28.577     8.766
    12   6 C        2.977     0.019    27.590     8.616
    13   6 C        1.913     0.112    28.328     8.596
    14   7 N        0.911    -0.233    26.096     7.388
    15   6 C        2.929    -0.023    28.573     8.766
    16   6 C        2.913    -0.030    28.747     8.792
    17   6 C        3.034     0.008    27.805     8.649
    18   6 C        2.983    -0.013    28.322     8.730
    19   6 C        2.926    -0.035    28.879     8.813
    20   6 C        2.917    -0.042    29.040     8.837
    21   6 C        2.920    -0.030    28.746     8.792
    22   6 C        2.924    -0.056    29.397     8.892
    23   6 C        2.926     0.061    26.641     8.465
    24   7 N        2.754    -0.070    22.596     7.060
    25   6 C        2.929     0.068    26.480     8.439
    26   6 C        2.921    -0.037    28.915     8.818
    27   6 C        2.920    -0.027    28.672     8.781
    28   6 C        2.920    -0.029    28.723     8.789
    29   6 C        2.920    -0.027    28.668     8.780
    30   6 C        2.922    -0.037    28.913     8.818
    31   6 C        2.926     0.061    26.641     8.464
    32   6 C        2.924    -0.056    29.398     8.892
    33   6 C        2.920    -0.030    28.746     8.792
    34   6 C        2.917    -0.042    29.040     8.837
    35   6 C        2.926    -0.035    28.880     8.813
    36   6 C        2.983    -0.013    28.322     8.730
    37   1 H        0.926     0.044     2.395     2.420
    38   1 H        0.926     0.041     2.438     2.441
    39   1 H        0.926     0.039     2.455     2.450
    40   1 H        0.926     0.039     2.463     2.454
    41   1 H        0.926     0.044     2.394     2.419
    42   1 H        0.926     0.041     2.435     2.440
    43   1 H        0.926     0.024     2.671     2.556
    44   1 H        0.926     0.032     2.562     2.503
    45   1 H        0.926     0.034     2.531     2.488
    46   1 H        0.926     0.030     2.587     2.515
    47   1 H        0.926     0.042     2.425     2.435
    48   1 H        0.926     0.041     2.434     2.440
    49   1 H        0.926     0.040     2.445     2.445
    50   1 H        0.926     0.041     2.431     2.438
    51   1 H        0.926     0.042     2.427     2.436
    52   1 H        0.926     0.030     2.587     2.515
    53   1 H        0.926     0.034     2.531     2.488
    54   1 H        0.926     0.032     2.562     2.503
    55   1 H        0.926     0.024     2.671     2.556

molecular dipole:
                 x           y           z       tot (Debye)
 q only:        0.725      -0.015      -0.002
   full:        0.516       0.008      -0.002       1.311

 projected vibrational frequencies (cm⁻¹)
eigval :       -0.00    -0.00    -0.00     0.00     0.00     0.00
eigval :        5.31     9.89    32.50    34.00    42.71    43.76
eigval :       58.94    68.56    77.93    84.65   111.07   124.62
eigval :      156.35   157.79   158.04   171.95   198.30   233.72
eigval :      244.72   249.24   251.67   261.33   298.36   316.44
eigval :      370.48   373.16   379.84   387.57   399.18   412.51
eigval :      421.52   432.92   435.85   442.54   457.11   476.40
eigval :      483.26   488.25   504.89   511.34   541.07   556.51
eigval :      574.01   592.04   592.39   594.45   607.83   608.81
eigval :      610.13   630.42   646.07   670.84   675.44   675.45
eigval :      689.79   705.26   732.14   732.81   749.23   765.11
eigval :      778.36   784.85   820.71   835.37   857.07   866.24
eigval :      866.26   875.72   876.22   877.73   896.11   905.91
eigval :      910.37   910.38   910.91   911.37   913.79   921.92
eigval :      922.19   929.42   934.24   949.61   958.24   978.25
eigval :      997.29  1008.15  1078.24  1088.30  1107.38  1108.66
eigval :     1113.76  1126.48  1140.13  1144.94  1157.80  1158.59
eigval :     1180.41  1182.94  1184.34  1185.19  1191.32  1207.63
eigval :     1220.32  1233.62  1234.60  1251.87  1257.14  1267.49
eigval :     1272.82  1272.96  1292.40  1309.69  1321.68  1324.04
eigval :     1326.48  1335.97  1346.58  1358.51  1412.35  1427.76
eigval :     1432.77  1436.74  1437.85  1440.24  1461.16  1470.10
eigval :     1483.59  1495.97  1561.14  1573.38  1574.83  1584.04
eigval :     1586.04  1590.34  1591.33  1594.87  1596.01  1604.34
eigval :     2371.81  2373.62  3074.11  3074.44  3082.11  3083.67
eigval :     3084.94  3084.98  3085.01  3086.97  3090.13  3090.41
eigval :     3091.02  3094.93  3095.94  3097.48  3097.54  3097.77
eigval :     3101.23  3103.59  3104.13

   temp. (K)  partition function   enthalpy   heat capacity  entropy
                                   cal/mol     cal/K/mol   cal/K/mol   J/K/mol
 298.15  VIB  0.536E+13            15979.349    101.329    100.018
         ROT  0.256E+08              888.752      2.981     36.882
         INT  0.137E+21            16868.101    104.310    136.900
         TR   0.947E+28             1481.254      4.968     44.231
         TOT                       18349.3551   109.2781   181.1311   757.8524

       T/K    H(0)-H(T)+PV         H(T)/Eh          T*S/Eh         G(T)/Eh
   ------------------------------------------------------------------------
    298.15    0.292416E-01    0.438214E+00    0.860612E-01    0.352153E+00
   ------------------------------------------------------------------------

         :::::::::::::::::::::::::::::::::::::::::::::::::::::
         ::                  THERMODYNAMIC                  ::
         :::::::::::::::::::::::::::::::::::::::::::::::::::::
         :: total free energy         -88.730687220647 Eh   ::
         ::.................................................::
         :: total energy              -89.082839805446 Eh   ::
         :: zero point energy           0.408972246509 Eh   ::
         :: G(RRHO) w/o ZPVE           -0.056819661710 Eh   ::
         :: G(RRHO) contrib.            0.352152584799 Eh   ::
         :::::::::::::::::::::::::::::::::::::::::::::::::::::

           -------------------------------------------------
          | TOTAL ENERGY              -89.082839805446 Eh   |
          | TOTAL ENTHALPY            -88.644626000326 Eh   |
          | TOTAL FREE ENERGY         -88.730687220647 Eh   |
          | GRADIENT NORM               0.000095603085 Eh/α |
          | HOMO-LUMO GAP               1.652434445846 eV   |
           -------------------------------------------------

 * finished run on 2025/09/11 at 04:28:02.176
