   * xtb version 6.7.1 (edcfbbe) compiled by 'albert@albert-system' on 2024-07-22

   ID    Z sym.   atoms
    1    7 N      1, 14, 24
    2    6 C      2-13, 15-23, 25-36
    3    1 H      37-55

          program call               : xtb data2507/gas/ACRF/ACRF_gas_T1_crest.xyz --gfn 2 --spinpol --tblite --uhf 2 --ohess vtight --parallel 40 --molden --ceasefiles --namespace data2507/gas/ACRF/ACRF_gas_T1_finalOpt
 * total energy  :   -88.9991385 Eh     change       -0.3373117E-08 Eh
 * total energy  :   -88.9991442 Eh     change       -0.5679692E-05 Eh
 * total energy  :   -88.9991383 Eh     change        0.5911077E-05 Eh
 * total energy  :   -88.9991477 Eh     change       -0.9388967E-05 Eh
 * total energy  :   -88.9991463 Eh     change        0.1392339E-05 Eh
 * total energy  :   -88.9991431 Eh     change        0.3203266E-05 Eh
 * total energy  :   -88.9991499 Eh     change       -0.6794155E-05 Eh
 * total energy  :   -88.9991510 Eh     change       -0.1145917E-05 Eh
 * total energy  :   -88.9991517 Eh     change       -0.6773903E-06 Eh
 * total energy  :   -88.9991526 Eh     change       -0.9307237E-06 Eh
 * total energy  :   -88.9991535 Eh     change       -0.8285625E-06 Eh
 * total energy  :   -88.9991545 Eh     change       -0.1078848E-05 Eh
 * total energy  :   -88.9991552 Eh     change       -0.6679212E-06 Eh
 * total energy  :   -88.9991555 Eh     change       -0.3096604E-06 Eh
 * total energy  :   -88.9991558 Eh     change       -0.2455577E-06 Eh
 * total energy  :   -88.9991560 Eh     change       -0.2412594E-06 Eh
 * total energy  :   -88.9991562 Eh     change       -0.2084993E-06 Eh
 * total energy  :   -88.9991563 Eh     change       -0.7242460E-07 Eh
   *** GEOMETRY OPTIMIZATION CONVERGED AFTER 18 ITERATIONS ***

 final structure:
================
55
 xtb: 6.7.1 (edcfbbe)
N           -3.74601394761495       -5.27162539378889       -0.04017696491108
C           -3.62383771558282       -4.12331960100092       -0.03148996401049
C           -3.47015619827858       -2.74022516106136       -0.02106376428397
C           -4.61303562458683       -1.89287000469743       -0.01566720416984
C           -4.48929540354430       -0.53730633534868       -0.00562734509167
C           -3.19247984490620        0.04366064817098       -0.00060939206951
C           -2.04428840849193       -0.82373514039105       -0.00633369544466
C           -2.16493611779576       -2.17271974759026       -0.01613189263670
C           -0.76762328336366       -0.00053159248207       -0.00072055523367
C           -1.33087825416474        1.41660916695729        0.00972197448844
C           -0.64608726135577        2.58441792545652        0.01861819548009
C           -1.37952261661452        3.80398374084096        0.02767984028968
C           -0.69864519277465        5.01721640336532        0.03730523123521
N           -0.12256969087400        6.01831457992956        0.04549497785766
C           -2.80229794491934        3.77577624606781        0.02698121301808
C           -3.48697813026091        2.59971089071841        0.01795201738653
C           -2.76808951928971        1.37370181712143        0.00910621419884
C            0.03448334937787       -0.23045778030664        1.24921061326685
C           -0.60840890073098       -0.22078621471067        2.47856799240563
C            0.09732828651737       -0.38045474313898        3.65596705782138
C            1.47461859566618       -0.54685167918553        3.61131767680633
C            2.13383280564410       -0.55954948582566        2.40178879275506
C            1.42524329233716       -0.40488355908631        1.20355085955039
N            2.09066654536178       -0.43174071587278       -0.00588636516474
C            3.51153600726868       -0.55703470764447       -0.00745525456271
C            4.09766990033805       -1.81578329831830       -0.04057951022654
C            5.47678060184156       -1.92689540774013       -0.04256411569966
C            6.26645687330334       -0.78905350485275       -0.01146818746988
C            5.67821906693869        0.46436317478467        0.02188579680529
C            4.29955531714267        0.58534017101981        0.02398578626165
C            1.42385089365876       -0.38591999153498       -1.21399943684088
C            2.13126320234467       -0.51745546019687       -2.41569385618703
C            1.47022259987474       -0.48720756720399       -3.62391109974418
C            0.09233815553207       -0.32469321382041       -3.66390897171087
C           -0.61189626016254       -0.18463308650311       -2.48313166048492
C            0.03282607598676       -0.21224427038636       -1.25500011415728
H           -5.58847589562640       -2.35747713876231       -0.01983347549123
H           -5.36003151368698        0.10041786849532       -0.00162286558053
H           -1.30346992864599       -2.82526754452336       -0.02040757958983
H            0.43433794396870        2.61764254741728        0.01902657858962
H           -3.32767821939534        4.71984416250696        0.03388741641501
H           -4.56619356716227        2.58495927045614        0.01748687514733
H           -1.67899349992968       -0.08247713930234        2.50510978853678
H           -0.41990268816191       -0.37139400099186        4.60238963681869
H            2.03656500961846       -0.66777012280135        4.52465457194412
H            3.20441383665624       -0.69136497625460        2.37508219804527
H            3.47076526187701       -2.69473153219550       -0.06470326344262
H            5.93414791240853       -2.90415297296266       -0.06846940728974
H            7.34183359231935       -0.87972544477687       -0.01325290992536
H            6.29217225586263        1.35156362461067        0.04618306784110
H            3.82988973350152        1.55721648574238        0.04984130731628
H            3.20248304754795       -0.64454698385805       -2.39293065423153
H            2.03129899789307       -0.59093387802084       -4.53989066877037
H           -0.42638673667747       -0.30234712411804       -4.60928869368629
H           -1.68273023728968       -0.04764440540516       -2.50600521667309

 projected vibrational frequencies (cm⁻¹)
eigval :       -0.00    -0.00    -0.00     0.00     0.00     0.00
eigval :        3.02    14.39    28.95    33.95    43.70    45.73
eigval :       62.65    69.11    77.91    78.21   108.39   123.62
eigval :      134.34   152.28   156.69   174.85   199.30   219.83
eigval :      240.08   240.40   248.71   261.65   286.09   312.70
eigval :      324.89   371.65   380.11   384.40   389.51   394.67
eigval :      406.04   410.00   421.27   429.91   442.58   447.48
eigval :      473.93   482.97   494.22   515.88   517.80   541.32
eigval :      561.05   572.68   590.50   590.66   592.40   597.28
eigval :      601.21   608.59   644.13   653.08   670.44   671.70
eigval :      676.63   699.46   700.35   721.00   738.94   764.69
eigval :      774.22   776.83   781.16   798.26   827.92   843.49
eigval :      855.59   868.16   868.46   875.35   892.87   898.32
eigval :      900.39   904.31   908.61   912.84   913.44   922.93
eigval :      923.01   929.32   931.69   934.49   938.79   939.46
eigval :      978.08   994.94  1067.55  1077.93  1100.44  1101.67
eigval :     1104.54  1114.31  1126.01  1138.09  1148.22  1156.01
eigval :     1179.19  1179.40  1181.33  1184.45  1187.32  1193.81
eigval :     1198.25  1226.20  1232.73  1237.81  1249.34  1257.62
eigval :     1271.79  1273.30  1296.74  1306.93  1308.97  1311.13
eigval :     1313.51  1326.15  1331.71  1337.34  1368.60  1372.83
eigval :     1396.31  1418.41  1430.82  1432.90  1449.25  1463.51
eigval :     1474.78  1482.01  1483.05  1533.82  1541.69  1549.21
eigval :     1564.76  1575.13  1582.83  1587.94  1593.41  1620.93
eigval :     2248.10  2282.07  3073.77  3077.57  3080.14  3081.63
eigval :     3087.02  3088.65  3089.99  3090.09  3092.22  3092.62
eigval :     3092.71  3094.51  3094.89  3099.58  3102.39  3102.75
eigval :     3106.25  3108.24  3108.32

   temp. (K)  partition function   enthalpy   heat capacity  entropy
                                   cal/mol     cal/K/mol   cal/K/mol   J/K/mol
 298.15  VIB  0.112E+14            16307.869    103.112    102.379
         ROT  0.255E+08              888.752      2.981     36.872
         INT  0.285E+21            17196.622    106.093    139.251
         TR   0.947E+28             1481.254      4.968     44.231
         TOT                       18677.8754   111.0608   183.4821   767.6890

       T/K    H(0)-H(T)+PV         H(T)/Eh          T*S/Eh         G(T)/Eh
   ------------------------------------------------------------------------
    298.15    0.297651E-01    0.434888E+00    0.871783E-01    0.347710E+00
   ------------------------------------------------------------------------

         :::::::::::::::::::::::::::::::::::::::::::::::::::::
         ::                  THERMODYNAMIC                  ::
         :::::::::::::::::::::::::::::::::::::::::::::::::::::
         :: total free energy         -88.651446646857 Eh   ::
         ::.................................................::
         :: total energy              -88.999156283830 Eh   ::
         :: zero point energy           0.405122801764 Eh   ::
         :: G(RRHO) w/o ZPVE           -0.057413164791 Eh   ::
         :: G(RRHO) contrib.            0.347709636973 Eh   ::
         :::::::::::::::::::::::::::::::::::::::::::::::::::::

           -------------------------------------------------
          | TOTAL ENERGY              -88.999156283830 Eh   |
          | TOTAL ENTHALPY            -88.564268392926 Eh   |
          | TOTAL FREE ENERGY         -88.651446646857 Eh   |
          | GRADIENT NORM               0.000069417914 Eh/α |
           -------------------------------------------------

 * finished run on 2025/09/11 at 04:31:13.011
