   * xtb version 6.7.1 (edcfbbe) compiled by 'albert@albert-system' on 2024-07-22

   ID    Z sym.   atoms
    1    6 C      1-18, 20-28
    2    8 O      19
    3    1 H      29-74

          program call               : xtb data2507/toluene/DCE/DCE_toluene_S0_crest.xyz --gfn 2 --gbsa toluene --ohess vtight --parallel 40 --molden --ceasefiles --namespace data2507/toluene/DCE/DCE_toluene_S0_finalOpt
      * Solvation model:               GBSA
        Solvent                        toluene
        Solvent mass                       9.2140E+01 g/mol
          :  Hamiltonian                  GFN2-xTB          :
 * total energy  :   -85.4586286 Eh     change       -0.9534062E-10 Eh
 * total energy  :   -85.4587246 Eh     change       -0.9596325E-04 Eh
 * total energy  :   -85.4587500 Eh     change       -0.2543010E-04 Eh
 * total energy  :   -85.4587585 Eh     change       -0.8473825E-05 Eh
 * total energy  :   -85.4587621 Eh     change       -0.3566666E-05 Eh
 * total energy  :   -85.4587632 Eh     change       -0.1133992E-05 Eh
 * total energy  :   -85.4587643 Eh     change       -0.1109830E-05 Eh
 * total energy  :   -85.4587654 Eh     change       -0.1102329E-05 Eh
 * total energy  :   -85.4587664 Eh     change       -0.9965432E-06 Eh
 * total energy  :   -85.4587674 Eh     change       -0.9968559E-06 Eh
 * total energy  :   -85.4587719 Eh     change       -0.9922257E-06 Eh
 * total energy  :   -85.4587728 Eh     change       -0.8137759E-06 Eh
 * total energy  :   -85.4587734 Eh     change       -0.6305295E-06 Eh
 * total energy  :   -85.4587738 Eh     change       -0.4469959E-06 Eh
 * total energy  :   -85.4587741 Eh     change       -0.3095032E-06 Eh
 * total energy  :   -85.4587744 Eh     change       -0.2534274E-06 Eh
 * total energy  :   -85.4587747 Eh     change       -0.2910304E-06 Eh
 * total energy  :   -85.4587750 Eh     change       -0.3194687E-06 Eh
 * total energy  :   -85.4587750 Eh     change       -0.4861519E-08 Eh
   *** GEOMETRY OPTIMIZATION CONVERGED AFTER 22 ITERATIONS ***

 final structure:
================
74
 xtb: 6.7.1 (edcfbbe)
C            9.38324184222122       -0.94124442042534       -0.53663396479657
C            8.27431809155643       -0.17698675248496        0.18696480103552
C            8.69095019723643        1.27973114564663        0.38240212344569
C            6.96136631012347       -0.29645844640889       -0.59620936129185
C            5.74572963507999        0.25867811072569        0.14454826924411
C            4.44817831039805       -0.03202942042727       -0.61008092431535
C            3.20331444826191        0.55364790455626        0.08200538051589
C            3.12623237462922        2.05059244398607       -0.21950939663140
C            1.94090652609300       -0.20153277538970       -0.37162646219709
C            2.01158597280982       -1.71067478244234       -0.01770328105686
C            0.58099366790986       -2.17119711058965        0.31289373195563
C           -0.27968759022934       -0.99914225850760       -0.14663861146164
C           -1.72384082643915       -0.94057063985477        0.34091939986662
C           -2.47813616100660       -2.19133135865519       -0.10875665333646
C           -3.95705437164474       -2.02851657096987        0.00683139241058
C           -4.58731887523139       -0.87335160513727        0.16510586812701
C           -6.08674233065133       -0.84141586696216        0.29408784049602
C           -6.71472644017223        0.13581592341217       -0.70469286322405
O           -8.12688313283569        0.15486014815958       -0.60651081687012
C           -6.09959624739334        1.51780433199707       -0.49681218506113
C           -4.58922934962392        1.45670872892185       -0.69628308420638
C           -3.86871395621724        0.46121825461072        0.23945611490833
C           -3.92701259974729        0.97366420036079        1.68767012912020
C           -2.40253083888517        0.30363732154870       -0.25417163408292
C           -1.55965560775946        1.56381748353485       -0.01514590876401
C           -0.10597084478741        1.42439271365552       -0.47688283032162
C            0.56993380385230        0.23568140481695        0.20920077863622
C            0.68238404297898        0.46492511004118        1.71849705672837
H            9.55316823655128       -0.51633144367475       -1.52417237181942
H            9.11547134712630       -1.98914339701718       -0.65598888958939
H           10.31419007468205       -0.88788207176071        0.02406335960638
H            8.12931418084596       -0.63229966488939        1.17415897489837
H            9.65083447840931        1.33238230055567        0.89240873679337
H            7.96192594108458        1.81964163038055        0.98091552519800
H            8.78702081391416        1.77828262389357       -0.58039063163153
H            7.06770704602177        0.21981996205104       -1.55367321338078
H            6.78261531726891       -1.35340727803021       -0.81222464743764
H            5.69128103581017       -0.19706758749190        1.13686403242621
H            5.86223831860629        1.33396574324519        0.28009899343909
H            4.34988081263654       -1.11339351581058       -0.70140431365987
H            4.51649267404489        0.37598948196861       -1.62152268181438
H            3.32422738434665        0.41932638338379        1.16136332283478
H            2.81931666188555        2.21412267869363       -1.25041301702161
H            4.09906054106815        2.51509869244310       -0.07720599006786
H            2.42418184092074        2.55532733018496        0.43667461021196
H            1.87929032201808       -0.10113753354642       -1.46166829400761
H            2.67541945490433       -1.87031989881671        0.83246469297348
H            2.40781886889992       -2.28249542549334       -0.85672655528386
H            0.32707416352808       -3.09655491968072       -0.20304498197768
H            0.45494356931823       -2.34026780029323        1.38272508280154
H           -0.32086691180461       -1.03860309526028       -1.24328126689238
H           -1.75159377870132       -0.89625943140480        1.43204055565856
H           -2.23122383507131       -2.41394293577469       -1.15361805677940
H           -2.16220726304202       -3.05416124801519        0.48301037117081
H           -4.52947116962900       -2.94625180691368       -0.05485390654132
H           -6.37239838568289       -0.53033227112244        1.30459128741997
H           -6.49623918076605       -1.84048620473652        0.13142913993124
H           -6.51710833600908       -0.20800714953446       -1.72666006960492
H           -8.36265695966581        0.45482735724081        0.28107665394384
H           -6.34044869716336        1.87300841539774        0.50802839714654
H           -6.53562903683686        2.22023419161342       -1.21135017016043
H           -4.17692033888513        2.45550914304447       -0.54788667668381
H           -4.39434627906711        1.16441846499604       -1.73142445637163
H           -4.93731882465434        0.90866742982418        2.08000979702203
H           -3.61509150430543        2.01314434458610        1.74485236193369
H           -3.28690014310826        0.37566232770439        2.33115208440834
H           -2.45076167101350        0.13813350138797       -1.33816356499471
H           -1.55882690005402        1.81326386046763        1.04384743737695
H           -2.00552644416802        2.40227653765622       -0.55305010975953
H           -0.08077655409239        1.27501103341372       -1.55966634004753
H            0.41045894632017        2.35909889762254       -0.26059355283032
H            1.27564678745124       -0.31466585386765        2.18608928429618
H           -0.29286980112682        0.47367187312337        2.19415402382975
H            1.15932491705711        1.42111418813193        1.91918177983989

          :  Hamiltonian                  GFN2-xTB          :
         :: gradient norm              0.000039469956 Eh/a0 ::
         :: HOMO-LUMO gap              5.022799960864 eV    ::
         :: SCC energy               -86.673665204006 Eh    ::
         :: -> dispersion             -0.078196227059 Eh    ::
         :: -> Gsolv                  -0.028031322523 Eh    ::
         :: repulsion energy           1.214890194597 Eh    ::

    * Orbital Energies and Occupations

         #    Occupation            Energy/Eh            Energy/eV
      -------------------------------------------------------------
         1        2.0000           -0.6896362             -18.7660
       ...           ...                  ...                  ...
        68        2.0000           -0.4246959             -11.5566
        69        2.0000           -0.4224527             -11.4955
        70        2.0000           -0.4196619             -11.4196
        71        2.0000           -0.4173067             -11.3555
        72        2.0000           -0.4148693             -11.2892
        73        2.0000           -0.4113296             -11.1928
        74        2.0000           -0.4091285             -11.1330
        75        2.0000           -0.4074564             -11.0875
        76        2.0000           -0.4062714             -11.0552
        77        2.0000           -0.4029134             -10.9638
        78        2.0000           -0.3935161             -10.7081
        79        2.0000           -0.3865684             -10.5191
        80        2.0000           -0.3748124             -10.1992 (HOMO)
        81                         -0.1902279              -5.1764 (LUMO)
        82                          0.0103098               0.2805
        83                          0.0231604               0.6302
        84                          0.0293856               0.7996
        85                          0.0451576               1.2288
        86                          0.0519035               1.4124
        87                          0.0561392               1.5276
        88                          0.0682683               1.8577
        89                          0.0762412               2.0746
        90                          0.0845794               2.3015
        91                          0.0887736               2.4157
       ...                                ...                  ...
       158                          0.6509192              17.7124
      -------------------------------------------------------------
                  HL-Gap            0.1845845 Eh            5.0228 eV

     #   Z          covCN         q      C6AA      α(0)
     1   6 C        3.756    -0.105    22.569     6.773
     2   6 C        3.849    -0.010    20.729     6.476
     3   6 C        3.755    -0.105    22.554     6.772
     4   6 C        3.806    -0.062    21.693     6.631
     5   6 C        3.801    -0.056    21.575     6.613
     6   6 C        3.806    -0.065    21.742     6.638
     7   6 C        3.849    -0.018    20.869     6.498
     8   6 C        3.755    -0.102    22.511     6.765
     9   6 C        3.878    -0.030    21.055     6.524
    10   6 C        3.823    -0.059    21.614     6.616
    11   6 C        3.818    -0.059    21.618     6.617
    12   6 C        3.905    -0.025    20.961     6.508
    13   6 C        3.857    -0.020    20.898     6.502
    14   6 C        3.812    -0.057    21.598     6.615
    15   6 C        2.898    -0.054    29.349     8.883
    16   6 C        2.953    -0.009    28.243     8.717
    17   6 C        3.813    -0.073    21.887     6.659
    18   6 C        3.730     0.117    18.764     6.184
    19   8 O        1.655    -0.472    22.296     6.374
    20   6 C        3.804    -0.069    21.819     6.650
    21   6 C        3.812    -0.061    21.668     6.626
    22   6 C        3.903     0.013    20.295     6.404
    23   6 C        3.758    -0.102    22.504     6.763
    24   6 C        3.861    -0.026    20.995     6.516
    25   6 C        3.804    -0.062    21.697     6.631
    26   6 C        3.811    -0.060    21.649     6.623
    27   6 C        3.925     0.014    20.282     6.400
    28   6 C        3.756    -0.105    22.551     6.771
    29   1 H        0.925     0.034     2.528     2.487
    30   1 H        0.925     0.031     2.571     2.507
    31   1 H        0.925     0.033     2.540     2.492
    32   1 H        0.924     0.025     2.665     2.553
    33   1 H        0.925     0.032     2.555     2.499
    34   1 H        0.925     0.033     2.539     2.492
    35   1 H        0.925     0.034     2.530     2.488
    36   1 H        0.924     0.030     2.590     2.517
    37   1 H        0.924     0.028     2.613     2.528
    38   1 H        0.924     0.025     2.657     2.549
    39   1 H        0.925     0.031     2.572     2.508
    40   1 H        0.925     0.032     2.557     2.500
    41   1 H        0.924     0.029     2.596     2.520
    42   1 H        0.924     0.032     2.557     2.501
    43   1 H        0.925     0.032     2.564     2.504
    44   1 H        0.925     0.035     2.521     2.483
    45   1 H        0.925     0.032     2.551     2.498
    46   1 H        0.924     0.023     2.696     2.568
    47   1 H        0.924     0.029     2.595     2.519
    48   1 H        0.925     0.024     2.676     2.558
    49   1 H        0.925     0.024     2.666     2.554
    50   1 H        0.924     0.029     2.601     2.522
    51   1 H        0.923     0.025     2.666     2.553
    52   1 H        0.924     0.031     2.578     2.511
    53   1 H        0.924     0.037     2.495     2.470
    54   1 H        0.924     0.036     2.498     2.471
    55   1 H        0.925     0.020     2.727     2.582
    56   1 H        0.924     0.039     2.463     2.454
    57   1 H        0.924     0.036     2.498     2.472
    58   1 H        0.924     0.033     2.543     2.494
    59   1 H        0.805     0.295     0.738     1.349
    60   1 H        0.924     0.038     2.473     2.459
    61   1 H        0.924     0.036     2.507     2.476
    62   1 H        0.924     0.040     2.448     2.447
    63   1 H        0.924     0.029     2.597     2.520
    64   1 H        0.925     0.037     2.494     2.470
    65   1 H        0.925     0.040     2.453     2.449
    66   1 H        0.925     0.035     2.523     2.484
    67   1 H        0.924     0.026     2.642     2.542
    68   1 H        0.925     0.041     2.429     2.437
    69   1 H        0.924     0.029     2.606     2.524
    70   1 H        0.924     0.023     2.684     2.562
    71   1 H        0.925     0.033     2.539     2.492
    72   1 H        0.925     0.038     2.474     2.460
    73   1 H        0.925     0.037     2.489     2.467
    74   1 H        0.925     0.033     2.544     2.494

molecular dipole:
                 x           y           z       tot (Debye)
 q only:        0.629       0.415       0.633
   full:        0.644       0.402       0.713       2.647

 projected vibrational frequencies (cm⁻¹)
eigval :       -0.00    -0.00     0.00     0.00     0.00     0.00
eigval :        3.73    15.64    25.67    37.62    51.84    72.58
eigval :       77.43    86.62    97.15   107.44   113.81   137.83
eigval :      162.28   177.77   179.97   203.01   204.72   212.25
eigval :      221.23   229.65   238.41   241.78   247.52   267.17
eigval :      273.64   278.40   288.37   302.17   312.85   314.14
eigval :      336.07   345.39   360.87   373.77   376.33   398.26
eigval :      412.86   424.72   426.64   447.44   456.50   458.40
eigval :      470.76   484.46   497.53   513.39   546.11   565.48
eigval :      579.43   602.87   619.67   642.95   704.78   756.75
eigval :      768.02   771.60   818.93   837.22   843.41   859.23
eigval :      868.24   877.36   882.34   889.26   901.66   911.48
eigval :      939.62   944.32   945.86   953.04   962.22   971.59
eigval :      972.30   981.15   990.53  1001.64  1010.81  1018.39
eigval :     1023.86  1034.71  1045.61  1050.48  1054.23  1056.32
eigval :     1065.78  1072.09  1073.35  1080.44  1098.38  1101.55
eigval :     1105.06  1108.45  1118.21  1126.44  1129.46  1134.86
eigval :     1142.68  1145.26  1149.59  1153.38  1158.96  1165.53
eigval :     1176.61  1178.59  1186.23  1192.09  1195.65  1201.52
eigval :     1207.10  1214.50  1220.24  1226.80  1241.21  1246.45
eigval :     1250.22  1254.93  1268.11  1271.83  1281.10  1281.55
eigval :     1287.84  1289.41  1293.91  1298.28  1308.33  1312.92
eigval :     1314.89  1315.16  1328.40  1328.66  1333.58  1338.06
eigval :     1339.99  1340.76  1345.80  1347.94  1353.08  1358.60
eigval :     1362.02  1366.73  1370.72  1374.92  1386.51  1404.75
eigval :     1406.38  1409.24  1417.59  1419.39  1474.24  1476.18
eigval :     1476.89  1481.90  1484.83  1486.58  1488.61  1491.08
eigval :     1493.18  1496.00  1498.14  1499.94  1504.05  1504.68
eigval :     1505.99  1507.09  1510.59  1512.43  1514.25  1519.08
eigval :     1521.88  1742.00  2890.64  2899.30  2909.53  2910.40
eigval :     2912.01  2922.78  2931.81  2938.39  2949.92  2953.54
eigval :     2955.20  2956.32  2957.22  2962.52  2965.15  2965.70
eigval :     2969.54  2970.48  2974.26  2976.34  2980.17  2986.24
eigval :     2987.48  2991.04  2993.46  2999.62  3002.44  3007.84
eigval :     3020.14  3020.15  3021.19  3023.35  3025.56  3027.13
eigval :     3031.95  3032.26  3033.44  3034.44  3034.90  3037.61
eigval :     3042.67  3052.72  3054.54  3056.18  3064.69  3509.66

   temp. (K)  partition function   enthalpy   heat capacity  entropy
                                   cal/mol     cal/K/mol   cal/K/mol   J/K/mol
 298.15  VIB  0.534E+13            16921.522    108.296    104.738
         ROT  0.207E+08              888.752      2.981     36.454
         INT  0.110E+21            17810.274    111.277    141.192
         TR   0.736E+28             1481.254      4.968     43.729
         TOT                       19291.5280   116.2451   184.9214   773.7112

       T/K    H(0)-H(T)+PV         H(T)/Eh          T*S/Eh         G(T)/Eh
   ------------------------------------------------------------------------
    298.15    0.307430E-01    0.705717E+00    0.878621E-01    0.617855E+00
   ------------------------------------------------------------------------

         :::::::::::::::::::::::::::::::::::::::::::::::::::::
         ::                  THERMODYNAMIC                  ::
         :::::::::::::::::::::::::::::::::::::::::::::::::::::
         :: total free energy         -84.840920451533 Eh   ::
         ::.................................................::
         :: total energy              -85.458775009945 Eh   ::
         :: zero point energy           0.674973686019 Eh   ::
         :: G(RRHO) w/o ZPVE           -0.057119127606 Eh   ::
         :: G(RRHO) contrib.            0.617854558413 Eh   ::
         :::::::::::::::::::::::::::::::::::::::::::::::::::::

           -------------------------------------------------
          | TOTAL ENERGY              -85.458775009945 Eh   |
          | TOTAL ENTHALPY            -84.753058317259 Eh   |
          | TOTAL FREE ENERGY         -84.840920451533 Eh   |
          | GRADIENT NORM               0.000039469978 Eh/α |
          | HOMO-LUMO GAP               5.022799992617 eV   |
           -------------------------------------------------

 * finished run on 2025/09/13 at 02:15:40.681
