   * xtb version 6.7.1 (edcfbbe) compiled by 'albert@albert-system' on 2024-07-22

   ID    Z sym.   atoms
    1    6 C      1-18, 20-28
    2    8 O      19
    3    1 H      29-74

          program call               : xtb data2507/toluene/DCE/DCE_toluene_T1_crest.xyz --gfn 2 --uhf 2 --gbsa toluene --ohess vtight --parallel 40 --molden --ceasefiles --namespace data2507/toluene/DCE/DCE_toluene_T1_finalOpt
      * Solvation model:               GBSA
        Solvent                        toluene
        Solvent mass                       9.2140E+01 g/mol
          :  Hamiltonian                  GFN2-xTB          :
 * total energy  :   -85.3249480 Eh     change       -0.4584280E-09 Eh
 * total energy  :   -85.3256530 Eh     change       -0.7050014E-03 Eh
 * total energy  :   -85.3260564 Eh     change       -0.4033812E-03 Eh
 * total energy  :   -85.3261761 Eh     change       -0.1197367E-03 Eh
 * total energy  :   -85.3263214 Eh     change       -0.1452426E-03 Eh
 * total energy  :   -85.3263819 Eh     change       -0.6057100E-04 Eh
 * total energy  :   -85.3264511 Eh     change       -0.6914686E-04 Eh
 * total energy  :   -85.3265081 Eh     change       -0.5706531E-04 Eh
 * total energy  :   -85.3265457 Eh     change       -0.3751545E-04 Eh
 * total energy  :   -85.3265624 Eh     change       -0.1669845E-04 Eh
 * total energy  :   -85.3268767 Eh     change       -0.1521713E-06 Eh
 * total energy  :   -85.3268769 Eh     change       -0.1639696E-06 Eh
 * total energy  :   -85.3268771 Eh     change       -0.1759794E-06 Eh
 * total energy  :   -85.3268772 Eh     change       -0.1798036E-06 Eh
 * total energy  :   -85.3268774 Eh     change       -0.2009823E-06 Eh
 * total energy  :   -85.3268777 Eh     change       -0.2186813E-06 Eh
 * total energy  :   -85.3268779 Eh     change       -0.1925340E-06 Eh
 * total energy  :   -85.3268780 Eh     change       -0.1378706E-06 Eh
 * total energy  :   -85.3268781 Eh     change       -0.8884128E-07 Eh
   *** GEOMETRY OPTIMIZATION CONVERGED AFTER 88 ITERATIONS ***

 final structure:
================
74
 xtb: 6.7.1 (edcfbbe)
C            8.65719003660678        1.27771644607630       -0.25167964189371
C            8.26730987660814       -0.19347696884139       -0.38826041031911
C            8.43675360652751       -0.91583363067293        0.94757919973377
C            6.85420435923809       -0.36760447776644       -0.96576265009073
C            5.72072563856158        0.19891328589835       -0.11170756941934
C            4.36452747993906       -0.02804952027953       -0.78066088311640
C            3.18054586665008        0.51156733702769        0.04289359038407
C            3.11717029991198        2.03128197057909       -0.11202957361124
C            1.87726744470148       -0.17826363301580       -0.40011629756670
C            1.93631899028017       -1.71418755343343       -0.18872391295247
C            0.51568513792669       -2.18214960028495        0.17295004355794
C           -0.34254234118678       -0.95958334741310       -0.13214505565569
C           -1.75558231843430       -0.90554265121661        0.43969676581065
C           -2.56739906474498       -2.15176005905057        0.00253379670405
C           -3.98902499303330       -1.96917193817274        0.40103017825600
C           -4.59597177728868       -0.74252401545489       -0.04747435686022
C           -5.38489082733897       -0.66796330563628       -1.31195733557994
C           -6.53574857677704        0.35219451785488       -1.18714992322478
O           -7.68982352070075       -0.25853610789816       -0.64011423481196
C           -6.09778346900287        1.56826386622596       -0.34967177617869
C           -4.57914689246288        1.72681591528780       -0.29595139464832
C           -3.90915426041565        0.52706146219863        0.39486303587374
C           -4.01887343223466        0.67792775611352        1.91941537511058
C           -2.41948979980964        0.38512122161452       -0.06720636454234
C           -1.56583290211578        1.60586568270377        0.29443242323483
C           -0.12871281376491        1.49315202174542       -0.22580912710534
C            0.55009302797323        0.22484637282998        0.29643728629167
C            0.75186698712868        0.30346922230721        1.81189413938543
H            8.50413946142761        1.80447626244585       -1.19140289240699
H            9.70692261414242        1.36407848918568        0.02197700808563
H            8.06726098356368        1.76577382893035        0.52037883338536
H            8.95605074132597       -0.65552146080593       -1.10761817019286
H            8.12364952400456       -1.95458658674463        0.86458662906003
H            7.84748908856148       -0.43633336288093        1.72540999169095
H            9.48037988406934       -0.89654587876940        1.25539545478227
H            6.82328042219862        0.11149692207564       -1.94834962444158
H            6.67535128566745       -1.43544835914172       -1.12048408722700
H            5.71618327238335       -0.28923080811652        0.86433930965570
H            5.88454800210229        1.26482780484454        0.04525369942602
H            4.24789813136720       -1.09993974023328       -0.93907215389300
H            4.35852775768835        0.44956831236135       -1.76371238339473
H            3.36483933015408        0.27342329498954        1.09511209370969
H            4.10646602659162        2.46499526575689        0.01085903896182
H            2.46888866331373        2.48289807967770        0.63231909487036
H            2.75035089041459        2.29704305391022       -1.10119785465798
H            1.75572167939845        0.02206943133137       -1.47118489342369
H            2.63898847294277       -1.96059639594835        0.60768889964034
H            2.27803262577786       -2.21254551106053       -1.09566247259944
H            0.21776348815770       -3.05070405579794       -0.41347727663473
H            0.44040494676898       -2.44899612255121        1.22745769160087
H           -0.43980919526542       -0.89849596841621       -1.22400583375833
H           -1.71439477748768       -0.90320438676524        1.53087147512756
H           -2.49059853123343       -2.23243803539973       -1.08796272303735
H           -2.14095349293312       -3.05068885187746        0.44809770728871
H           -4.36294249218139       -2.50305668841699        1.26336667629068
H           -5.80418572237299       -1.64457894128202       -1.56288455864736
H           -4.74726708572234       -0.35630403627942       -2.15116646189023
H           -6.85154305392334        0.66835824649352       -2.18756817608646
H           -7.43504706864082       -0.65671926847399        0.20281762170619
H           -6.48319901569818        1.43829588068367        0.66419190875227
H           -6.55100599426727        2.47562673434345       -0.75183610392676
H           -4.34292113897124        2.64362033983714        0.24638309865394
H           -4.19972381688332        1.83276328034317       -1.31415915951525
H           -3.53631455181518        1.59096711313224        2.25816500849369
H           -3.56923934440633       -0.17164595228587        2.42510712337878
H           -5.06492442421445        0.72131975103492        2.21361869071713
H           -2.44925262204831        0.31750168974004       -1.16287440926169
H           -1.54129895447982        1.73426059558266        1.37536513093405
H           -2.01733236953913        2.50141056459368       -0.13539088778528
H           -0.14274732347982        1.46838508510925       -1.31875832076827
H            0.41328415570756        2.38812625457176        0.07742009258623
H            1.33051431974236       -0.54118461107584        2.17224520873213
H           -0.19480568601133        0.31254125614377        2.34267061532209
H            1.28502742148367        1.21475933552881        2.07091640248657

          :  Hamiltonian                  GFN2-xTB          :
         :: gradient norm              0.000026709764 Eh/a0 ::
         :: HOMO-LUMO gap              7.823881983260 eV    ::
         :: SCC energy               -86.513612140608 Eh    ::
         :: -> dispersion             -0.078859888272 Eh    ::
         :: -> Gsolv                  -0.027760824605 Eh    ::
         :: repulsion energy           1.186734053168 Eh    ::

    * Orbital Energies and Occupations

         #    Occupation            Energy/Eh            Energy/eV
      -------------------------------------------------------------
         1        2.0000           -0.6864172             -18.6784
       ...           ...                  ...                  ...
        69        2.0000           -0.4204830             -11.4419
        70        2.0000           -0.4197856             -11.4229
        71        2.0000           -0.4169251             -11.3451
        72        2.0000           -0.4147354             -11.2855
        73        2.0000           -0.4131245             -11.2417
        74        2.0000           -0.4124338             -11.2229
        75        2.0000           -0.4100606             -11.1583
        76        2.0000           -0.4061437             -11.0517
        77        2.0000           -0.4058163             -11.0428
        78        2.0000           -0.3976889             -10.8217
        79        2.0000           -0.3939325             -10.7194
        80        1.0000           -0.2972316              -8.0881
        81        1.0000           -0.2786415              -7.5822 (HOMO)
        82                          0.0088809               0.2417 (LUMO)
        83                          0.0220670               0.6005
        84                          0.0380866               1.0364
        85                          0.0429578               1.1689
        86                          0.0570261               1.5518
        87                          0.0597048               1.6247
        88                          0.0682699               1.8577
        89                          0.0750185               2.0414
        90                          0.0782342               2.1289
        91                          0.0826400               2.2487
        92                          0.0871650               2.3719
       ...                                ...                  ...
       158                          0.4258588              11.5882
      -------------------------------------------------------------
                  HL-Gap            0.2875223 Eh            7.8239 eV

     #   Z          covCN         q      C6AA      α(0)
     1   6 C        3.754    -0.104    22.549     6.771
     2   6 C        3.848    -0.010    20.726     6.476
     3   6 C        3.754    -0.105    22.554     6.772
     4   6 C        3.804    -0.061    21.668     6.627
     5   6 C        3.801    -0.056    21.589     6.615
     6   6 C        3.807    -0.065    21.742     6.638
     7   6 C        3.849    -0.018    20.865     6.497
     8   6 C        3.755    -0.103    22.518     6.766
     9   6 C        3.879    -0.029    21.048     6.523
    10   6 C        3.824    -0.059    21.617     6.616
    11   6 C        3.818    -0.058    21.609     6.616
    12   6 C        3.905    -0.023    20.931     6.503
    13   6 C        3.857    -0.016    20.830     6.491
    14   6 C        3.809    -0.049    21.451     6.593
    15   6 C        2.894    -0.078    29.956     8.974
    16   6 C        2.961    -0.045    29.122     8.851
    17   6 C        3.804    -0.064    21.731     6.637
    18   6 C        3.726     0.114    18.811     6.193
    19   8 O        1.655    -0.471    22.287     6.373
    20   6 C        3.802    -0.069    21.823     6.651
    21   6 C        3.809    -0.063    21.702     6.631
    22   6 C        3.904     0.020    20.178     6.385
    23   6 C        3.757    -0.103    22.510     6.764
    24   6 C        3.863    -0.021    20.902     6.502
    25   6 C        3.804    -0.060    21.658     6.625
    26   6 C        3.810    -0.060    21.652     6.624
    27   6 C        3.924     0.014    20.272     6.399
    28   6 C        3.756    -0.105    22.556     6.772
    29   1 H        0.925     0.032     2.556     2.500
    30   1 H        0.925     0.032     2.564     2.504
    31   1 H        0.925     0.036     2.508     2.476
    32   1 H        0.924     0.023     2.684     2.562
    33   1 H        0.925     0.032     2.554     2.499
    34   1 H        0.925     0.036     2.500     2.473
    35   1 H        0.925     0.032     2.564     2.504
    36   1 H        0.924     0.027     2.631     2.537
    37   1 H        0.924     0.026     2.641     2.542
    38   1 H        0.924     0.030     2.581     2.512
    39   1 H        0.925     0.032     2.558     2.501
    40   1 H        0.925     0.032     2.559     2.502
    41   1 H        0.924     0.028     2.615     2.529
    42   1 H        0.924     0.032     2.553     2.499
    43   1 H        0.925     0.036     2.509     2.477
    44   1 H        0.925     0.032     2.555     2.500
    45   1 H        0.925     0.032     2.563     2.503
    46   1 H        0.924     0.023     2.685     2.563
    47   1 H        0.924     0.031     2.578     2.511
    48   1 H        0.925     0.025     2.659     2.550
    49   1 H        0.925     0.025     2.653     2.547
    50   1 H        0.924     0.030     2.591     2.517
    51   1 H        0.924     0.026     2.649     2.545
    52   1 H        0.924     0.032     2.554     2.499
    53   1 H        0.924     0.036     2.506     2.475
    54   1 H        0.925     0.031     2.568     2.506
    55   1 H        0.926     0.020     2.726     2.582
    56   1 H        0.924     0.042     2.426     2.436
    57   1 H        0.923     0.043     2.411     2.428
    58   1 H        0.924     0.030     2.580     2.512
    59   1 H        0.805     0.298     0.726     1.338
    60   1 H        0.924     0.043     2.414     2.430
    61   1 H        0.924     0.034     2.530     2.488
    62   1 H        0.924     0.039     2.456     2.451
    63   1 H        0.924     0.033     2.538     2.491
    64   1 H        0.925     0.037     2.492     2.469
    65   1 H        0.925     0.037     2.493     2.469
    66   1 H        0.925     0.035     2.513     2.479
    67   1 H        0.923     0.025     2.661     2.551
    68   1 H        0.925     0.039     2.461     2.453
    69   1 H        0.924     0.033     2.544     2.494
    70   1 H        0.924     0.025     2.663     2.552
    71   1 H        0.925     0.037     2.492     2.468
    72   1 H        0.925     0.039     2.458     2.452
    73   1 H        0.925     0.036     2.497     2.471
    74   1 H        0.925     0.034     2.524     2.484

molecular dipole:
                 x           y           z       tot (Debye)
 q only:        1.060       0.369       0.408
   full:        1.290       0.350       0.409       3.553

 projected vibrational frequencies (cm⁻¹)
eigval :       -0.00    -0.00    -0.00    -0.00    -0.00     0.00
eigval :       13.94    19.33    28.23    31.53    56.51    59.22
eigval :       71.65    82.80    91.57   106.34   119.31   124.78
eigval :      151.41   159.74   169.44   194.39   210.40   218.07
eigval :      226.91   230.13   243.09   247.73   249.66   270.49
eigval :      278.76   290.34   293.77   307.26   330.23   337.31
eigval :      350.48   361.77   361.89   369.68   372.00   385.67
eigval :      398.37   403.21   417.95   427.68   429.10   452.77
eigval :      456.59   474.50   506.79   519.84   531.64   554.02
eigval :      557.65   572.97   587.35   622.35   637.75   658.38
eigval :      754.35   767.51   769.37   831.38   843.98   850.60
eigval :      853.34   859.63   863.69   876.74   892.39   901.97
eigval :      937.80   938.46   941.16   944.70   954.87   962.30
eigval :      979.55   984.26   991.00   997.12  1002.93  1007.86
eigval :     1019.18  1021.27  1031.33  1033.21  1038.67  1043.81
eigval :     1059.14  1064.55  1065.79  1075.82  1084.86  1092.51
eigval :     1096.47  1099.10  1103.59  1108.99  1123.11  1126.81
eigval :     1132.75  1138.79  1143.48  1147.64  1155.04  1158.27
eigval :     1166.19  1171.89  1176.69  1181.90  1189.98  1197.74
eigval :     1205.14  1209.06  1212.29  1218.14  1224.71  1229.42
eigval :     1241.20  1248.18  1255.43  1256.98  1267.63  1269.21
eigval :     1277.09  1280.74  1285.27  1289.45  1292.29  1295.46
eigval :     1300.69  1309.96  1314.26  1320.02  1324.47  1327.58
eigval :     1332.04  1334.16  1335.87  1341.56  1344.13  1347.76
eigval :     1350.96  1352.97  1358.74  1366.09  1375.91  1381.85
eigval :     1400.15  1404.88  1407.85  1416.73  1418.18  1449.20
eigval :     1470.20  1481.04  1481.75  1483.78  1485.70  1489.86
eigval :     1491.73  1493.11  1494.67  1495.45  1498.98  1504.07
eigval :     1504.52  1507.11  1507.41  1509.14  1512.27  1514.14
eigval :     1517.70  1520.59  2841.64  2890.16  2894.54  2900.92
eigval :     2902.63  2909.42  2924.74  2937.00  2947.35  2953.69
eigval :     2960.87  2961.37  2965.03  2965.14  2970.90  2972.45
eigval :     2979.49  2980.61  2981.46  2983.27  2983.67  2987.40
eigval :     2990.29  2992.27  2997.20  3001.12  3003.10  3007.04
eigval :     3011.20  3016.08  3021.45  3024.92  3026.15  3026.31
eigval :     3026.83  3028.99  3034.08  3036.20  3036.52  3036.90
eigval :     3040.66  3050.32  3051.74  3054.38  3063.19  3506.94

   temp. (K)  partition function   enthalpy   heat capacity  entropy
                                   cal/mol     cal/K/mol   cal/K/mol   J/K/mol
 298.15  VIB  0.201E+13            17117.772    109.613    104.683
         ROT  0.204E+08              888.752      2.981     36.429
         INT  0.411E+20            18006.524    112.594    141.112
         TR   0.736E+28             1481.254      4.968     43.729
         TOT                       19487.7784   117.5622   184.8412   773.3757

       T/K    H(0)-H(T)+PV         H(T)/Eh          T*S/Eh         G(T)/Eh
   ------------------------------------------------------------------------
    298.15    0.310558E-01    0.702192E+00    0.878240E-01    0.614368E+00
   ------------------------------------------------------------------------

         :::::::::::::::::::::::::::::::::::::::::::::::::::::
         ::                  THERMODYNAMIC                  ::
         :::::::::::::::::::::::::::::::::::::::::::::::::::::
         :: total free energy         -84.712509906193 Eh   ::
         ::.................................................::
         :: total energy              -85.326878085188 Eh   ::
         :: zero point energy           0.671136462002 Eh   ::
         :: G(RRHO) w/o ZPVE           -0.056768283008 Eh   ::
         :: G(RRHO) contrib.            0.614368178994 Eh   ::
         :::::::::::::::::::::::::::::::::::::::::::::::::::::

           -------------------------------------------------
          | TOTAL ENERGY              -85.326878085188 Eh   |
          | TOTAL ENTHALPY            -84.624685871600 Eh   |
          | TOTAL FREE ENERGY         -84.712509906193 Eh   |
          | GRADIENT NORM               0.000026701401 Eh/α |
          | HOMO-LUMO GAP               7.823880560998 eV   |
           -------------------------------------------------

 * finished run on 2025/09/13 at 02:22:36.913
