   * xtb version 6.7.1 (edcfbbe) compiled by 'albert@albert-system' on 2024-07-22

   ID    Z sym.   atoms
    1    6 C      1-18, 20-28
    2    8 O      19
    3    1 H      29-74

          program call               : xtb data2507/toluene/DCE/DCE.xyz --gfn 2 --gbsa toluene --ohess vtight --parallel 40 --molden --ceasefiles --namespace data2507/toluene/DCE/DCE_toluene_S0_preOpt
      * Solvation model:               GBSA
        Solvent                        toluene
        Solvent mass                       9.2140E+01 g/mol
          :  Hamiltonian                  GFN2-xTB          :
 * total energy  :   -85.4351389 Eh     change       -0.1752909E-09 Eh
 * total energy  :   -85.4416101 Eh     change       -0.6471271E-02 Eh
 * total energy  :   -85.4428895 Eh     change       -0.1279357E-02 Eh
 * total energy  :   -85.4432702 Eh     change       -0.3807603E-03 Eh
 * total energy  :   -85.4435539 Eh     change       -0.2836229E-03 Eh
 * total energy  :   -85.4437226 Eh     change       -0.1686978E-03 Eh
 * total energy  :   -85.4438439 Eh     change       -0.1213368E-03 Eh
 * total energy  :   -85.4439217 Eh     change       -0.7777836E-04 Eh
 * total energy  :   -85.4439711 Eh     change       -0.4945775E-04 Eh
 * total energy  :   -85.4440138 Eh     change       -0.4267413E-04 Eh
 * total energy  :   -85.4442670 Eh     change       -0.1710842E-05 Eh
 * total energy  :   -85.4442684 Eh     change       -0.1429133E-05 Eh
 * total energy  :   -85.4442696 Eh     change       -0.1194827E-05 Eh
 * total energy  :   -85.4442706 Eh     change       -0.9984446E-06 Eh
 * total energy  :   -85.4442714 Eh     change       -0.7693995E-06 Eh
 * total energy  :   -85.4442720 Eh     change       -0.6573698E-06 Eh
 * total energy  :   -85.4442726 Eh     change       -0.5224589E-06 Eh
 * total energy  :   -85.4442730 Eh     change       -0.4343767E-06 Eh
 * total energy  :   -85.4442730 Eh     change       -0.2336463E-08 Eh
   *** GEOMETRY OPTIMIZATION CONVERGED AFTER 68 ITERATIONS ***

 final structure:
================
74
 xtb: 6.7.1 (edcfbbe)
C            7.11379122061136        0.56545819180843        1.21637080694600
C            6.30470178141636        1.51101698529151        0.33039010941001
C            7.23932003307791        2.50679117723607       -0.35682400658456
C            5.48877813066060        0.75008096972588       -0.72150030019164
C            4.37318544006163       -0.11522897370021       -0.13291243857997
C            3.49799438649342       -0.69053192536425       -1.24654222676984
C            2.51900885376731       -1.82909372305560       -0.90335188459024
C            3.29708506755568       -3.05243188763697       -0.40322694378752
C            1.31478713693514       -1.59738961612494        0.03208129006721
C            1.60212844795556       -1.26718615619670        1.51472444665641
C            0.34185957108598       -0.54978402827797        2.04333626422902
C           -0.66861784015606       -0.70359645225370        0.90651568497458
C           -1.90894026153212        0.18517752907429        0.89937736956622
C           -2.71221625704203       -0.02898085681500        2.18273457102369
C           -4.13011545433679        0.42090228137715        2.06075039376736
C           -4.72512173686194        0.73393656826824        0.92018687775086
C           -6.19398235468031        1.03358624213735        0.85489552888563
C           -6.91471715828203       -0.17130780424473        0.21598456154824
O           -8.09237791499967        0.22685343258053       -0.46825661399747
C           -5.99133802622704       -0.86303158061551       -0.79412047908399
C           -5.03909543168308        0.13468426688003       -1.44592402562925
C           -4.02945349710033        0.71435529823864       -0.42531608677456
C           -3.69843290661514        2.16085844196774       -0.82921795812485
C           -2.75417007985972       -0.16442968867443       -0.34107044366898
C           -1.89695961001844       -0.09529805222025       -1.61407798581720
C           -0.65448030080448       -0.98697218808340       -1.54531700781954
C            0.21005618579478       -0.58432739634302       -0.35272114602830
C            0.75694033399132        0.83270217577406       -0.54591337798984
H            7.78070085544889       -0.04391730831633        0.60925751103294
H            6.46282747171841       -0.09454768961393        1.78382004244622
H            7.71676327341139        1.13302525320376        1.92258683835192
H            5.61023608391373        2.07365643693425        0.96623559885147
H            6.67371860299671        3.21147227065012       -0.96314450885102
H            7.94024054715984        1.98291699364632       -1.00404949749813
H            7.80868154576439        3.06974006506908        0.37994111929845
H            5.03876393910294        1.47802812448594       -1.40234128249229
H            6.16271236882501        0.12321570198934       -1.31095443717073
H            4.80973116706183       -0.92510933600863        0.45003710895249
H            3.77954417147339        0.50826719466596        0.53705935191920
H            4.17130106821382       -1.10208570867430       -2.00619142961835
H            2.95739884940175        0.12437456657372       -1.72415528242119
H            2.07300034124623       -2.10877872201700       -1.86820787357285
H            2.64823844193614       -3.92475642495694       -0.35342172699122
H            3.70324666854750       -2.87849491398877        0.58929279035330
H            4.12065931982102       -3.28046471038643       -1.07676141145961
H            0.80821177813852       -2.57274370745611        0.02932554404062
H            2.47961676669572       -0.63725594081691        1.62388587010327
H            1.78971554977629       -2.18364458411412        2.07467724267744
H           -0.01409980185649       -0.99294155786025        2.97300648704527
H            0.54068719548175        0.50588062509334        2.23129370619415
H           -1.03577917143041       -1.73802787879834        0.93612351799618
H           -1.62014182545187        1.23744465316106        0.85559016749444
H           -2.72075845156203       -1.09581913552231        2.43760873055958
H           -2.22856709754752        0.48971433661578        3.01474415857025
H           -4.69305678609842        0.43981728405014        2.98631226009775
H           -6.37829765187937        1.90717958810665        0.22599993652542
H           -6.59641191746679        1.23478804421022        1.84937437965501
H           -7.18821524581954       -0.89256820103355        1.00371934092533
H           -8.65343709275178        0.71689672898011        0.14439998216356
H           -6.61846809124374       -1.33603228686880       -1.55162558027595
H           -5.42124144700378       -1.64109999459934       -0.28440639861692
H           -5.63301422848613        0.94106540424183       -1.87872066885888
H           -4.51207869694207       -0.35365382295998       -2.26442518839659
H           -2.91039226110859        2.57267745448019       -0.20467540367738
H           -4.57572995199016        2.79325078070334       -0.71281968185197
H           -3.38877737741135        2.20779365116454       -1.86992764269636
H           -3.09068771581181       -1.20156657735533       -0.21857787467574
H           -1.57722408049974        0.93064544442850       -1.78548913465820
H           -2.49205940365048       -0.40243727814720       -2.47586164178429
H           -0.96045156448710       -2.03156555378007       -1.44043712199629
H           -0.09462027691873       -0.89777722795289       -2.47957134388397
H            0.00814928987760        1.58274027477762       -0.31091942892230
H            1.05497823728935        0.98316086503434       -1.58079001695508
H            1.61476984498078        1.01072558806520        0.09212691271421

          :  Hamiltonian                  GFN2-xTB          :
         :: gradient norm              0.000039562187 Eh/a0 ::
         :: HOMO-LUMO gap              5.004735110530 eV    ::
         :: SCC energy               -86.657538229094 Eh    ::
         :: -> dispersion             -0.079524999434 Eh    ::
         :: -> Gsolv                  -0.027448929990 Eh    ::
         :: repulsion energy           1.213265233392 Eh    ::

    * Orbital Energies and Occupations

         #    Occupation            Energy/Eh            Energy/eV
      -------------------------------------------------------------
         1        2.0000           -0.6886913             -18.7402
       ...           ...                  ...                  ...
        68        2.0000           -0.4220885             -11.4856
        69        2.0000           -0.4196430             -11.4191
        70        2.0000           -0.4187623             -11.3951
        71        2.0000           -0.4141113             -11.2685
        72        2.0000           -0.4137864             -11.2597
        73        2.0000           -0.4119757             -11.2104
        74        2.0000           -0.4069239             -11.0730
        75        2.0000           -0.4053155             -11.0292
        76        2.0000           -0.4005026             -10.8982
        77        2.0000           -0.4001128             -10.8876
        78        2.0000           -0.3945985             -10.7376
        79        2.0000           -0.3864617             -10.5162
        80        2.0000           -0.3733685             -10.1599 (HOMO)
        81                         -0.1894479              -5.1551 (LUMO)
        82                          0.0157830               0.4295
        83                          0.0285636               0.7773
        84                          0.0382806               1.0417
        85                          0.0435316               1.1846
        86                          0.0494647               1.3460
        87                          0.0575583               1.5662
        88                          0.0611430               1.6638
        89                          0.0653638               1.7786
        90                          0.0787757               2.1436
        91                          0.0799189               2.1747
       ...                                ...                  ...
       158                          0.6599501              17.9582
      -------------------------------------------------------------
                  HL-Gap            0.1839206 Eh            5.0047 eV

     #   Z          covCN         q      C6AA      α(0)
     1   6 C        3.755    -0.104    22.548     6.771
     2   6 C        3.849    -0.010    20.722     6.475
     3   6 C        3.756    -0.105    22.566     6.773
     4   6 C        3.806    -0.063    21.697     6.631
     5   6 C        3.800    -0.054    21.538     6.608
     6   6 C        3.803    -0.062    21.698     6.632
     7   6 C        3.845    -0.017    20.838     6.493
     8   6 C        3.756    -0.103    22.525     6.767
     9   6 C        3.889    -0.030    21.060     6.524
    10   6 C        3.821    -0.060    21.645     6.621
    11   6 C        3.821    -0.059    21.616     6.616
    12   6 C        3.910    -0.025    20.961     6.507
    13   6 C        3.856    -0.021    20.903     6.502
    14   6 C        3.810    -0.056    21.580     6.612
    15   6 C        2.896    -0.056    29.386     8.888
    16   6 C        2.960    -0.006    28.175     8.706
    17   6 C        3.811    -0.074    21.914     6.663
    18   6 C        3.728     0.121    18.696     6.173
    19   8 O        1.655    -0.468    22.212     6.362
    20   6 C        3.804    -0.060    21.649     6.624
    21   6 C        3.812    -0.064    21.715     6.633
    22   6 C        3.905     0.013    20.300     6.404
    23   6 C        3.759    -0.102    22.490     6.761
    24   6 C        3.859    -0.025    20.976     6.513
    25   6 C        3.805    -0.061    21.674     6.628
    26   6 C        3.810    -0.057    21.596     6.615
    27   6 C        3.929     0.013    20.297     6.403
    28   6 C        3.756    -0.104    22.548     6.770
    29   1 H        0.925     0.034     2.534     2.489
    30   1 H        0.925     0.033     2.539     2.492
    31   1 H        0.925     0.032     2.565     2.504
    32   1 H        0.924     0.024     2.675     2.558
    33   1 H        0.925     0.031     2.569     2.507
    34   1 H        0.925     0.034     2.535     2.490
    35   1 H        0.925     0.033     2.547     2.496
    36   1 H        0.924     0.028     2.609     2.526
    37   1 H        0.924     0.028     2.614     2.528
    38   1 H        0.925     0.033     2.539     2.492
    39   1 H        0.924     0.026     2.643     2.542
    40   1 H        0.924     0.027     2.625     2.534
    41   1 H        0.925     0.037     2.495     2.470
    42   1 H        0.923     0.026     2.640     2.541
    43   1 H        0.925     0.028     2.621     2.532
    44   1 H        0.925     0.035     2.514     2.479
    45   1 H        0.925     0.033     2.544     2.495
    46   1 H        0.923     0.024     2.668     2.554
    47   1 H        0.925     0.035     2.518     2.481
    48   1 H        0.924     0.024     2.678     2.559
    49   1 H        0.925     0.023     2.686     2.563
    50   1 H        0.924     0.029     2.607     2.525
    51   1 H        0.923     0.023     2.693     2.567
    52   1 H        0.924     0.030     2.585     2.514
    53   1 H        0.924     0.036     2.502     2.474
    54   1 H        0.924     0.036     2.510     2.477
    55   1 H        0.925     0.019     2.744     2.590
    56   1 H        0.924     0.049     2.333     2.389
    57   1 H        0.924     0.029     2.603     2.523
    58   1 H        0.923     0.005     2.973     2.697
    59   1 H        0.805     0.293     0.743     1.354
    60   1 H        0.924     0.046     2.369     2.407
    61   1 H        0.924     0.033     2.549     2.497
    62   1 H        0.924     0.044     2.392     2.419
    63   1 H        0.925     0.036     2.501     2.473
    64   1 H        0.925     0.035     2.510     2.477
    65   1 H        0.925     0.034     2.537     2.491
    66   1 H        0.925     0.040     2.453     2.449
    67   1 H        0.924     0.027     2.630     2.536
    68   1 H        0.925     0.042     2.418     2.432
    69   1 H        0.924     0.027     2.622     2.532
    70   1 H        0.924     0.022     2.696     2.568
    71   1 H        0.924     0.026     2.651     2.546
    72   1 H        0.925     0.036     2.503     2.474
    73   1 H        0.925     0.031     2.574     2.509
    74   1 H        0.925     0.044     2.392     2.419

molecular dipole:
                 x           y           z       tot (Debye)
 q only:        0.434       0.286       0.219
   full:        0.312       0.257       0.468       1.571

 projected vibrational frequencies (cm⁻¹)
eigval :       -0.00     0.00     0.00     0.00     0.00     0.00
eigval :       17.32    19.10    29.64    36.28    60.63    67.29
eigval :       76.92    93.77    97.10   113.97   131.99   137.32
eigval :      154.73   180.95   198.60   205.57   211.67   217.29
eigval :      230.96   233.90   240.01   251.24   258.57   265.74
eigval :      280.53   287.26   293.88   303.28   312.68   318.85
eigval :      325.27   352.59   359.13   371.88   391.89   398.72
eigval :      414.02   425.52   432.09   435.60   442.99   455.81
eigval :      476.74   501.45   528.76   536.72   546.91   557.54
eigval :      604.04   618.20   646.66   657.37   704.84   746.03
eigval :      757.75   774.08   815.20   825.73   839.38   857.17
eigval :      867.74   875.80   879.40   881.64   893.62   925.49
eigval :      932.18   945.68   949.22   956.12   957.14   970.17
eigval :      979.80   981.29   984.42   988.19  1000.27  1012.49
eigval :     1020.04  1026.09  1034.56  1038.72  1048.81  1053.49
eigval :     1058.57  1062.68  1067.50  1077.86  1094.09  1096.93
eigval :     1101.88  1108.59  1115.24  1118.28  1132.51  1140.61
eigval :     1143.23  1146.85  1153.04  1158.68  1161.14  1170.36
eigval :     1176.90  1186.41  1188.67  1193.64  1206.14  1212.80
eigval :     1213.73  1219.10  1225.95  1228.13  1230.48  1245.30
eigval :     1253.53  1257.30  1268.87  1279.95  1284.93  1288.88
eigval :     1290.98  1292.53  1295.30  1299.58  1310.13  1312.35
eigval :     1317.22  1322.53  1325.88  1332.74  1336.32  1340.50
eigval :     1342.13  1343.86  1345.75  1348.11  1353.78  1355.44
eigval :     1361.51  1368.91  1376.20  1386.11  1404.09  1406.62
eigval :     1407.61  1412.83  1417.86  1420.09  1463.05  1472.45
eigval :     1477.60  1478.30  1483.46  1487.46  1490.76  1491.22
eigval :     1492.06  1498.12  1498.82  1500.43  1503.98  1504.48
eigval :     1505.61  1508.87  1510.98  1513.67  1515.76  1519.44
eigval :     1528.96  1751.66  2827.43  2877.35  2888.26  2890.99
eigval :     2903.96  2906.95  2912.48  2937.47  2946.81  2951.77
eigval :     2953.78  2959.93  2962.44  2966.68  2967.92  2973.05
eigval :     2973.92  2977.35  2979.34  2979.39  2986.50  2987.09
eigval :     2992.91  2997.85  3004.70  3008.57  3019.54  3020.09
eigval :     3020.24  3021.12  3023.07  3023.63  3025.30  3026.84
eigval :     3027.02  3029.45  3031.88  3032.24  3038.15  3042.14
eigval :     3045.01  3046.69  3050.43  3052.87  3078.91  3535.10

   temp. (K)  partition function   enthalpy   heat capacity  entropy
                                   cal/mol     cal/K/mol   cal/K/mol   J/K/mol
 298.15  VIB  0.527E+12            16731.909    108.121    101.632
         ROT  0.204E+08              888.752      2.981     36.430
         INT  0.108E+20            17620.661    111.102    138.062
         TR   0.736E+28             1481.254      4.968     43.729
         TOT                       19101.9152   116.0702   181.7913   760.6148

       T/K    H(0)-H(T)+PV         H(T)/Eh          T*S/Eh         G(T)/Eh
   ------------------------------------------------------------------------
    298.15    0.304408E-01    0.705979E+00    0.863749E-01    0.619604E+00
   ------------------------------------------------------------------------

         :::::::::::::::::::::::::::::::::::::::::::::::::::::
         ::                  THERMODYNAMIC                  ::
         :::::::::::::::::::::::::::::::::::::::::::::::::::::
         :: total free energy         -84.824668989393 Eh   ::
         ::.................................................::
         :: total energy              -85.444272995862 Eh   ::
         :: zero point energy           0.675538080240 Eh   ::
         :: G(RRHO) w/o ZPVE           -0.055934073770 Eh   ::
         :: G(RRHO) contrib.            0.619604006469 Eh   ::
         :::::::::::::::::::::::::::::::::::::::::::::::::::::

           -------------------------------------------------
          | TOTAL ENERGY              -85.444272995862 Eh   |
          | TOTAL ENTHALPY            -84.738294076080 Eh   |
          | TOTAL FREE ENERGY         -84.824668989393 Eh   |
          | GRADIENT NORM               0.000039563029 Eh/α |
          | HOMO-LUMO GAP               5.004735131004 eV   |
           -------------------------------------------------

 * finished run on 2025/09/13 at 02:06:07.827
