   * xtb version 6.7.1 (edcfbbe) compiled by 'albert@albert-system' on 2024-07-22

   ID    Z sym.   atoms
    1    6 C      1-18, 20-28
    2    8 O      19
    3    1 H      29-74

          program call               : xtb data2507/toluene/DCE/DCE_toluene_S0_finalOpt.xtbopt.xyz --gfn 2 --uhf 2 --gbsa toluene --ohess vtight --parallel 40 --molden --ceasefiles --namespace data2507/toluene/DCE/DCE_toluene_T1_preOpt
      * Solvation model:               GBSA
        Solvent                        toluene
        Solvent mass                       9.2140E+01 g/mol
          :  Hamiltonian                  GFN2-xTB          :
 * total energy  :   -85.2719888 Eh     change       -0.1252843E-08 Eh
 * total energy  :   -85.3018910 Eh     change       -0.2990216E-01 Eh
 * total energy  :   -85.3050421 Eh     change       -0.3151098E-02 Eh
 * total energy  :   -85.3056442 Eh     change       -0.6021366E-03 Eh
 * total energy  :   -85.3057433 Eh     change       -0.9909400E-04 Eh
 * total energy  :   -85.3059349 Eh     change       -0.1915497E-03 Eh
 * total energy  :   -85.3060621 Eh     change       -0.1271903E-03 Eh
 * total energy  :   -85.3062740 Eh     change       -0.2118806E-03 Eh
 * total energy  :   -85.3064825 Eh     change       -0.2085254E-03 Eh
 * total energy  :   -85.3065174 Eh     change       -0.3488862E-04 Eh
 * total energy  :   -85.3227979 Eh     change       -0.2689432E-06 Eh
 * total energy  :   -85.3227982 Eh     change       -0.2389204E-06 Eh
 * total energy  :   -85.3227984 Eh     change       -0.2306809E-06 Eh
 * total energy  :   -85.3227986 Eh     change       -0.2108453E-06 Eh
 * total energy  :   -85.3227988 Eh     change       -0.1887220E-06 Eh
 * total energy  :   -85.3227990 Eh     change       -0.1720455E-06 Eh
 * total energy  :   -85.3227991 Eh     change       -0.1427922E-06 Eh
 * total energy  :   -85.3227992 Eh     change       -0.1052997E-06 Eh
 * total energy  :   -85.3227993 Eh     change       -0.8427473E-07 Eh
   *** GEOMETRY OPTIMIZATION CONVERGED AFTER 66 ITERATIONS ***

 final structure:
================
74
 xtb: 6.7.1 (edcfbbe)
C            9.36861374518387       -0.97104139952371       -0.55397218074234
C            8.26688585768894       -0.20332273000697        0.17696176126566
C            8.68741382050912        1.25322323490917        0.36516978824699
C            6.94764903552709       -0.32311740735355       -0.59547091922528
C            5.73884506835732        0.24078532760332        0.14989240338795
C            4.43600095445400       -0.05165912253666       -0.59489872372230
C            3.19679520510373        0.54772415651868        0.09572135380952
C            3.12593056078024        2.04153726486451       -0.22213345371276
C            1.93065008595110       -0.20840252193514       -0.34638267046236
C            1.99440913784113       -1.71206065889643        0.03179576901845
C            0.56299025349850       -2.15727235834597        0.37805214239818
C           -0.29273272868330       -0.99561366144599       -0.11648340753333
C           -1.73873311175672       -0.92340345920436        0.35785730799061
C           -2.49254443575207       -2.22518515983934       -0.07217825075645
C           -3.84130373857443       -1.87367766952149       -0.57625774898487
C           -4.54117479633783       -0.85793424927388        0.18148627536623
C           -6.00191437205805       -0.92531786191587        0.43289574717737
C           -6.73180506204141        0.00408549069795       -0.57078823068832
O           -8.13107094968137       -0.01660927294499       -0.38126289745182
C           -6.15684021902639        1.41837807128143       -0.46627648322102
C           -4.65181202798997        1.43802085056629       -0.72404966593064
C           -3.87234449144471        0.49779505051118        0.22990274366786
C           -3.93404151045107        1.05868741341130        1.66147930456575
C           -2.40381083815724        0.32888911640208       -0.25361580146321
C           -1.55573155404942        1.58276109785560       -0.01030896061068
C           -0.10493099333165        1.42960649775786       -0.47428456013431
C            0.56108260971223        0.24390819331126        0.22601262760169
C            0.67356860067970        0.49096872416103        1.73276625180864
H            9.53103597393503       -0.54857414067779       -1.54383687008553
H            9.09823319557534       -2.01877014173920       -0.66882285821808
H           10.30427570843353       -0.91790226433564       -0.00118146827907
H            8.12930797044691       -0.65588004718431        1.16646381958574
H            9.65198479588068        1.30550695141320        0.86629123285427
H            7.96475722418778        1.79568221229801        0.96907483218145
H            8.77560002440062        1.74937225193892       -0.59962296728094
H            7.04882767659595        0.18675449266908       -1.55693749721442
H            6.76395316787638       -1.38081565657259       -0.80353297517863
H            5.68958557732443       -0.20774168200071        1.14572011425682
H            5.85939958629282        1.31666104034332        0.27689342853903
H            4.33197832282579       -1.13345991030645       -0.67407507040696
H            4.50156715762394        0.34500986031755       -1.61104623577975
H            3.32082052500242        0.42503266255102        1.17604868040549
H            2.81470328040818        2.19534864357538       -1.25323384842669
H            4.10206500475217        2.50206753452037       -0.09015068783037
H            2.43050027702035        2.55753089908449        0.43233793791869
H            1.87053653703972       -0.12452094651539       -1.43789317226632
H            2.66259612985374       -1.86309101741012        0.87999405487244
H            2.38112521841906       -2.29972195409167       -0.80072230752516
H            0.30700696753164       -3.09952880809022       -0.10484091339215
H            0.43578425865348       -2.29117322029024        1.45243901420495
H           -0.32349419572011       -1.05484734890140       -1.21250756770998
H           -1.77392266913665       -0.85257621324431        1.44643675290722
H           -1.93015857343679       -2.75270832441352       -0.84288231234802
H           -2.55882283948053       -2.87995362209017        0.80200648395234
H           -3.97066656675369       -1.88223826440511       -1.65915363339646
H           -6.26393206401137       -0.59157777724266        1.44326780532577
H           -6.36604448985313       -1.94641613802386        0.30897041367336
H           -6.58462403127875       -0.38366795755414       -1.58473516072151
H           -8.32183387482543        0.32801929138791        0.50113000713734
H           -6.37536922070514        1.81990893153013        0.52617568038054
H           -6.65865924363186        2.05692956352035       -1.19824172018730
H           -4.28720344464843        2.46177812895694       -0.62033876538791
H           -4.46952282844749        1.11734226406762       -1.75266953661262
H           -4.93637847801881        0.97312501596909        2.06761321439531
H           -3.65595724121379        2.10941879708313        1.67510555841074
H           -3.26599444212754        0.50544128541127        2.31596519070679
H           -2.43934828306678        0.16497962657434       -1.33837020655545
H           -1.55231918251505        1.83317987209808        1.04823452855624
H           -2.00344039970634        2.42115065765182       -0.54808449953861
H           -0.08287090875697        1.26768656521141       -1.55535824996079
H            0.41967600353151        2.36200392552706       -0.26888843274770
H            1.27853739655861       -0.27476272086733        2.20783779504152
H           -0.30016597319342        0.49219690335122        2.21163772839449
H            1.13862566564787        1.45554593393044        1.92083916323793

          :  Hamiltonian                  GFN2-xTB          :
         :: gradient norm              0.000022030092 Eh/a0 ::
         :: HOMO-LUMO gap              7.520195119316 eV    ::
         :: SCC energy               -86.508131893905 Eh    ::
         :: -> dispersion             -0.078451107326 Eh    ::
         :: -> Gsolv                  -0.028201986308 Eh    ::
         :: repulsion energy           1.185332583477 Eh    ::

    * Orbital Energies and Occupations

         #    Occupation            Energy/Eh            Energy/eV
      -------------------------------------------------------------
         1        2.0000           -0.6917412             -18.8232
       ...           ...                  ...                  ...
        69        2.0000           -0.4233761             -11.5207
        70        2.0000           -0.4205418             -11.4435
        71        2.0000           -0.4178865             -11.3713
        72        2.0000           -0.4158692             -11.3164
        73        2.0000           -0.4134493             -11.2505
        74        2.0000           -0.4105302             -11.1711
        75        2.0000           -0.4090605             -11.1311
        76        2.0000           -0.4053203             -11.0293
        77        2.0000           -0.4038596             -10.9896
        78        2.0000           -0.3960362             -10.7767
        79        2.0000           -0.3934014             -10.7050
        80        1.0000           -0.3106230              -8.4525
        81        1.0000           -0.2668660              -7.2618 (HOMO)
        82                          0.0094960               0.2584 (LUMO)
        83                          0.0220699               0.6006
        84                          0.0335055               0.9117
        85                          0.0419679               1.1420
        86                          0.0478279               1.3015
        87                          0.0594088               1.6166
        88                          0.0681061               1.8533
        89                          0.0713389               1.9412
        90                          0.0785796               2.1383
        91                          0.0860818               2.3424
        92                          0.0913568               2.4859
       ...                                ...                  ...
       158                          0.4207814              11.4500
      -------------------------------------------------------------
                  HL-Gap            0.2763621 Eh            7.5202 eV

     #   Z          covCN         q      C6AA      α(0)
     1   6 C        3.756    -0.105    22.569     6.774
     2   6 C        3.849    -0.010    20.729     6.476
     3   6 C        3.755    -0.105    22.555     6.772
     4   6 C        3.806    -0.062    21.694     6.631
     5   6 C        3.801    -0.056    21.577     6.613
     6   6 C        3.807    -0.065    21.743     6.638
     7   6 C        3.849    -0.018    20.869     6.498
     8   6 C        3.755    -0.103    22.515     6.766
     9   6 C        3.879    -0.029    21.050     6.523
    10   6 C        3.824    -0.059    21.614     6.616
    11   6 C        3.819    -0.059    21.623     6.618
    12   6 C        3.904    -0.023    20.925     6.502
    13   6 C        3.853    -0.018    20.855     6.495
    14   6 C        3.807    -0.053    21.513     6.603
    15   6 C        2.891    -0.075    29.882     8.962
    16   6 C        2.960    -0.045    29.106     8.849
    17   6 C        3.804    -0.065    21.735     6.637
    18   6 C        3.729     0.117    18.764     6.184
    19   8 O        1.655    -0.466    22.164     6.355
    20   6 C        3.803    -0.070    21.831     6.652
    21   6 C        3.809    -0.059    21.620     6.619
    22   6 C        3.903     0.018    20.223     6.392
    23   6 C        3.757    -0.104    22.546     6.770
    24   6 C        3.859    -0.023    20.949     6.509
    25   6 C        3.804    -0.063    21.697     6.631
    26   6 C        3.810    -0.060    21.649     6.623
    27   6 C        3.925     0.014    20.270     6.399
    28   6 C        3.756    -0.105    22.561     6.772
    29   1 H        0.925     0.034     2.529     2.487
    30   1 H        0.925     0.031     2.571     2.507
    31   1 H        0.925     0.033     2.540     2.492
    32   1 H        0.924     0.025     2.664     2.553
    33   1 H        0.925     0.032     2.554     2.499
    34   1 H        0.925     0.033     2.538     2.491
    35   1 H        0.925     0.034     2.530     2.488
    36   1 H        0.924     0.030     2.590     2.517
    37   1 H        0.924     0.028     2.612     2.528
    38   1 H        0.924     0.025     2.654     2.547
    39   1 H        0.925     0.031     2.569     2.506
    40   1 H        0.925     0.032     2.554     2.499
    41   1 H        0.924     0.029     2.594     2.519
    42   1 H        0.924     0.033     2.549     2.497
    43   1 H        0.925     0.032     2.563     2.504
    44   1 H        0.925     0.035     2.513     2.479
    45   1 H        0.925     0.033     2.550     2.497
    46   1 H        0.924     0.023     2.691     2.565
    47   1 H        0.924     0.030     2.580     2.512
    48   1 H        0.925     0.024     2.668     2.554
    49   1 H        0.925     0.025     2.662     2.551
    50   1 H        0.925     0.031     2.569     2.506
    51   1 H        0.923     0.026     2.648     2.545
    52   1 H        0.924     0.033     2.549     2.497
    53   1 H        0.925     0.032     2.557     2.500
    54   1 H        0.924     0.043     2.406     2.426
    55   1 H        0.924     0.014     2.823     2.628
    56   1 H        0.924     0.039     2.456     2.451
    57   1 H        0.924     0.039     2.464     2.455
    58   1 H        0.924     0.033     2.538     2.491
    59   1 H        0.805     0.297     0.729     1.341
    60   1 H        0.924     0.040     2.443     2.444
    61   1 H        0.924     0.038     2.471     2.458
    62   1 H        0.924     0.040     2.451     2.448
    63   1 H        0.924     0.028     2.621     2.532
    64   1 H        0.925     0.041     2.439     2.442
    65   1 H        0.925     0.041     2.438     2.442
    66   1 H        0.925     0.037     2.485     2.465
    67   1 H        0.924     0.023     2.691     2.565
    68   1 H        0.925     0.043     2.410     2.428
    69   1 H        0.924     0.028     2.608     2.525
    70   1 H        0.924     0.023     2.686     2.563
    71   1 H        0.925     0.035     2.517     2.481
    72   1 H        0.925     0.040     2.454     2.450
    73   1 H        0.925     0.037     2.488     2.467
    74   1 H        0.925     0.034     2.528     2.486

molecular dipole:
                 x           y           z       tot (Debye)
 q only:        0.711       0.594       0.736
   full:        0.778       0.735       0.678       3.220

 projected vibrational frequencies (cm⁻¹)
eigval :       -0.00    -0.00    -0.00     0.00     0.00     0.00
eigval :        6.04    15.51    26.03    37.61    58.30    72.66
eigval :       77.77    84.96    91.29   104.94   112.07   137.03
eigval :      151.08   169.20   179.00   203.86   204.74   208.61
eigval :      220.81   225.16   235.35   238.21   250.24   260.53
eigval :      273.37   277.88   287.81   299.34   307.69   318.46
eigval :      338.02   343.87   359.71   368.58   377.41   385.24
eigval :      402.30   422.23   426.45   440.43   450.82   459.09
eigval :      462.35   469.50   490.05   499.55   516.15   541.43
eigval :      569.49   582.68   603.41   642.25   644.65   692.00
eigval :      758.47   766.89   768.39   829.76   842.70   850.65
eigval :      857.27   865.80   877.62   881.93   889.59   915.22
eigval :      928.05   929.69   941.95   945.85   959.89   963.72
eigval :      971.44   980.94   986.25   995.56  1001.03  1001.72
eigval :     1017.80  1028.83  1033.10  1034.22  1041.87  1048.74
eigval :     1056.56  1059.67  1068.55  1072.83  1083.22  1093.32
eigval :     1100.18  1103.97  1108.24  1114.93  1116.98  1124.15
eigval :     1128.03  1135.74  1146.36  1151.43  1153.01  1161.84
eigval :     1165.82  1177.22  1184.29  1185.13  1186.64  1193.43
eigval :     1204.56  1209.75  1216.12  1221.82  1223.11  1234.55
eigval :     1239.37  1246.38  1249.60  1265.55  1267.31  1268.70
eigval :     1272.06  1280.39  1285.84  1287.42  1290.16  1292.49
eigval :     1296.52  1308.58  1313.26  1315.07  1323.86  1327.43
eigval :     1331.26  1335.35  1339.96  1344.07  1345.39  1348.45
eigval :     1352.42  1356.10  1360.84  1365.47  1374.80  1381.67
eigval :     1397.49  1406.49  1408.43  1416.79  1419.55  1469.52
eigval :     1470.67  1473.46  1479.45  1484.67  1486.47  1486.90
eigval :     1490.80  1491.70  1495.73  1498.20  1500.07  1501.03
eigval :     1504.26  1505.29  1506.49  1510.74  1510.91  1513.86
eigval :     1518.63  1522.29  2882.18  2892.33  2899.32  2900.26
eigval :     2910.11  2911.87  2917.99  2935.07  2938.81  2949.96
eigval :     2953.51  2953.76  2957.29  2957.91  2960.22  2965.05
eigval :     2969.02  2970.36  2971.44  2972.20  2974.37  2985.38
eigval :     2987.22  2988.54  2992.47  2993.57  3001.77  3005.29
eigval :     3007.77  3020.24  3021.56  3022.18  3023.58  3025.40
eigval :     3027.45  3030.80  3031.94  3032.18  3034.30  3040.00
eigval :     3042.77  3053.06  3054.42  3062.46  3065.04  3506.28

   temp. (K)  partition function   enthalpy   heat capacity  entropy
                                   cal/mol     cal/K/mol   cal/K/mol   J/K/mol
 298.15  VIB  0.429E+13            17143.733    109.879    105.691
         ROT  0.205E+08              888.752      2.981     36.437
         INT  0.879E+20            18032.485    112.860    142.128
         TR   0.736E+28             1481.254      4.968     43.729
         TOT                       19513.7394   117.8278   185.8568   777.6248

       T/K    H(0)-H(T)+PV         H(T)/Eh          T*S/Eh         G(T)/Eh
   ------------------------------------------------------------------------
    298.15    0.310971E-01    0.702140E+00    0.883066E-01    0.613834E+00
   ------------------------------------------------------------------------

         :::::::::::::::::::::::::::::::::::::::::::::::::::::
         ::                  THERMODYNAMIC                  ::
         :::::::::::::::::::::::::::::::::::::::::::::::::::::
         :: total free energy         -84.708965389296 Eh   ::
         ::.................................................::
         :: total energy              -85.322799310420 Eh   ::
         :: zero point energy           0.671043360820 Eh   ::
         :: G(RRHO) w/o ZPVE           -0.057209439696 Eh   ::
         :: G(RRHO) contrib.            0.613833921124 Eh   ::
         :::::::::::::::::::::::::::::::::::::::::::::::::::::

           -------------------------------------------------
          | TOTAL ENERGY              -85.322799310420 Eh   |
          | TOTAL ENTHALPY            -84.620658826457 Eh   |
          | TOTAL FREE ENERGY         -84.708965389296 Eh   |
          | GRADIENT NORM               0.000022026383 Eh/α |
          | HOMO-LUMO GAP               7.520195109051 eV   |
           -------------------------------------------------

 * finished run on 2025/09/13 at 02:15:46.136
