   * xtb version 6.7.1 (edcfbbe) compiled by 'albert@albert-system' on 2024-07-22

   ID    Z sym.   atoms
    1    6 C      1-20, 22, 23, 25-38, 40-52, 54-75
    2    7 N      21, 24, 39, 53, 76
    3    1 H      77-141

          program call               : xtb data2507/toluene/2Cz2tCzBn/2Cz2tCzBn_toluene_S0_crest.xyz --gfn 2 --gbsa toluene --ohess vtight --parallel 40 --molden --ceasefiles --namespace data2507/toluene/2Cz2tCzBn/2Cz2tCzBn_toluene_S0_finalOpt
      * Solvation model:               GBSA
        Solvent                        toluene
        Solvent mass                       9.2140E+01 g/mol
          :  Hamiltonian                  GFN2-xTB          :
 * total energy  :  -200.0827238 Eh     change       -0.3415209E-08 Eh
 * total energy  :  -200.0828863 Eh     change       -0.1625126E-03 Eh
 * total energy  :  -200.0830179 Eh     change       -0.1316264E-03 Eh
 * total energy  :  -200.0830843 Eh     change       -0.6633977E-04 Eh
 * total energy  :  -200.0831773 Eh     change       -0.9301016E-04 Eh
 * total energy  :  -200.0832820 Eh     change       -0.1046872E-03 Eh
 * total energy  :  -200.0833823 Eh     change       -0.1003232E-03 Eh
 * total energy  :  -200.0834899 Eh     change       -0.1076158E-03 Eh
 * total energy  :  -200.0836147 Eh     change       -0.1248328E-03 Eh
 * total energy  :  -200.0837522 Eh     change       -0.1374279E-03 Eh
 * total energy  :  -200.0857416 Eh     change       -0.2087977E-06 Eh
 * total energy  :  -200.0857418 Eh     change       -0.1844488E-06 Eh
 * total energy  :  -200.0857420 Eh     change       -0.1901451E-06 Eh
 * total energy  :  -200.0857422 Eh     change       -0.1778406E-06 Eh
 * total energy  :  -200.0857423 Eh     change       -0.1434105E-06 Eh
 * total energy  :  -200.0857425 Eh     change       -0.1432875E-06 Eh
 * total energy  :  -200.0857426 Eh     change       -0.1720324E-06 Eh
 * total energy  :  -200.0857428 Eh     change       -0.1382850E-06 Eh
 * total energy  :  -200.0857428 Eh     change       -0.6953940E-09 Eh
   *** GEOMETRY OPTIMIZATION CONVERGED AFTER 68 ITERATIONS ***

 final structure:
================
141
 xtb: 6.7.1 (edcfbbe)
C            7.58229211229533       -3.02767266474139        1.70438458882691
C            7.14550775009488       -1.84986502416136        2.58814479014518
C            8.29802091682339       -0.84222444322041        2.64055452788423
C            6.87706197565026       -2.34257038108635        4.01798828546027
C            5.86909800364859       -1.24831069537246        2.01665469059252
C            4.73483847143600       -2.06030791594840        1.89223310811398
C            3.54233585378758       -1.60521247883355        1.36646991063180
C            3.48630657645982       -0.29367735361037        0.92808798431804
C            4.59033240636799        0.56258150929914        1.09597833002105
C            5.77715538693696        0.07988842884051        1.63000900474009
C            4.17464197969923        1.86194198882536        0.63850915844382
C            4.82657133323910        3.08398953425009        0.54565221393759
C            4.16024291875437        4.18456075480434        0.03003988605870
C            4.80915751125981        5.55669759259119       -0.08974932089099
C            4.82882420380208        5.97989672433791       -1.56626508761109
C            3.99638857125963        6.56888128650072        0.73135843052368
C            6.25050892016648        5.57255195099513        0.42836848200619
C            2.83885872502397        4.02103998853511       -0.40352469089696
C            2.16989094929522        2.81588878953773       -0.32667106943462
C            2.83758440612633        1.73275612348719        0.21694382035705
N            2.42719281841101        0.41688314514677        0.38309547430941
C            1.23287140060110       -0.13407606909873       -0.07076953490482
C            1.22329119600972       -1.23905303940954       -0.94149697702281
N            2.41849912820365       -1.78345727174003       -1.42205484536700
C            2.82827446311505       -3.09751807322832       -1.26728695642275
C            2.15226963973964       -4.17376143448331       -0.71447996844020
C            2.80527111403526       -5.39097638771164       -0.66014163386446
C            4.10534789370853       -5.53672627803087       -1.13716423685156
C            4.78990447917646       -4.46340199525042       -1.67319883154419
C            4.15291888796928       -3.23127572745606       -1.73772657916617
C            4.55463416921804       -1.93396745480689       -2.20809720442125
C            5.71778412295937       -1.44505620706664       -2.78718409717615
C            5.75996943559284       -0.11829751301997       -3.16911282002222
C            4.65077332299613        0.70823827989890       -3.01104691172028
C            3.48236021696182        0.24274837735172       -2.43822018129320
C            3.45481140013977       -1.07285477403090       -2.00331691107294
C            0.00847442777009       -1.77818232989303       -1.34811483643379
C           -1.20826292671776       -1.24065394952238       -0.94500938164400
N           -2.40117617013568       -1.78745989254098       -1.42854366710512
C           -3.43826786070027       -1.07948345578917       -2.01170884586956
C           -3.46900862706522        0.23642486860585       -2.44550674161334
C           -4.63818662979269        0.69921689958419       -3.01896658425827
C           -5.74474448921069       -0.13031733043409       -3.17960800094280
C           -5.69894985669618       -1.45749445275826       -2.79960758889696
C           -4.53526139836477       -1.94355240680888       -2.21917388815990
C           -4.13097212862649       -3.23995497873019       -1.74852737598036
C           -4.76479396211195       -4.47380560221892       -1.68572281740544
C           -4.07882521864141       -5.54525753567974       -1.14775491844576
C           -2.78050639065855       -5.39593147210069       -0.66707253102279
C           -2.13057513022056       -4.17699972616431       -0.71989188492533
C           -2.80784394453638       -3.10267181791555       -1.27487998474364
C           -1.22168970814111       -0.13538299200496       -0.07466663035031
N           -2.41759028977004        0.41553832835788        0.37470910916346
C           -3.47966867274925       -0.29462063394387        0.91482733603124
C           -3.53788636703609       -1.60620314294465        1.35258528885431
C           -4.73283681403830       -2.06140588728060        1.87297138002542
C           -5.86741380651603       -1.24947567282933        1.99281063765085
C           -7.14617564177627       -1.85073513817358        2.55931203922876
C           -7.57944734241089       -3.02922211439185        1.67474014057884
C           -6.88335411947355       -2.34237050250512        3.99057787880207
C           -8.29895970191392       -0.84312989195190        2.60637449269355
C           -5.77336001276960        0.07896235411908        1.60684551945257
C           -4.58433158244458        0.56148576389147        1.07823436791639
C           -4.16612745148086        1.86150320692607        0.62370638688890
C           -4.80971685540365        3.08410135992725        0.52804424207658
C           -4.13901643879804        4.18892230123854        0.01716201143572
C           -4.86497600406290        5.52542783034105       -0.06189213610999
C           -5.30742422190565        5.93556767307248        1.35082638069320
C           -6.09550582011270        5.37664677622846       -0.96919912471343
C           -3.98882173514778        6.64706813946640       -0.62806274861168
C           -2.82021315672073        4.02549183821993       -0.41202545769489
C           -2.15662812943298        2.81389858058342       -0.33243368776542
C           -2.82589291307685        1.73212537148342        0.20722813751534
C            0.00468801661604        0.39799767256971        0.35521296337950
C            0.00277416567760        1.40231835678497        1.34790338537177
N            0.00139969040650        2.17289194063917        2.19809599056941
H            8.51245295843469       -3.45063380692032        2.07826808348749
H            7.74068718814913       -2.68978093347642        0.68220721727285
H            6.83239214775387       -3.81360996776621        1.69084362756709
H            9.18624636631998       -1.32917359755607        3.03829562400723
H            8.05623057162124       -0.00438860634603        3.29053461336422
H            8.53512018570751       -0.46849640458293        1.64707146891969
H            6.53854947758410       -1.51802712113142        4.64257427969196
H            7.78824091440102       -2.75162251976542        4.44942655569121
H            6.11516578685230       -3.11703026093807        4.03463942795226
H            4.77704281083770       -3.08748651933191        2.21991015420898
H            2.68379892638993       -2.25804824648039        1.31368786521340
H            6.60669442628255        0.75779727718097        1.73795501550433
H            5.84917977171534        3.14797538754733        0.87648129776515
H            5.30588123415830        6.95221445191551       -1.66981402565966
H            5.38728066795152        5.25625693578177       -2.15685965117257
H            3.82385405298681        6.04961759937767       -1.97334862656556
H            2.97707111266716        6.65224666776012        0.36452150031145
H            4.45937999083470        7.55201131292878        0.67762143468860
H            3.95683966000483        6.26116673964829        1.77452655617476
H            6.87927550025638        4.89249477402704       -0.14186427301158
H            6.66039416350315        6.57526470363764        0.32498749803080
H            6.29026536634246        5.30025099228496        1.48056123189304
H            2.30779173478908        4.86276818494668       -0.82058767211959
H            1.15450798203578        2.73483478615334       -0.68708017945751
H            1.15095345862190       -4.06729958593110       -0.32545738829705
H            2.29651883816372       -6.24421921489912       -0.23609347061084
H            4.58316562177170       -6.50337772912019       -1.07932153504053
H            5.80235344306367       -4.57423528189017       -2.03030010942116
H            6.56675038583398       -2.09382412019370       -2.94051650723963
H            6.65756194643787        0.28328095381509       -3.61532091059316
H            4.69918734567970        1.73377333528218       -3.34560805653690
H            2.62093630983522        0.88673989162322       -2.34553611186486
H            0.01006511692828       -2.60220713197491       -2.04600929000660
H           -2.60951362112896        0.88275412625722       -2.35105170900830
H           -4.68970111223249        1.72514017993050       -3.35178136394828
H           -6.64296579228824        0.26947074713332       -3.62609197317895
H           -6.54561700892993       -2.10874627709733       -2.95509223772743
H           -5.77596815222142       -4.58734868287317       -2.04557005946056
H           -4.55419053221059       -6.51319368268126       -1.09116477041745
H           -2.27068088028374       -6.24768855419555       -0.24133279969741
H           -1.13067265143340       -4.06778771666055       -0.32800998319454
H           -2.67926033707402       -2.25917593721761        1.30349596844026
H           -4.77651172928898       -3.08868933305612        2.20009918691412
H           -7.73330946891867       -2.69228387548317        0.65156938555203
H           -6.82979095184416       -3.81543735581234        1.66526181891654
H           -8.51137272929939       -3.45149213635705        2.04498581063709
H           -7.79618395666512       -2.75119561461543        4.41871278222665
H           -6.54733595653011       -1.51736750654372        4.61590370590359
H           -6.12144372619951       -3.11672311971618        4.01072492911916
H           -9.18879596124870       -1.32987802280671        3.00073409963232
H           -8.53198421571199       -0.47003442528724        1.61166115361915
H           -8.05994579821532       -0.00492151824777        3.25694449611892
H           -6.60332508105345        0.75691543885542        1.71146764661173
H           -5.83560106293276        3.15893815546249        0.85238170141305
H           -5.99729210679072        5.21230414275946        1.77644201840203
H           -4.44321940005801        6.00921436594029        2.00829961911443
H           -5.80355463646387        6.90341756154253        1.32152658804414
H           -5.79122127945424        5.07591104352805       -1.96985367354033
H           -6.62444218195190        6.32477995108238       -1.03972916730987
H           -6.78391562912068        4.62960995042206       -0.58420472088487
H           -3.10884093162613        6.80647733001634       -0.00885815688364
H           -4.55822801037723        7.57423695720796       -0.64749551059558
H           -3.67545835529011        6.42576031709601       -1.64598052915262
H           -2.27914365291235        4.85969582119479       -0.82645370482553
H           -1.14022960012551        2.73150858139497       -0.68977909352404

          :  Hamiltonian                  GFN2-xTB          :
         :: gradient norm              0.000058094495 Eh/a0 ::
         :: HOMO-LUMO gap              1.976374229542 eV    ::
         :: SCC energy              -203.687741142533 Eh    ::
         :: -> dispersion             -0.220216166424 Eh    ::
         :: -> Gsolv                  -0.074221258619 Eh    ::
         :: repulsion energy           3.601998379243 Eh    ::

    * Orbital Energies and Occupations

         #    Occupation            Energy/Eh            Energy/eV
      -------------------------------------------------------------
         1        2.0000           -0.7059491             -19.2099
       ...           ...                  ...                  ...
       175        2.0000           -0.4110904             -11.1863
       176        2.0000           -0.4107132             -11.1761
       177        2.0000           -0.4101289             -11.1602
       178        2.0000           -0.4012032             -10.9173
       179        2.0000           -0.4006049             -10.9010
       180        2.0000           -0.3866244             -10.5206
       181        2.0000           -0.3865144             -10.5176
       182        2.0000           -0.3797285             -10.3329
       183        2.0000           -0.3789890             -10.3128
       184        2.0000           -0.3758012             -10.2261
       185        2.0000           -0.3756531             -10.2220
       186        2.0000           -0.3679676             -10.0129
       187        2.0000           -0.3643930              -9.9156 (HOMO)
       188                         -0.2917625              -7.9393 (LUMO)
       189                         -0.2690483              -7.3212
       190                         -0.2524347              -6.8691
       191                         -0.2508902              -6.8271
       192                         -0.2469668              -6.7203
       193                         -0.2455888              -6.6828
       194                         -0.2307550              -6.2792
       195                         -0.2305914              -6.2747
       196                         -0.2246676              -6.1135
       197                         -0.2221585              -6.0452
       198                         -0.2213965              -6.0245
       ...                                ...                  ...
       369                          1.1483434              31.2480
      -------------------------------------------------------------
                  HL-Gap            0.0726304 Eh            1.9764 eV

     #   Z          covCN         q      C6AA      α(0)
     1   6 C        3.761    -0.105    22.558     6.770
     2   6 C        3.903     0.025    20.093     6.372
     3   6 C        3.761    -0.108    22.619     6.780
     4   6 C        3.761    -0.106    22.567     6.772
     5   6 C        2.973     0.002    27.988     8.678
     6   6 C        2.932    -0.039    28.967     8.827
     7   6 C        2.909    -0.053    29.316     8.878
     8   6 C        3.076     0.047    26.857     8.497
     9   6 C        3.065    -0.019    28.427     8.743
    10   6 C        2.919    -0.044    29.098     8.846
    11   6 C        3.067    -0.019    28.404     8.739
    12   6 C        2.919    -0.044    29.085     8.844
    13   6 C        2.972     0.002    27.985     8.677
    14   6 C        3.902     0.026    20.089     6.371
    15   6 C        3.761    -0.105    22.561     6.771
    16   6 C        3.761    -0.106    22.566     6.772
    17   6 C        3.761    -0.109    22.623     6.780
    18   6 C        2.931    -0.038    28.956     8.825
    19   6 C        2.909    -0.050    29.246     8.868
    20   6 C        3.073     0.048    26.848     8.496
    21   7 N        2.799    -0.060    22.391     7.028
    22   6 C        2.918     0.061    26.626     8.462
    23   6 C        2.908     0.049    26.890     8.503
    24   7 N        2.801    -0.050    22.201     6.998
    25   6 C        3.072     0.049    26.831     8.493
    26   6 C        2.910    -0.051    29.254     8.869
    27   6 C        2.924    -0.033    28.830     8.805
    28   6 C        2.920    -0.040    28.996     8.830
    29   6 C        2.913    -0.032    28.797     8.800
    30   6 C        3.067    -0.015    28.311     8.725
    31   6 C        3.067    -0.016    28.346     8.730
    32   6 C        2.913    -0.033    28.828     8.804
    33   6 C        2.920    -0.040    28.987     8.829
    34   6 C        2.924    -0.033    28.815     8.803
    35   6 C        2.910    -0.049    29.211     8.862
    36   6 C        3.073     0.050    26.807     8.489
    37   6 C        2.924    -0.058    29.435     8.897
    38   6 C        2.908     0.049    26.891     8.503
    39   7 N        2.801    -0.050    22.202     6.998
    40   6 C        3.073     0.050    26.808     8.489
    41   6 C        2.910    -0.049    29.212     8.863
    42   6 C        2.924    -0.033    28.812     8.803
    43   6 C        2.920    -0.040    28.986     8.829
    44   6 C        2.913    -0.033    28.828     8.804
    45   6 C        3.067    -0.016    28.347     8.730
    46   6 C        3.067    -0.015    28.311     8.725
    47   6 C        2.913    -0.032    28.797     8.800
    48   6 C        2.920    -0.040    28.996     8.830
    49   6 C        2.924    -0.033    28.830     8.805
    50   6 C        2.910    -0.051    29.255     8.869
    51   6 C        3.072     0.049    26.831     8.493
    52   6 C        2.917     0.061    26.628     8.462
    53   7 N        2.799    -0.060    22.396     7.029
    54   6 C        3.075     0.048    26.850     8.496
    55   6 C        2.909    -0.053    29.316     8.878
    56   6 C        2.932    -0.039    28.964     8.826
    57   6 C        2.973     0.002    27.987     8.678
    58   6 C        3.903     0.025    20.093     6.372
    59   6 C        3.761    -0.105    22.559     6.771
    60   6 C        3.761    -0.106    22.568     6.772
    61   6 C        3.761    -0.108    22.616     6.779
    62   6 C        2.919    -0.044    29.091     8.845
    63   6 C        3.064    -0.019    28.425     8.743
    64   6 C        3.066    -0.018    28.392     8.737
    65   6 C        2.921    -0.039    28.978     8.828
    66   6 C        2.972     0.002    27.985     8.677
    67   6 C        3.903     0.026    20.089     6.371
    68   6 C        3.762    -0.106    22.576     6.773
    69   6 C        3.761    -0.106    22.567     6.772
    70   6 C        3.761    -0.108    22.605     6.778
    71   6 C        2.929    -0.043    29.066     8.842
    72   6 C        2.910    -0.051    29.259     8.870
    73   6 C        3.070     0.048    26.846     8.496
    74   6 C        2.975    -0.015    28.373     8.737
    75   6 C        1.914     0.136    27.786     8.513
    76   7 N        0.911    -0.270    26.992     7.514
    77   1 H        0.925     0.041     2.438     2.442
    78   1 H        0.925     0.034     2.536     2.490
    79   1 H        0.925     0.036     2.504     2.474
    80   1 H        0.925     0.039     2.456     2.451
    81   1 H        0.925     0.037     2.492     2.468
    82   1 H        0.925     0.037     2.484     2.465
    83   1 H        0.925     0.033     2.546     2.495
    84   1 H        0.925     0.041     2.437     2.441
    85   1 H        0.925     0.036     2.507     2.476
    86   1 H        0.926     0.034     2.530     2.488
    87   1 H        0.926     0.017     2.783     2.609
    88   1 H        0.926     0.046     2.374     2.410
    89   1 H        0.926     0.047     2.363     2.404
    90   1 H        0.925     0.041     2.438     2.442
    91   1 H        0.925     0.033     2.539     2.492
    92   1 H        0.925     0.036     2.508     2.476
    93   1 H        0.925     0.036     2.507     2.476
    94   1 H        0.925     0.041     2.437     2.441
    95   1 H        0.925     0.033     2.541     2.493
    96   1 H        0.925     0.038     2.482     2.464
    97   1 H        0.925     0.040     2.453     2.449
    98   1 H        0.925     0.037     2.488     2.467
    99   1 H        0.926     0.035     2.519     2.482
   100   1 H        0.926     0.007     2.936     2.679
   101   1 H        0.926     0.022     2.700     2.569
   102   1 H        0.926     0.035     2.514     2.479
   103   1 H        0.926     0.035     2.516     2.481
   104   1 H        0.926     0.038     2.477     2.461
   105   1 H        0.926     0.038     2.479     2.462
   106   1 H        0.926     0.035     2.514     2.479
   107   1 H        0.926     0.033     2.543     2.494
   108   1 H        0.926     0.018     2.759     2.597
   109   1 H        0.926     0.067     2.115     2.274
   110   1 H        0.926     0.018     2.761     2.598
   111   1 H        0.926     0.033     2.544     2.494
   112   1 H        0.926     0.036     2.509     2.477
   113   1 H        0.926     0.038     2.478     2.462
   114   1 H        0.926     0.038     2.476     2.461
   115   1 H        0.926     0.035     2.516     2.480
   116   1 H        0.926     0.035     2.514     2.479
   117   1 H        0.926     0.022     2.699     2.569
   118   1 H        0.926     0.017     2.779     2.607
   119   1 H        0.926     0.034     2.527     2.486
   120   1 H        0.925     0.034     2.536     2.490
   121   1 H        0.925     0.036     2.502     2.474
   122   1 H        0.925     0.041     2.437     2.441
   123   1 H        0.925     0.041     2.436     2.441
   124   1 H        0.925     0.033     2.545     2.495
   125   1 H        0.925     0.036     2.506     2.475
   126   1 H        0.925     0.040     2.455     2.450
   127   1 H        0.925     0.037     2.487     2.466
   128   1 H        0.925     0.037     2.495     2.470
   129   1 H        0.926     0.045     2.385     2.415
   130   1 H        0.926     0.039     2.457     2.451
   131   1 H        0.925     0.038     2.479     2.462
   132   1 H        0.925     0.033     2.546     2.495
   133   1 H        0.925     0.041     2.439     2.442
   134   1 H        0.925     0.033     2.549     2.497
   135   1 H        0.925     0.041     2.437     2.441
   136   1 H        0.925     0.038     2.476     2.461
   137   1 H        0.925     0.036     2.506     2.476
   138   1 H        0.925     0.040     2.451     2.448
   139   1 H        0.925     0.035     2.510     2.477
   140   1 H        0.926     0.042     2.427     2.436
   141   1 H        0.926     0.007     2.938     2.680

molecular dipole:
                 x           y           z       tot (Debye)
 q only:       -0.005      -0.518      -0.591
   full:       -0.020      -0.811      -0.884       3.050

 projected vibrational frequencies (cm⁻¹)
eigval :       -0.00    -0.00    -0.00     0.00     0.00     0.00
eigval :        8.48    14.82    18.27    19.58    28.30    28.62
eigval :       34.07    35.55    35.77    36.59    37.95    38.49
eigval :       42.80    46.91    52.67    60.86    65.26    68.89
eigval :       79.17    80.65    84.44    88.25    92.02    98.00
eigval :      107.37   109.21   120.23   122.71   124.80   133.97
eigval :      134.12   146.76   151.92   154.48   164.20   170.21
eigval :      176.67   179.89   183.32   186.82   194.31   197.72
eigval :      204.24   206.18   215.07   218.88   223.09   225.53
eigval :      227.30   234.26   235.65   236.65   245.40   261.34
eigval :      263.14   268.89   273.76   275.27   281.15   284.09
eigval :      289.69   297.87   307.26   315.10   316.55   319.85
eigval :      321.83   325.55   326.67   331.39   336.02   342.72
eigval :      345.57   350.95   357.02   359.40   374.88   376.60
eigval :      380.33   396.44   398.98   400.44   402.54   409.27
eigval :      410.38   415.16   415.53   422.36   425.10   431.48
eigval :      438.71   438.96   443.63   445.36   446.37   447.29
eigval :      455.67   458.17   464.27   465.43   466.87   468.83
eigval :      508.91   511.61   513.51   517.82   518.80   529.21
eigval :      531.60   531.90   542.60   543.07   552.22   552.43
eigval :      567.29   574.29   581.87   583.54   588.28   588.57
eigval :      593.34   593.51   615.18   615.88   627.97   641.70
eigval :      641.83   644.31   657.74   661.88   672.57   673.41
eigval :      681.65   685.95   687.70   688.22   703.77   704.22
eigval :      707.00   707.81   716.54   720.04   721.68   735.23
eigval :      755.34   756.08   764.18   767.79   779.21   780.61
eigval :      786.91   801.74   811.40   826.85   827.89   830.09
eigval :      832.74   835.76   858.89   859.77   863.46   871.11
eigval :      872.36   873.21   874.76   875.19   875.73   883.71
eigval :      884.07   895.51   896.36   898.34   899.60   901.13
eigval :      903.10   903.40   904.79   905.29   917.64   920.15
eigval :      920.38   920.95   923.15   923.58   924.48   925.29
eigval :      930.15   936.27   959.13   959.31   959.75   959.92
eigval :      961.59   961.66   961.81   962.47   962.51   962.71
eigval :      964.40   964.70  1003.05  1009.32  1013.30  1023.87
eigval :     1031.12  1033.24  1034.36  1034.63  1035.16  1035.33
eigval :     1035.67  1036.02  1040.37  1041.45  1066.19  1069.66
eigval :     1070.08  1073.39  1074.49  1112.73  1122.29  1127.88
eigval :     1129.31  1133.17  1140.93  1142.71  1147.36  1151.62
eigval :     1168.04  1173.83  1175.16  1177.43  1178.07  1179.82
eigval :     1181.04  1199.39  1202.99  1214.54  1225.79  1225.84
eigval :     1226.48  1226.54  1226.69  1228.99  1230.04  1230.20
eigval :     1231.04  1232.39  1232.87  1233.68  1234.66  1240.00
eigval :     1245.68  1252.58  1253.92  1260.53  1280.39  1282.80
eigval :     1284.63  1292.25  1294.80  1296.95  1297.90  1299.16
eigval :     1300.80  1303.56  1305.89  1323.10  1340.54  1346.30
eigval :     1347.83  1355.44  1357.53  1357.80  1358.20  1361.22
eigval :     1361.88  1362.56  1399.49  1399.56  1401.10  1401.23
eigval :     1401.89  1402.47  1402.56  1402.79  1403.18  1410.70
eigval :     1411.47  1419.48  1420.50  1425.78  1426.34  1426.53
eigval :     1426.63  1427.22  1427.54  1433.90  1435.19  1453.45
eigval :     1460.51  1472.76  1473.54  1473.68  1480.12  1481.08
eigval :     1481.86  1486.21  1486.43  1487.49  1488.49  1488.75
eigval :     1489.04  1491.80  1491.96  1492.54  1492.80  1498.43
eigval :     1498.72  1498.85  1499.40  1501.17  1502.20  1502.38
eigval :     1502.70  1507.97  1510.05  1511.53  1511.61  1511.85
eigval :     1516.44  1517.05  1517.38  1518.32  1541.29  1573.34
eigval :     1574.55  1576.03  1576.43  1585.70  1587.82  1590.82
eigval :     1591.61  1599.64  1600.01  1605.72  1606.29  1613.26
eigval :     1613.92  1616.27  1618.34  2358.80  3020.45  3020.48
eigval :     3020.49  3020.99  3021.52  3021.59  3021.97  3022.52
eigval :     3024.55  3024.56  3025.01  3025.02  3026.80  3026.87
eigval :     3026.92  3027.09  3028.90  3029.16  3029.41  3029.53
eigval :     3031.21  3032.22  3032.53  3032.69  3036.43  3036.79
eigval :     3037.09  3037.22  3044.29  3045.17  3045.31  3046.10
eigval :     3047.81  3048.88  3049.01  3049.24  3064.85  3067.01
eigval :     3075.12  3075.88  3078.02  3078.20  3078.33  3078.42
eigval :     3081.26  3081.55  3082.24  3082.32  3087.84  3087.87
eigval :     3089.20  3089.31  3091.98  3095.32  3095.38  3095.86
eigval :     3096.12  3096.21  3098.48  3098.61  3098.88  3119.46
eigval :     3121.22  3122.08  3123.99

   temp. (K)  partition function   enthalpy   heat capacity  entropy
                                   cal/mol     cal/K/mol   cal/K/mol   J/K/mol
 298.15  VIB  0.415E+31            41250.635    256.584    254.258
         ROT  0.232E+09              888.752      2.981     41.261
         INT  0.964E+39            42139.388    259.564    295.518
         TR   0.301E+29             1481.254      4.968     46.525
         TOT                       43620.6417   264.5326   342.0438  1431.1111

       T/K    H(0)-H(T)+PV         H(T)/Eh          T*S/Eh         G(T)/Eh
   ------------------------------------------------------------------------
    298.15    0.695139E-01    0.121687E+01    0.162516E+00    0.105436E+01
   ------------------------------------------------------------------------

         :::::::::::::::::::::::::::::::::::::::::::::::::::::
         ::                  THERMODYNAMIC                  ::
         :::::::::::::::::::::::::::::::::::::::::::::::::::::
         :: total free energy        -199.031387332507 Eh   ::
         ::.................................................::
         :: total energy             -200.085742765818 Eh   ::
         :: zero point energy           1.147357540981 Eh   ::
         :: G(RRHO) w/o ZPVE           -0.093002107670 Eh   ::
         :: G(RRHO) contrib.            1.054355433311 Eh   ::
         :::::::::::::::::::::::::::::::::::::::::::::::::::::

           -------------------------------------------------
          | TOTAL ENERGY             -200.085742765818 Eh   |
          | TOTAL ENTHALPY           -198.868871307513 Eh   |
          | TOTAL FREE ENERGY        -199.031387332507 Eh   |
          | GRADIENT NORM               0.000058119091 Eh/α |
          | HOMO-LUMO GAP               1.976374615985 eV   |
           -------------------------------------------------

 * finished run on 2025/09/07 at 17:50:24.997
