   * xtb version 6.7.1 (edcfbbe) compiled by 'albert@albert-system' on 2024-07-22

   ID    Z sym.   atoms
    1    6 C      1-20, 22, 23, 25-38, 40-52, 54-75
    2    7 N      21, 24, 39, 53, 76
    3    1 H      77-141

          program call               : xtb data2507/toluene/2Cz2tCzBn/2Cz2tCzBn.xyz --gfn 2 --gbsa toluene --ohess vtight --parallel 40 --molden --ceasefiles --namespace data2507/toluene/2Cz2tCzBn/2Cz2tCzBn_toluene_S0_preOpt
      * Solvation model:               GBSA
        Solvent                        toluene
        Solvent mass                       9.2140E+01 g/mol
          :  Hamiltonian                  GFN2-xTB          :
 * total energy  :  -200.0414504 Eh     change       -0.2402658E-08 Eh
 * total energy  :  -200.0668597 Eh     change       -0.2540938E-01 Eh
 * total energy  :  -200.0746944 Eh     change       -0.7834667E-02 Eh
 * total energy  :  -200.0770850 Eh     change       -0.2390604E-02 Eh
 * total energy  :  -200.0786081 Eh     change       -0.1523128E-02 Eh
 * total energy  :  -200.0793501 Eh     change       -0.7419979E-03 Eh
 * total energy  :  -200.0797622 Eh     change       -0.4121098E-03 Eh
 * total energy  :  -200.0800372 Eh     change       -0.2749994E-03 Eh
 * total energy  :  -200.0802706 Eh     change       -0.2333793E-03 Eh
 * total energy  :  -200.0805083 Eh     change       -0.2376823E-03 Eh
 * total energy  :  -200.0843315 Eh     change       -0.3645616E-06 Eh
 * total energy  :  -200.0843319 Eh     change       -0.3885698E-06 Eh
 * total energy  :  -200.0843323 Eh     change       -0.3163775E-06 Eh
 * total energy  :  -200.0843325 Eh     change       -0.2392824E-06 Eh
 * total energy  :  -200.0843327 Eh     change       -0.2087875E-06 Eh
 * total energy  :  -200.0843329 Eh     change       -0.1584818E-06 Eh
 * total energy  :  -200.0843330 Eh     change       -0.1398839E-06 Eh
 * total energy  :  -200.0843331 Eh     change       -0.1036093E-06 Eh
 * total energy  :  -200.0843332 Eh     change       -0.7625857E-07 Eh
   *** GEOMETRY OPTIMIZATION CONVERGED AFTER 90 ITERATIONS ***

 final structure:
================
141
 xtb: 6.7.1 (edcfbbe)
C            8.27937816042519        2.03856524260706        0.74093624664192
C            7.21089814098017        3.00219112535506        0.20339838002263
C            7.61624962972167        3.50479251697790       -1.19035055895968
C            7.14524464231120        4.20932684457298        1.14402739341228
C            5.88641358856371        2.25742247188279        0.10285898062206
C            4.74780367006981        2.65824205457294        0.80535228487754
C            3.55113427917935        1.96720725710295        0.73879607060122
C            3.49937265693051        0.82778188874854       -0.04170112572008
C            4.61216103648996        0.43366904100716       -0.81030892107869
C            5.79821246348427        1.14397727030435       -0.72479693756588
C            4.19760365545726       -0.71616927485092       -1.57064824781906
C            4.85356510998419       -1.53422382553350       -2.48020378555127
C            4.18742326618394       -2.60996901863539       -3.04630865059132
C            4.83937167570548       -3.53850408241598       -4.06181471720083
C            6.27516493979361       -3.12523746379692       -4.39952978465596
C            4.87456699786253       -4.96515925307086       -3.49384781697856
C            4.01974599766285       -3.51519119191612       -5.36071816765661
C            2.86343738256862       -2.85270504773644       -2.66005209076086
C            2.18717740372739       -2.05587190609042       -1.75756779106696
C            2.85522998652276       -0.96594623907885       -1.22688400876706
N            2.43780208538925       -0.02811744619167       -0.29234698179271
C            1.23702573628611       -0.04470889670858        0.41212503987663
C            1.22175182274528       -0.12789245928980        1.81583745830156
N            2.41355512417661       -0.19743346716280        2.54419027231640
C            2.82634304741055        0.72573432681836        3.49175489599597
C            2.14106235798359        1.80447756600779        4.02919715716868
C            2.80269784500120        2.59376516856583        4.95194714466669
C            4.11576173190148        2.32339258746297        5.32901595770185
C            4.80515686775536        1.25569241194001        4.78793604194348
C            4.16052937257406        0.44709754213247        3.86121344016452
C            4.56208953388956       -0.71169396683789        3.11136596111964
C            5.72822183690241       -1.46334619224106        3.06241251286083
C            5.76595070644365       -2.57390914813606        2.24190606084646
C            4.65091151030242       -2.95631248239368        1.50112440128781
C            3.47962212099238       -2.22340693822089        1.53398259486352
C            3.45525215545926       -1.07977548162638        2.31615556400485
C            0.00582952922503       -0.13109221886516        2.48800245204069
C           -1.20653489947949       -0.05863310016452        1.81314400868578
N           -2.40185163838825       -0.07079324092588        2.53892216550331
C           -2.81553066492182       -1.09183658312633        3.37978677715940
C           -2.13171246744140       -2.22421230379845        3.79491841267076
C           -2.79444096991598       -3.10952116601699        4.62509242085141
C           -4.10709551941558       -2.88070366532707        5.02993613892631
C           -4.79528394932784       -1.75919631956986        4.60959666094783
C           -4.14983895942427       -0.85485933003517        3.77664081675831
C           -4.55124589706014        0.37805205162654        3.15612150106130
C           -5.71840065292744        1.12906550402272        3.18720493459948
C           -5.75699414052900        2.32153319818599        2.49116696775062
C           -4.64168469477429        2.78243658121837        1.79687145537543
C           -3.46925788725717        2.05197844072887        1.75209230952127
C           -3.44386548822601        0.83070350385061        2.40655127725733
C           -1.21447846645725        0.01637255777200        0.40871606092452
N           -2.41151112150265        0.07718157283731       -0.29959322345298
C           -2.82478102350211        1.11195461148540       -1.12826542330257
C           -2.15673037492184        2.25231496899051       -1.53327648943181
C           -2.82664529063102        3.14920096311167       -2.34722485788902
C           -4.14647889824490        2.95162377266440       -2.75859276240942
C           -4.87708972683045        3.93525548610436       -3.66339180390547
C           -4.00742870478072        5.12803446287398       -4.07223521361113
C           -5.31336740940342        3.20479770532657       -4.94238495094562
C           -6.11175690988975        4.47608759112484       -2.92665056695916
C           -4.81431681326040        1.81603556362309       -2.31579770844260
C           -4.16714454973250        0.90064021692470       -1.50278782793437
C           -4.58407434682189       -0.32581280544464       -0.87425345405428
C           -5.76982485751418       -1.04123733980006       -0.87227572051425
C           -5.86173972426544       -2.23759986999732       -0.16990571520781
C           -7.18622522986353       -2.98901149505497       -0.15686482850836
C           -7.12785529350102       -4.28420686135260        0.65876997358236
C           -7.57709083532753       -3.34978021313599       -1.59787554753332
C           -8.26182873260363       -2.08521788145443        0.46402111614103
C           -4.72610147733947       -2.71214548236857        0.48979184543223
C           -3.52909287028248       -2.01842368515418        0.50309170175669
C           -3.47425855909032       -0.80083220600653       -0.14847544321219
C            0.01326039441285        0.02494497422180       -0.27383694445572
C            0.01800756346379        0.10503889401144       -1.68401610152981
N            0.02211421499320        0.16996557680632       -2.82962691306917
H            9.23611168057021        2.54968959337854        0.82635970001505
H            8.40680727504635        1.18203721343590        0.08485768306559
H            7.99195511681679        1.67362186974729        1.72492941114739
H            8.54637017586472        4.06602072580350       -1.12982220218765
H            6.84436803903603        4.15734641619037       -1.59399081369136
H            7.76109466424624        2.68078538658636       -1.88332970334798
H            6.87771894395372        3.90503991735543        2.15354711259000
H            6.42606287511395        4.94439810916582        0.78954291743913
H            8.12160061548550        4.68835767289854        1.18448828348694
H            4.77708706172302        3.53680829474087        1.42763505140582
H            2.68703329021992        2.32172779718489        1.28132097733955
H            6.64319616302030        0.82005419413466       -1.31162719112812
H            5.87861198480195       -1.31319720908967       -2.72489621439047
H            6.30337707714687       -2.12408481051816       -4.82361977089990
H            6.91045973840433       -3.15901196979411       -3.51740293435860
H            6.68565643470804       -3.81387690735250       -5.13534387704786
H            5.44838481772767       -4.98765637283835       -2.56943886859261
H            5.34313739912838       -5.63986256159358       -4.20726079173314
H            3.87418826468465       -5.33341504331678       -3.28367362637779
H            3.96163950861654       -2.50052715551138       -5.74997368882052
H            4.48943632293146       -4.14774910143849       -6.11112057141619
H            3.00691150121805       -3.87380192526946       -5.19960876878870
H            2.33412272264053       -3.69612137361662       -3.07589089946232
H            1.16737832892248       -2.28829556935437       -1.48391302963172
H            1.12696961896999        2.03211922296086        3.73438378172135
H            2.28919079984834        3.43860292050892        5.38683630741723
H            4.59936089486182        2.96360085524786        6.05176342008943
H            5.82569747599682        1.05189321025178        5.07452873907115
H            6.58289674488534       -1.18745640133242        3.66114851596543
H            6.66540890807926       -3.16876201679408        2.18607367518658
H            4.69664748325098       -3.84641828197398        0.89170748246152
H            2.61368105703893       -2.54244101833374        0.97360860892032
H            0.00313946122801       -0.19152224489991        3.56595101631271
H           -1.11785177503350       -2.41913224998304        3.47685300980156
H           -2.28240728778348       -3.99824190015051        4.96361089689746
H           -4.59110348407907       -3.59600063131711        5.67819622031220
H           -5.81585883544303       -1.58710434331113        4.91611745940237
H           -6.57313564986903        0.78888682696164        3.75182924696174
H           -6.65722654820291        2.91772723754182        2.49813429960820
H           -4.68861277924411        3.73235780395947        1.28585089664723
H           -2.60379679662162        2.43058972655622        1.22936290261567
H           -1.13772449645810        2.45258147279761       -1.23263680529915
H           -2.28841795924173        4.02784597087871       -2.66125110230917
H           -3.69664164985676        5.70410764199055       -3.20343655944846
H           -3.12578370764571        4.80064485402170       -4.61866480182619
H           -4.58051803242816        5.78600362498349       -4.72256371034914
H           -5.81707350677446        3.89582372627084       -5.61508048158154
H           -5.99454875550913        2.38808618907719       -4.72039083409243
H           -4.44531341909576        2.79415312541518       -5.45453225703317
H           -6.64356894669488        5.18417356398671       -3.55872905116464
H           -5.81115013146568        4.98650656950526       -2.01380670481559
H           -6.79650412523981        3.67618785403217       -2.65935276421106
H           -5.84073002845698        1.63265782932101       -2.59188630611049
H           -6.61195774519751       -0.65641374430326       -1.42555690858056
H           -6.40793304269626       -4.98180053909292        0.23659347910925
H           -6.86553751240006       -4.08286289998558        1.69509540722341
H           -8.10517178790882       -4.76277795630066        0.64561819057778
H           -6.80246576243575       -3.96205966216918       -2.05573858046940
H           -7.71159454084539       -2.46051541647329       -2.20728997674756
H           -8.50929056784040       -3.91077720511590       -1.60356426322369
H           -9.21912875864777       -2.60201052485378        0.48441824676522
H           -8.38211850264895       -1.16532324381185       -0.10130714869473
H           -7.98691308463358       -1.82408469403281        1.48394377369522
H           -4.75781584272125       -3.65278964330340        1.01333375457503
H           -2.66734557924102       -2.43020976373649        1.00749496641658

          :  Hamiltonian                  GFN2-xTB          :
         :: gradient norm              0.000052007010 Eh/a0 ::
         :: HOMO-LUMO gap              1.981984423921 eV    ::
         :: SCC energy              -203.684801691980 Eh    ::
         :: -> dispersion             -0.218622470307 Eh    ::
         :: -> Gsolv                  -0.074535533869 Eh    ::
         :: repulsion energy           3.600468511319 Eh    ::

    * Orbital Energies and Occupations

         #    Occupation            Energy/Eh            Energy/eV
      -------------------------------------------------------------
         1        2.0000           -0.7066518             -19.2290
       ...           ...                  ...                  ...
       175        2.0000           -0.4119109             -11.2087
       176        2.0000           -0.4102679             -11.1640
       177        2.0000           -0.4098570             -11.1528
       178        2.0000           -0.4000263             -10.8853
       179        2.0000           -0.3994315             -10.8691
       180        2.0000           -0.3865517             -10.5186
       181        2.0000           -0.3864333             -10.5154
       182        2.0000           -0.3799395             -10.3387
       183        2.0000           -0.3792190             -10.3191
       184        2.0000           -0.3763386             -10.2407
       185        2.0000           -0.3741929             -10.1823
       186        2.0000           -0.3662290              -9.9656
       187        2.0000           -0.3655158              -9.9462 (HOMO)
       188                         -0.2926793              -7.9642 (LUMO)
       189                         -0.2696153              -7.3366
       190                         -0.2523021              -6.8655
       191                         -0.2508867              -6.8270
       192                         -0.2467208              -6.7136
       193                         -0.2454794              -6.6798
       194                         -0.2307426              -6.2788
       195                         -0.2305192              -6.2727
       196                         -0.2254927              -6.1360
       197                         -0.2221632              -6.0454
       198                         -0.2214799              -6.0268
       ...                                ...                  ...
       369                          1.1486574              31.2566
      -------------------------------------------------------------
                  HL-Gap            0.0728365 Eh            1.9820 eV

     #   Z          covCN         q      C6AA      α(0)
     1   6 C        3.762    -0.106    22.563     6.771
     2   6 C        3.903     0.025    20.092     6.372
     3   6 C        3.761    -0.106    22.572     6.773
     4   6 C        3.761    -0.108    22.605     6.778
     5   6 C        2.972     0.001    27.994     8.679
     6   6 C        2.929    -0.044    29.082     8.844
     7   6 C        2.909    -0.054    29.340     8.882
     8   6 C        3.075     0.048    26.849     8.496
     9   6 C        3.063    -0.019    28.423     8.742
    10   6 C        2.921    -0.040    28.992     8.830
    11   6 C        3.066    -0.019    28.408     8.740
    12   6 C        2.919    -0.044    29.083     8.843
    13   6 C        2.972     0.002    27.985     8.677
    14   6 C        3.902     0.025    20.090     6.371
    15   6 C        3.761    -0.108    22.619     6.780
    16   6 C        3.761    -0.105    22.562     6.771
    17   6 C        3.761    -0.106    22.569     6.772
    18   6 C        2.932    -0.038    28.948     8.824
    19   6 C        2.908    -0.051    29.266     8.871
    20   6 C        3.071     0.049    26.839     8.494
    21   7 N        2.800    -0.062    22.437     7.035
    22   6 C        2.917     0.062    26.612     8.459
    23   6 C        2.909     0.051    26.860     8.498
    24   7 N        2.801    -0.051    22.228     7.002
    25   6 C        3.071     0.049    26.828     8.493
    26   6 C        2.910    -0.052    29.282     8.873
    27   6 C        2.924    -0.033    28.825     8.804
    28   6 C        2.920    -0.040    28.993     8.830
    29   6 C        2.913    -0.032    28.807     8.801
    30   6 C        3.067    -0.015    28.312     8.725
    31   6 C        3.066    -0.016    28.351     8.731
    32   6 C        2.913    -0.033    28.822     8.803
    33   6 C        2.920    -0.040    28.982     8.828
    34   6 C        2.925    -0.033    28.812     8.803
    35   6 C        2.910    -0.049    29.217     8.863
    36   6 C        3.072     0.050    26.801     8.488
    37   6 C        2.924    -0.058    29.439     8.898
    38   6 C        2.909     0.051    26.861     8.498
    39   7 N        2.801    -0.051    22.226     7.002
    40   6 C        3.071     0.049    26.830     8.493
    41   6 C        2.910    -0.052    29.281     8.873
    42   6 C        2.924    -0.033    28.825     8.805
    43   6 C        2.920    -0.040    28.993     8.830
    44   6 C        2.913    -0.032    28.807     8.801
    45   6 C        3.067    -0.015    28.312     8.725
    46   6 C        3.066    -0.016    28.352     8.731
    47   6 C        2.913    -0.033    28.822     8.803
    48   6 C        2.920    -0.039    28.981     8.828
    49   6 C        2.925    -0.032    28.809     8.802
    50   6 C        2.910    -0.049    29.219     8.864
    51   6 C        3.072     0.050    26.803     8.489
    52   6 C        2.917     0.062    26.614     8.460
    53   7 N        2.799    -0.062    22.442     7.036
    54   6 C        3.069     0.049    26.838     8.495
    55   6 C        2.909    -0.051    29.278     8.873
    56   6 C        2.929    -0.043    29.057     8.840
    57   6 C        2.972     0.002    27.984     8.677
    58   6 C        3.903     0.025    20.090     6.371
    59   6 C        3.761    -0.108    22.610     6.778
    60   6 C        3.761    -0.106    22.574     6.773
    61   6 C        3.761    -0.106    22.566     6.772
    62   6 C        2.921    -0.039    28.976     8.827
    63   6 C        3.065    -0.018    28.396     8.738
    64   6 C        3.062    -0.019    28.421     8.742
    65   6 C        2.921    -0.040    28.985     8.829
    66   6 C        2.972     0.001    27.994     8.679
    67   6 C        3.903     0.025    20.092     6.372
    68   6 C        3.761    -0.108    22.606     6.778
    69   6 C        3.761    -0.106    22.569     6.772
    70   6 C        3.762    -0.106    22.563     6.771
    71   6 C        2.929    -0.043    29.079     8.843
    72   6 C        2.909    -0.054    29.341     8.882
    73   6 C        3.074     0.048    26.843     8.495
    74   6 C        2.975    -0.015    28.370     8.737
    75   6 C        1.913     0.136    27.784     8.513
    76   7 N        0.911    -0.268    26.931     7.506
    77   1 H        0.925     0.041     2.440     2.443
    78   1 H        0.925     0.037     2.485     2.465
    79   1 H        0.925     0.033     2.541     2.493
    80   1 H        0.925     0.041     2.441     2.443
    81   1 H        0.925     0.032     2.554     2.499
    82   1 H        0.925     0.037     2.482     2.464
    83   1 H        0.925     0.036     2.501     2.473
    84   1 H        0.925     0.035     2.514     2.479
    85   1 H        0.925     0.040     2.453     2.449
    86   1 H        0.926     0.041     2.437     2.441
    87   1 H        0.926     0.016     2.794     2.614
    88   1 H        0.926     0.038     2.474     2.460
    89   1 H        0.926     0.046     2.376     2.410
    90   1 H        0.925     0.037     2.490     2.468
    91   1 H        0.925     0.037     2.484     2.465
    92   1 H        0.925     0.040     2.453     2.449
    93   1 H        0.925     0.034     2.537     2.491
    94   1 H        0.925     0.041     2.437     2.441
    95   1 H        0.925     0.036     2.509     2.477
    96   1 H        0.925     0.033     2.541     2.493
    97   1 H        0.925     0.041     2.439     2.442
    98   1 H        0.925     0.036     2.506     2.476
    99   1 H        0.926     0.035     2.519     2.482
   100   1 H        0.926     0.009     2.899     2.663
   101   1 H        0.926     0.025     2.661     2.551
   102   1 H        0.926     0.035     2.512     2.479
   103   1 H        0.926     0.035     2.517     2.481
   104   1 H        0.926     0.037     2.492     2.468
   105   1 H        0.926     0.038     2.480     2.463
   106   1 H        0.926     0.035     2.510     2.477
   107   1 H        0.926     0.033     2.542     2.493
   108   1 H        0.926     0.019     2.754     2.595
   109   1 H        0.926     0.068     2.104     2.268
   110   1 H        0.926     0.025     2.661     2.551
   111   1 H        0.926     0.035     2.512     2.479
   112   1 H        0.926     0.035     2.517     2.481
   113   1 H        0.926     0.037     2.491     2.468
   114   1 H        0.926     0.038     2.480     2.463
   115   1 H        0.926     0.036     2.504     2.475
   116   1 H        0.926     0.033     2.543     2.494
   117   1 H        0.926     0.019     2.755     2.595
   118   1 H        0.926     0.010     2.896     2.661
   119   1 H        0.926     0.042     2.422     2.434
   120   1 H        0.925     0.036     2.509     2.477
   121   1 H        0.925     0.036     2.506     2.475
   122   1 H        0.925     0.040     2.450     2.448
   123   1 H        0.925     0.041     2.439     2.442
   124   1 H        0.925     0.037     2.483     2.464
   125   1 H        0.925     0.033     2.545     2.495
   126   1 H        0.925     0.041     2.438     2.442
   127   1 H        0.925     0.033     2.547     2.496
   128   1 H        0.925     0.038     2.479     2.462
   129   1 H        0.926     0.038     2.470     2.458
   130   1 H        0.926     0.037     2.485     2.465
   131   1 H        0.925     0.035     2.513     2.479
   132   1 H        0.925     0.036     2.500     2.473
   133   1 H        0.925     0.040     2.451     2.448
   134   1 H        0.925     0.032     2.553     2.499
   135   1 H        0.925     0.037     2.487     2.466
   136   1 H        0.925     0.041     2.440     2.443
   137   1 H        0.925     0.041     2.440     2.443
   138   1 H        0.925     0.037     2.488     2.467
   139   1 H        0.925     0.033     2.539     2.492
   140   1 H        0.926     0.041     2.434     2.440
   141   1 H        0.926     0.016     2.790     2.612

molecular dipole:
                 x           y           z       tot (Debye)
 q only:       -0.010      -0.047       0.802
   full:       -0.028      -0.078       1.194       3.041

 projected vibrational frequencies (cm⁻¹)
eigval :       -0.00    -0.00    -0.00    -0.00     0.00     0.00
eigval :        9.48    12.21    16.01    18.32    21.00    27.47
eigval :       29.47    30.00    31.89    34.72    36.58    38.68
eigval :       39.48    47.52    52.11    56.03    64.02    68.99
eigval :       77.55    80.29    80.99    84.78    91.61    95.72
eigval :      108.66   110.63   122.13   126.18   132.16   136.39
eigval :      137.03   145.22   152.38   156.02   163.11   168.95
eigval :      175.58   176.30   178.54   183.85   189.86   196.08
eigval :      198.32   200.91   217.91   219.33   220.20   224.18
eigval :      225.58   227.10   230.39   242.01   259.75   259.99
eigval :      266.89   275.03   275.98   276.62   282.63   284.49
eigval :      289.92   298.13   307.05   310.56   314.93   317.29
eigval :      322.62   325.65   330.05   330.23   332.22   342.89
eigval :      345.85   353.60   357.22   357.98   372.09   377.95
eigval :      378.46   400.36   401.53   402.96   404.09   410.93
eigval :      411.58   416.53   419.45   426.33   429.00   429.18
eigval :      438.23   438.61   445.31   447.82   449.83   450.16
eigval :      457.07   458.04   464.05   465.39   467.60   468.77
eigval :      506.33   507.06   515.79   517.64   518.25   527.25
eigval :      531.73   534.97   542.39   544.81   545.54   556.12
eigval :      557.84   580.66   581.08   583.52   588.03   589.34
eigval :      592.21   596.31   610.76   618.66   627.75   641.58
eigval :      641.84   646.93   656.82   664.20   672.32   673.74
eigval :      678.73   686.80   687.59   694.14   704.18   705.02
eigval :      707.26   707.69   714.89   720.03   721.69   735.17
eigval :      754.66   755.32   770.15   771.58   782.74   783.04
eigval :      786.89   816.87   819.41   824.22   825.63   830.79
eigval :      833.67   835.44   868.06   869.91   871.57   872.24
eigval :      874.27   877.73   878.10   878.98   881.09   882.55
eigval :      888.75   894.10   899.57   902.57   903.81   905.31
eigval :      907.01   907.08   908.44   913.20   914.46   915.85
eigval :      921.81   922.64   923.39   924.33   926.70   928.03
eigval :      929.50   935.57   959.06   959.22   959.34   959.45
eigval :      961.19   961.67   961.90   962.12   962.46   963.18
eigval :      963.28   963.88  1003.80  1008.53  1013.14  1023.17
eigval :     1032.14  1034.38  1034.60  1034.74  1034.83  1035.57
eigval :     1035.73  1036.17  1036.95  1039.20  1069.80  1070.46
eigval :     1070.81  1073.55  1076.07  1112.90  1122.97  1129.55
eigval :     1130.25  1132.67  1141.37  1144.59  1151.29  1152.07
eigval :     1169.18  1177.77  1178.93  1179.88  1180.29  1180.95
eigval :     1182.17  1203.35  1203.95  1215.08  1225.14  1225.92
eigval :     1225.96  1226.17  1226.28  1227.64  1229.52  1230.85
eigval :     1231.94  1233.19  1234.12  1234.51  1235.27  1244.36
eigval :     1248.62  1252.56  1253.65  1260.94  1280.86  1283.32
eigval :     1285.38  1291.46  1294.75  1296.51  1298.22  1299.07
eigval :     1300.14  1301.21  1303.46  1321.16  1339.11  1345.76
eigval :     1350.44  1355.59  1356.84  1358.24  1361.13  1361.48
eigval :     1362.19  1364.08  1399.68  1399.89  1401.21  1401.39
eigval :     1401.99  1402.05  1402.76  1403.10  1403.57  1410.77
eigval :     1412.42  1419.75  1420.37  1426.14  1426.32  1426.37
eigval :     1427.08  1427.27  1427.67  1433.67  1435.28  1453.05
eigval :     1459.52  1472.35  1472.48  1472.65  1473.13  1473.77
eigval :     1480.75  1486.00  1486.08  1487.42  1487.97  1488.03
eigval :     1488.27  1491.17  1491.21  1491.85  1492.49  1498.26
eigval :     1498.68  1499.30  1499.81  1501.51  1502.05  1502.49
eigval :     1502.76  1507.20  1509.52  1511.29  1511.46  1511.56
eigval :     1517.21  1517.77  1517.95  1518.48  1541.44  1573.69
eigval :     1575.17  1575.86  1576.08  1587.75  1589.14  1590.49
eigval :     1591.17  1599.38  1599.51  1605.83  1606.46  1613.06
eigval :     1613.62  1617.56  1619.24  2358.06  3019.42  3020.04
eigval :     3020.45  3020.90  3021.17  3021.59  3021.70  3022.66
eigval :     3024.09  3024.35  3024.86  3025.00  3026.76  3026.93
eigval :     3026.95  3027.12  3028.68  3028.81  3029.12  3029.31
eigval :     3031.63  3031.95  3031.99  3032.24  3036.23  3036.31
eigval :     3036.73  3036.78  3045.49  3045.56  3045.98  3046.21
eigval :     3049.13  3049.18  3049.37  3049.48  3059.86  3061.02
eigval :     3071.03  3071.89  3077.30  3077.86  3078.11  3078.64
eigval :     3078.97  3078.99  3081.43  3082.83  3085.75  3086.20
eigval :     3088.62  3089.55  3092.87  3093.05  3094.78  3094.91
eigval :     3095.15  3095.62  3097.97  3098.71  3101.28  3120.63
eigval :     3121.62  3122.95  3123.06

   temp. (K)  partition function   enthalpy   heat capacity  entropy
                                   cal/mol     cal/K/mol   cal/K/mol   J/K/mol
 298.15  VIB  0.147E+32            41281.844    255.776    254.873
         ROT  0.233E+09              888.752      2.981     41.271
         INT  0.342E+40            42170.597    258.757    296.144
         TR   0.301E+29             1481.254      4.968     46.525
         TOT                       43651.8506   263.7255   342.6694  1433.7288

       T/K    H(0)-H(T)+PV         H(T)/Eh          T*S/Eh         G(T)/Eh
   ------------------------------------------------------------------------
    298.15    0.695637E-01    0.121712E+01    0.162813E+00    0.105431E+01
   ------------------------------------------------------------------------

         :::::::::::::::::::::::::::::::::::::::::::::::::::::
         ::                  THERMODYNAMIC                  ::
         :::::::::::::::::::::::::::::::::::::::::::::::::::::
         :: total free energy        -199.030024845768 Eh   ::
         ::.................................................::
         :: total energy             -200.084333174743 Eh   ::
         :: zero point energy           1.147557972881 Eh   ::
         :: G(RRHO) w/o ZPVE           -0.093249643907 Eh   ::
         :: G(RRHO) contrib.            1.054308328974 Eh   ::
         :::::::::::::::::::::::::::::::::::::::::::::::::::::

           -------------------------------------------------
          | TOTAL ENERGY             -200.084333174743 Eh   |
          | TOTAL ENTHALPY           -198.867211550060 Eh   |
          | TOTAL FREE ENERGY        -199.030024845768 Eh   |
          | GRADIENT NORM               0.000051780998 Eh/α |
          | HOMO-LUMO GAP               1.981982507520 eV   |
           -------------------------------------------------

 * finished run on 2025/09/07 at 17:18:44.111
