   * xtb version 6.7.1 (edcfbbe) compiled by 'albert@albert-system' on 2024-07-22

   ID    Z sym.   atoms
    1    6 C      1-20, 22, 23, 25-38, 40-52, 54-75
    2    7 N      21, 24, 39, 53, 76
    3    1 H      77-141

          program call               : xtb data2507/toluene/2Cz2tCzBn/2Cz2tCzBn_toluene_S0_finalOpt.xtbopt.xyz --gfn 2 --uhf 2 --gbsa toluene --ohess vtight --parallel 40 --molden --ceasefiles --namespace data2507/toluene/2Cz2tCzBn/2Cz2tCzBn_toluene_T1_preOpt
      * Solvation model:               GBSA
        Solvent                        toluene
        Solvent mass                       9.2140E+01 g/mol
          :  Hamiltonian                  GFN2-xTB          :
 * total energy  :  -199.9944886 Eh     change       -0.7632337E-08 Eh
 * total energy  :  -199.9978055 Eh     change       -0.3316886E-02 Eh
 * total energy  :  -199.9992007 Eh     change       -0.1395120E-02 Eh
 * total energy  :  -199.9993065 Eh     change       -0.1058216E-03 Eh
 * total energy  :  -199.9993779 Eh     change       -0.7145594E-04 Eh
 * total energy  :  -199.9993966 Eh     change       -0.1866994E-04 Eh
 * total energy  :  -199.9994220 Eh     change       -0.2538046E-04 Eh
 * total energy  :  -199.9994308 Eh     change       -0.8817543E-05 Eh
 * total energy  :  -199.9994269 Eh     change        0.3932271E-05 Eh
 * total energy  :  -199.9994341 Eh     change       -0.7219513E-05 Eh
 * total energy  :  -199.9994952 Eh     change       -0.9909096E-06 Eh
 * total energy  :  -199.9994960 Eh     change       -0.8506672E-06 Eh
 * total energy  :  -199.9994967 Eh     change       -0.6378282E-06 Eh
 * total energy  :  -199.9994972 Eh     change       -0.5048771E-06 Eh
 * total energy  :  -199.9994977 Eh     change       -0.5349415E-06 Eh
 * total energy  :  -199.9994984 Eh     change       -0.6607282E-06 Eh
 * total energy  :  -199.9994990 Eh     change       -0.6777362E-06 Eh
 * total energy  :  -199.9994997 Eh     change       -0.6681460E-06 Eh
 * total energy  :  -199.9994997 Eh     change       -0.2554771E-08 Eh
   *** GEOMETRY OPTIMIZATION CONVERGED AFTER 44 ITERATIONS ***

 final structure:
================
141
 xtb: 6.7.1 (edcfbbe)
C            7.52865511037714       -3.05717367614679        1.76284102298727
C            7.09983780946259       -1.87350931923733        2.64351714784353
C            8.26301699113934       -0.87861975550920        2.70298632276300
C            6.81606109417485       -2.36270668525889        4.07190948028409
C            5.83482746333208       -1.26109832607815        2.06226371960926
C            4.69240189738469       -2.06184900534074        1.92896812745648
C            3.51432425745359       -1.59757711439298        1.38060188470913
C            3.47729108960405       -0.28595556630626        0.93223392948008
C            4.59017861445833        0.56231666110218        1.11783268106317
C            5.76203997737963        0.07049835555731        1.66898758563020
C            4.19066701283857        1.86179703534890        0.64288152801297
C            4.84337402821982        3.08033907291648        0.55609557870897
C            4.18694758298928        4.17903829462492        0.01340980855027
C            4.84019676936993        5.54751412369495       -0.10281492708074
C            4.91761487337506        5.94270972576499       -1.58564034607154
C            3.99454576205476        6.57423157261791        0.66619804995436
C            6.25929320294511        5.57478342724972        0.47295474022469
C            2.87545135820487        4.01206906465705       -0.45290258364223
C            2.20531672578010        2.80876671563863       -0.38310697401372
C            2.86076720733812        1.72694136529107        0.18643141826612
N            2.44781489117620        0.42138163170042        0.34591342080157
C            1.24181378766482       -0.11874926578879       -0.10863641911357
C            1.22494099717289       -1.23143298922497       -0.93460288140060
N            2.42388017750166       -1.76867298760247       -1.42633375492446
C            2.83910243264560       -3.07591841165034       -1.27300218904060
C            2.17495167816050       -4.15127123166230       -0.70016341330502
C            2.83365010428528       -5.36488324633045       -0.64350877012922
C            4.12848956538347       -5.50930324876380       -1.13647782484364
C            4.80233952809015       -4.43784560579610       -1.69285564199317
C            4.15980495705876       -3.21003274900850       -1.76126445700236
C            4.54734692792134       -1.91390967156296       -2.24746808008149
C            5.69739050927525       -1.42060502807946       -2.84626766409233
C            5.72184336773132       -0.09622175145939       -3.24291546159001
C            4.60727685887047        0.72223641904474       -3.07865858896575
C            3.45194320010447        0.25279372445518       -2.48284791264838
C            3.44118435822003       -1.05956441750229       -2.03318534487701
C            0.00778928244862       -1.81718898682682       -1.33573233492117
C           -1.21046809553095       -1.23220452806687       -0.93756461522704
N           -2.40770321129924       -1.77082644806802       -1.43222245986580
C           -3.42560436214747       -1.06320485074573       -2.03979709105789
C           -3.43892207279530        0.24979909274857       -2.48760069674264
C           -4.59515384490453        0.71779876362936       -3.08276123472617
C           -5.70792421345532       -0.10268629303720       -3.24903562126997
C           -5.68057415951642       -1.42774945734389       -2.85499863752437
C           -4.52982252267112       -1.91952180674169       -2.25623540378372
C           -4.14038852411914       -3.21531420605688       -1.77074459817117
C           -4.78069308779442       -4.44442151869703       -1.70426485502490
C           -4.10587239716611       -5.51490332173789       -1.14724447226864
C           -2.81225755643648       -5.36823645542944       -0.65173821216568
C           -2.15575155582103       -4.15335946480630       -0.70660468018181
C           -2.82077093176129       -3.07899322069686       -1.28026977774481
C           -1.23006923218560       -0.11943268283025       -0.11153780394289
N           -2.43720236231297        0.42092040869142        0.33935916257913
C           -3.47041950518818       -0.28654094137584        0.91841581140449
C           -3.50946801963000       -1.59838110691121        1.36656997773471
C           -4.69009121484273       -2.06310926093587        1.90858449145734
C           -5.83381018008068       -1.26295045115829        2.03567815269955
C           -7.10077552293329       -1.87548139842353        2.61235443765603
C           -7.52543949479569       -3.06055846317465        1.73160097699685
C           -6.82214132227381       -2.36269505431314        4.04248577998406
C           -8.26485055667373       -0.88131133233117        2.66615739657887
C           -5.75966936705589        0.06844679199442        1.64189547762412
C           -4.58519731613165        0.56079519915020        1.09737841024057
C           -4.18284042180257        1.86130379269892        0.62656613660083
C           -4.82810087252915        3.07984595988992        0.53536581204979
C           -4.16470980422373        4.18474582323388        0.00340047854232
C           -4.89307289627766        5.51818756792643       -0.06900023054337
C           -5.31660091986544        5.93082673752286        1.34926940841251
C           -6.13672240019468        5.36255775483228       -0.95793667266131
C           -4.02771082948707        6.64006497131312       -0.65072957030005
C           -2.85312443279016        4.02010925462893       -0.45098842243109
C           -2.18872488745444        2.80983740557636       -0.38009777132176
C           -2.84826083581401        1.72754506033331        0.17934883301134
C            0.00538314698999        0.47011124870836        0.34364096535238
C            0.00446551112207        1.42796053787652        1.33139435083978
N            0.00411143557196        2.25222058648357        2.15546879522680
H            8.45299937443575       -3.48793396670427        2.14179324913494
H            7.69470008201198       -2.72232599824746        0.74085021002634
H            6.77130593330254       -3.83576244990845        1.74725307473539
H            9.14242892745033       -1.37521668867496        3.10805326098782
H            8.02624538414780       -0.03732176435794        3.35027839199784
H            8.51232757976909       -0.50931985649886        1.71087573196546
H            6.48249095984525       -1.53430703247720        4.69395605841845
H            7.72038289525124       -2.78089361215575        4.50869706448158
H            6.04607911757501       -3.12903636035235        4.08416455058856
H            4.71906393021442       -3.08634998480963        2.26578981346762
H            2.64722601306110       -2.23758530727511        1.31796043169785
H            6.59922800844314        0.73749127212925        1.78518964758684
H            5.85727791579822        3.15090336750182        0.91159137170309
H            5.39104263764978        6.91689299204868       -1.68696791000024
H            5.50583708344825        5.21297410411787       -2.13857594982391
H            3.92963990323079        5.99571590949429       -2.03444182713107
H            2.99309659773466        6.65666457135263        0.25337180078407
H            4.46425826993714        7.55438197801297        0.61892071858512
H            3.90674707168969        6.28167817966549        1.71077279024296
H            6.91346894965077        4.89120474036348       -0.06319544174721
H            6.66919152548198        6.57786760110422        0.37443771940241
H            6.25680714390685        5.31529658678810        1.52911743252246
H            2.35680116496421        4.85127608951477       -0.88969843374332
H            1.19743275347374        2.71948166149986       -0.75892725144518
H            1.17757935033116       -4.04118537458166       -0.30322704362502
H            2.33503115215913       -6.21682110916484       -0.20508535686723
H            4.61163382152840       -6.47317677341995       -1.07594429661881
H            5.81052633769208       -4.54926625340646       -2.06186240403790
H            6.55090156243262       -2.06225737591237       -3.00457025446593
H            6.60975868247512        0.30811824080717       -3.70565257862807
H            4.64163068511534        1.74394347610639       -3.42636108227450
H            2.58384624506755        0.88657691453360       -2.38423383170468
H            0.00895134148067       -2.62157203365379       -2.05063869363064
H           -2.57215675685778        0.88525578608109       -2.38759351654800
H           -4.63204518266468        1.74018835450601       -3.42816774337900
H           -6.59656465920058        0.30086166745838       -3.71099956066804
H           -6.53252149732873       -2.07109146155425       -3.01486477763661
H           -5.78799289146591       -4.55752266110487       -2.07518036358245
H           -4.58728576138635       -6.47973366646840       -1.08812195541833
H           -2.31283854579242       -6.21939170133837       -0.21269917972647
H           -1.15938178986366       -4.04159823815411       -0.30763884772510
H           -2.64157294733614       -2.23774590823473        1.30900828006057
H           -4.71796417504144       -3.08742080096964        2.24583216451281
H           -7.68878961484414       -2.72700632457727        0.70876608151497
H           -6.76718016311191       -3.83830316613182        1.71922256752360
H           -8.45043281043052       -3.49193843602556        2.10823174616159
H           -7.72809990290145       -2.78009634706766        4.47660277484516
H           -6.49062080184055       -1.53350499616240        4.66457887426599
H           -6.05237616747568       -3.12915542745422        4.05856853006726
H           -9.14555383746553       -1.37813245433077        3.06811299451596
H           -8.51041874694170       -0.51313555834529        1.67267644051495
H           -8.03128428144523       -0.03929471225972        3.31372096827238
H           -6.59798432098286        0.73484234769672        1.75343438461940
H           -5.84737128203836        3.15939383860869        0.87868974072319
H           -6.00371800724031        5.21121803086257        1.78518257934783
H           -4.44375326894132        6.00255636670070        1.99537824813776
H           -5.80946653247776        6.90031721950856        1.32396812045563
H           -5.84610747009730        5.05859139248656       -1.96156534754950
H           -6.66750286871184        6.30982143296788       -1.02389937733824
H           -6.81821641216778        4.61611012922469       -0.55999770271625
H           -3.13772401792631        6.80054589014945       -0.04635210712218
H           -4.59821957482399        7.56659939149412       -0.66120721801617
H           -3.73120779064473        6.41826929997005       -1.67346664813918
H           -2.32187834684901        4.85408110670119       -0.87793470531636
H           -1.17804975139183        2.72075778192508       -0.74831782009905

          :  Hamiltonian                  GFN2-xTB          :
         :: gradient norm              0.000076452500 Eh/a0 ::
         :: HOMO-LUMO gap              0.243899349165 eV    ::
         :: SCC energy              -203.579900286052 Eh    ::
         :: -> dispersion             -0.219230002213 Eh    ::
         :: -> Gsolv                  -0.079737403699 Eh    ::
         :: repulsion energy           3.580400567718 Eh    ::

    * Orbital Energies and Occupations

         #    Occupation            Energy/Eh            Energy/eV
      -------------------------------------------------------------
         1        2.0000           -0.6846978             -18.6316
       ...           ...                  ...                  ...
       176        2.0000           -0.4036845             -10.9848
       177        2.0000           -0.4031675             -10.9707
       178        2.0000           -0.3959125             -10.7733
       179        2.0000           -0.3941969             -10.7266
       180        2.0000           -0.3868912             -10.5278
       181        2.0000           -0.3866983             -10.5226
       182        2.0000           -0.3818330             -10.3902
       183        2.0000           -0.3809249             -10.3655
       184        2.0000           -0.3731463             -10.1538
       185        2.0000           -0.3728566             -10.1459
       186        1.7253           -0.3634516              -9.8900
       187        1.2748           -0.3616072              -9.8398
       188        0.9908           -0.2637618              -7.1773 (HOMO)
       189        0.0086           -0.2547986              -6.9334 (LUMO)
       190        0.0005           -0.2521284              -6.8608
       191        0.0001           -0.2500416              -6.8040
       192        0.0000           -0.2486938              -6.7673
       193                         -0.2387215              -6.4959
       194                         -0.2319283              -6.3111
       195                         -0.2315557              -6.3010
       196                         -0.2252145              -6.1284
       197                         -0.2246445              -6.1129
       198                         -0.2062858              -5.6133
       199                         -0.2016389              -5.4869
       ...                                ...                  ...
       369                          1.1632212              31.6529
      -------------------------------------------------------------
                  HL-Gap            0.0089631 Eh            0.2439 eV

     #   Z          covCN         q      C6AA      α(0)
     1   6 C        3.761    -0.106    22.572     6.773
     2   6 C        3.903     0.026    20.076     6.369
     3   6 C        3.761    -0.110    22.641     6.783
     4   6 C        3.761    -0.106    22.577     6.773
     5   6 C        2.973     0.007    27.850     8.656
     6   6 C        2.930    -0.039    28.975     8.828
     7   6 C        2.908    -0.046    29.152     8.853
     8   6 C        3.084     0.049    26.815     8.489
     9   6 C        3.064    -0.018    28.403     8.739
    10   6 C        2.917    -0.041    29.025     8.835
    11   6 C        3.066    -0.017    28.368     8.734
    12   6 C        2.917    -0.041    29.022     8.834
    13   6 C        2.973     0.009    27.816     8.651
    14   6 C        3.903     0.027    20.070     6.368
    15   6 C        3.761    -0.106    22.576     6.773
    16   6 C        3.761    -0.106    22.570     6.772
    17   6 C        3.761    -0.110    22.645     6.784
    18   6 C        2.929    -0.038    28.944     8.823
    19   6 C        2.908    -0.040    28.982     8.828
    20   6 C        3.081     0.054    26.711     8.473
    21   7 N        2.800    -0.031    21.837     6.940
    22   6 C        2.911     0.034    27.247     8.559
    23   6 C        2.903     0.044    27.011     8.522
    24   7 N        2.802    -0.038    21.978     6.963
    25   6 C        3.077     0.051    26.769     8.483
    26   6 C        2.910    -0.046    29.143     8.852
    27   6 C        2.923    -0.034    28.838     8.806
    28   6 C        2.920    -0.038    28.943     8.822
    29   6 C        2.912    -0.032    28.791     8.799
    30   6 C        3.067    -0.015    28.319     8.726
    31   6 C        3.067    -0.017    28.362     8.733
    32   6 C        2.912    -0.033    28.819     8.803
    33   6 C        2.920    -0.038    28.952     8.824
    34   6 C        2.923    -0.034    28.837     8.806
    35   6 C        2.910    -0.047    29.158     8.854
    36   6 C        3.078     0.050    26.788     8.486
    37   6 C        2.917    -0.108    30.738     9.092
    38   6 C        2.903     0.044    27.010     8.522
    39   7 N        2.802    -0.038    21.983     6.964
    40   6 C        3.078     0.050    26.789     8.486
    41   6 C        2.910    -0.047    29.160     8.855
    42   6 C        2.924    -0.033    28.834     8.806
    43   6 C        2.920    -0.038    28.952     8.824
    44   6 C        2.912    -0.033    28.819     8.803
    45   6 C        3.067    -0.017    28.363     8.733
    46   6 C        3.067    -0.015    28.321     8.726
    47   6 C        2.912    -0.032    28.792     8.799
    48   6 C        2.920    -0.038    28.944     8.822
    49   6 C        2.923    -0.034    28.838     8.806
    50   6 C        2.910    -0.046    29.145     8.852
    51   6 C        3.077     0.051    26.770     8.483
    52   6 C        2.911     0.033    27.255     8.561
    53   7 N        2.800    -0.030    21.830     6.939
    54   6 C        3.083     0.049    26.805     8.487
    55   6 C        2.908    -0.046    29.151     8.853
    56   6 C        2.930    -0.039    28.969     8.827
    57   6 C        2.973     0.008    27.845     8.656
    58   6 C        3.903     0.026    20.075     6.369
    59   6 C        3.761    -0.106    22.574     6.773
    60   6 C        3.761    -0.106    22.578     6.774
    61   6 C        3.761    -0.109    22.639     6.783
    62   6 C        2.917    -0.041    29.022     8.834
    63   6 C        3.063    -0.018    28.395     8.738
    64   6 C        3.065    -0.017    28.362     8.733
    65   6 C        2.919    -0.037    28.909     8.817
    66   6 C        2.972     0.009    27.812     8.651
    67   6 C        3.903     0.027    20.069     6.368
    68   6 C        3.762    -0.107    22.582     6.774
    69   6 C        3.761    -0.107    22.584     6.774
    70   6 C        3.761    -0.109    22.627     6.781
    71   6 C        2.927    -0.042    29.049     8.839
    72   6 C        2.909    -0.039    28.978     8.827
    73   6 C        3.080     0.054    26.712     8.473
    74   6 C        2.962    -0.059    29.466     8.904
    75   6 C        1.908     0.101    28.598     8.637
    76   7 N        0.911    -0.403    30.454     7.981
    77   1 H        0.925     0.043     2.409     2.427
    78   1 H        0.925     0.035     2.520     2.483
    79   1 H        0.925     0.037     2.484     2.465
    80   1 H        0.925     0.041     2.433     2.439
    81   1 H        0.925     0.038     2.478     2.462
    82   1 H        0.925     0.039     2.467     2.456
    83   1 H        0.925     0.034     2.532     2.488
    84   1 H        0.925     0.043     2.409     2.427
    85   1 H        0.925     0.037     2.488     2.467
    86   1 H        0.926     0.038     2.473     2.459
    87   1 H        0.926     0.025     2.661     2.551
    88   1 H        0.926     0.050     2.315     2.379
    89   1 H        0.926     0.051     2.305     2.374
    90   1 H        0.925     0.043     2.405     2.425
    91   1 H        0.925     0.035     2.515     2.480
    92   1 H        0.925     0.037     2.483     2.464
    93   1 H        0.925     0.037     2.487     2.466
    94   1 H        0.925     0.043     2.409     2.427
    95   1 H        0.925     0.034     2.534     2.490
    96   1 H        0.925     0.039     2.461     2.453
    97   1 H        0.925     0.041     2.429     2.437
    98   1 H        0.925     0.038     2.477     2.461
    99   1 H        0.926     0.039     2.458     2.452
   100   1 H        0.926     0.020     2.729     2.583
   101   1 H        0.926     0.029     2.596     2.520
   102   1 H        0.926     0.036     2.501     2.473
   103   1 H        0.926     0.036     2.497     2.471
   104   1 H        0.926     0.039     2.467     2.456
   105   1 H        0.926     0.039     2.467     2.456
   106   1 H        0.926     0.037     2.495     2.470
   107   1 H        0.926     0.034     2.528     2.486
   108   1 H        0.926     0.023     2.688     2.564
   109   1 H        0.926     0.033     2.545     2.495
   110   1 H        0.926     0.023     2.692     2.566
   111   1 H        0.926     0.034     2.532     2.488
   112   1 H        0.926     0.037     2.490     2.468
   113   1 H        0.926     0.039     2.468     2.456
   114   1 H        0.926     0.039     2.468     2.456
   115   1 H        0.926     0.036     2.497     2.471
   116   1 H        0.926     0.036     2.502     2.473
   117   1 H        0.926     0.029     2.597     2.520
   118   1 H        0.926     0.025     2.656     2.549
   119   1 H        0.926     0.039     2.468     2.457
   120   1 H        0.925     0.035     2.519     2.482
   121   1 H        0.925     0.038     2.482     2.464
   122   1 H        0.925     0.043     2.408     2.426
   123   1 H        0.925     0.043     2.407     2.426
   124   1 H        0.925     0.034     2.531     2.488
   125   1 H        0.925     0.037     2.486     2.466
   126   1 H        0.925     0.041     2.432     2.439
   127   1 H        0.925     0.039     2.469     2.457
   128   1 H        0.925     0.038     2.480     2.463
   129   1 H        0.926     0.050     2.323     2.383
   130   1 H        0.926     0.045     2.389     2.417
   131   1 H        0.925     0.039     2.460     2.453
   132   1 H        0.925     0.034     2.536     2.490
   133   1 H        0.925     0.043     2.406     2.426
   134   1 H        0.925     0.035     2.523     2.484
   135   1 H        0.925     0.044     2.402     2.424
   136   1 H        0.925     0.040     2.453     2.449
   137   1 H        0.925     0.037     2.492     2.469
   138   1 H        0.925     0.042     2.427     2.436
   139   1 H        0.925     0.037     2.486     2.466
   140   1 H        0.926     0.046     2.366     2.405
   141   1 H        0.926     0.021     2.722     2.580

molecular dipole:
                 x           y           z       tot (Debye)
 q only:       -0.044      -0.556      -0.829
   full:       -0.055      -0.873      -1.100       3.573

 projected vibrational frequencies (cm⁻¹)
eigval :       -0.00    -0.00    -0.00     0.00     0.00     0.00
eigval :        8.41    12.06    17.40    18.10    24.42    30.16
eigval :       31.66    32.55    35.87    37.49    38.85    39.47
eigval :       42.73    47.17    52.59    57.27    64.82    68.59
eigval :       76.64    77.76    82.12    85.99    87.31    98.19
eigval :      106.78   107.00   117.18   119.60   122.22   130.44
eigval :      131.74   144.86   150.51   153.24   163.85   167.61
eigval :      178.55   180.18   181.80   186.54   192.14   196.43
eigval :      201.75   204.29   206.40   218.51   222.06   225.34
eigval :      227.09   232.18   235.85   237.20   243.56   248.62
eigval :      257.63   264.93   271.87   273.53   280.28   284.59
eigval :      288.12   297.11   305.90   313.94   319.59   320.24
eigval :      324.25   325.45   325.88   332.07   336.14   340.94
eigval :      343.63   348.02   353.71   356.58   374.45   376.60
eigval :      379.84   390.92   393.69   395.98   398.86   401.88
eigval :      403.72   404.56   406.25   416.11   423.91   424.41
eigval :      435.82   437.35   441.32   442.88   443.86   444.54
eigval :      453.55   455.83   464.36   465.60   466.38   471.63
eigval :      487.39   503.65   509.94   511.69   517.32   517.40
eigval :      522.77   529.29   538.55   538.95   539.41   550.02
eigval :      551.86   567.00   578.61   584.56   585.50   586.84
eigval :      589.23   590.54   596.03   608.63   623.21   634.61
eigval :      638.59   640.66   640.90   647.29   655.81   671.95
eigval :      673.38   679.75   688.20   691.16   703.93   704.65
eigval :      706.61   707.29   709.17   712.34   716.12   717.87
eigval :      732.66   753.49   755.08   764.96   768.24   771.51
eigval :      776.19   778.66   802.97   813.84   825.30   825.64
eigval :      827.88   830.73   831.44   854.62   862.49   863.19
eigval :      867.51   867.62   870.40   871.25   872.51   872.79
eigval :      873.39   890.11   894.65   894.87   897.22   899.18
eigval :      901.74   901.97   903.51   907.43   916.18   916.62
eigval :      917.94   919.52   919.81   920.62   921.39   921.94
eigval :      926.51   932.95   959.51   959.57   959.84   959.89
eigval :      961.10   961.71   962.22   962.26   963.06   963.71
eigval :      965.15   965.38   972.71   997.39  1008.11  1013.45
eigval :     1026.34  1030.50  1033.38  1033.41  1034.13  1034.17
eigval :     1034.24  1035.41  1036.10  1039.55  1041.12  1063.18
eigval :     1067.26  1067.31  1070.89  1074.12  1106.37  1116.38
eigval :     1125.06  1126.34  1131.97  1134.86  1141.15  1141.85
eigval :     1146.05  1157.23  1160.60  1164.50  1173.15  1176.36
eigval :     1178.24  1179.00  1199.43  1200.29  1209.00  1221.28
eigval :     1223.11  1223.25  1224.03  1224.07  1224.70  1226.25
eigval :     1226.77  1227.97  1228.36  1229.07  1230.56  1232.08
eigval :     1232.92  1239.53  1250.71  1252.33  1253.98  1276.30
eigval :     1277.48  1285.35  1286.42  1287.10  1288.58  1291.24
eigval :     1291.96  1294.18  1297.73  1321.71  1323.95  1334.08
eigval :     1335.21  1346.21  1350.73  1351.84  1353.01  1355.15
eigval :     1358.98  1359.80  1364.85  1377.03  1388.54  1398.93
eigval :     1399.33  1400.62  1400.79  1401.74  1401.81  1401.87
eigval :     1402.33  1408.82  1409.69  1416.74  1418.95  1419.34
eigval :     1426.00  1426.13  1426.22  1426.39  1430.39  1430.78
eigval :     1439.33  1455.86  1458.42  1461.95  1464.88  1469.87
eigval :     1473.22  1477.57  1479.04  1483.17  1483.89  1486.87
eigval :     1487.04  1487.72  1487.72  1490.74  1490.90  1491.99
eigval :     1492.15  1497.50  1497.73  1497.91  1497.97  1499.96
eigval :     1500.81  1500.92  1501.01  1510.35  1510.83  1511.36
eigval :     1511.49  1516.01  1516.27  1517.07  1517.52  1557.67
eigval :     1558.89  1567.40  1568.13  1568.32  1569.96  1572.93
eigval :     1573.61  1580.37  1583.20  1586.46  1586.85  1590.01
eigval :     1593.54  1594.96  1602.22  2221.60  3022.14  3022.40
eigval :     3022.43  3022.76  3023.19  3023.46  3023.47  3024.24
eigval :     3026.01  3026.15  3026.22  3026.51  3027.69  3028.07
eigval :     3028.25  3028.56  3029.61  3029.86  3030.16  3030.34
eigval :     3032.61  3033.26  3033.32  3033.43  3037.24  3037.78
eigval :     3037.87  3037.98  3045.51  3046.45  3046.69  3047.01
eigval :     3049.45  3050.03  3050.28  3050.44  3076.54  3076.84
eigval :     3078.80  3078.82  3080.47  3082.57  3082.73  3083.04
eigval :     3083.44  3083.59  3083.85  3084.04  3089.69  3089.81
eigval :     3090.82  3090.84  3096.04  3096.21  3096.65  3096.76
eigval :     3097.31  3097.92  3098.29  3098.87  3121.60  3122.07
eigval :     3123.09  3124.34  3124.90

   temp. (K)  partition function   enthalpy   heat capacity  entropy
                                   cal/mol     cal/K/mol   cal/K/mol   J/K/mol
 298.15  VIB  0.130E+32            41592.288    258.283    256.858
         ROT  0.232E+09              888.752      2.981     41.263
         INT  0.301E+40            42481.040    261.264    298.121
         TR   0.301E+29             1481.254      4.968     46.525
         TOT                       43962.2943   266.2317   344.6462  1441.9996

       T/K    H(0)-H(T)+PV         H(T)/Eh          T*S/Eh         G(T)/Eh
   ------------------------------------------------------------------------
    298.15    0.700584E-01    0.121276E+01    0.163753E+00    0.104901E+01
   ------------------------------------------------------------------------

         :::::::::::::::::::::::::::::::::::::::::::::::::::::
         ::                  THERMODYNAMIC                  ::
         :::::::::::::::::::::::::::::::::::::::::::::::::::::
         :: total free energy        -198.950487255913 Eh   ::
         ::.................................................::
         :: total energy             -199.999499720230 Eh   ::
         :: zero point energy           1.142706612945 Eh   ::
         :: G(RRHO) w/o ZPVE           -0.093694148628 Eh   ::
         :: G(RRHO) contrib.            1.049012464317 Eh   ::
         :::::::::::::::::::::::::::::::::::::::::::::::::::::

           -------------------------------------------------
          | TOTAL ENERGY             -199.999499720230 Eh   |
          | TOTAL ENTHALPY           -198.786734731935 Eh   |
          | TOTAL FREE ENERGY        -198.950487255913 Eh   |
          | GRADIENT NORM               0.000073964931 Eh/α |
          | HOMO-LUMO GAP               0.243899129534 eV   |
           -------------------------------------------------

 * finished run on 2025/09/07 at 17:50:53.599
