   * xtb version 6.7.1 (edcfbbe) compiled by 'albert@albert-system' on 2024-07-22

   ID    Z sym.   atoms
    1    6 C      1-20, 22, 23, 25-38, 40-52, 54-75
    2    7 N      21, 24, 39, 53, 76
    3    1 H      77-141

          program call               : xtb data2507/toluene/2Cz2tCzBn/2Cz2tCzBn_toluene_T1_crest.xyz --gfn 2 --uhf 2 --gbsa toluene --ohess vtight --parallel 40 --molden --ceasefiles --namespace data2507/toluene/2Cz2tCzBn/2Cz2tCzBn_toluene_T1_finalOpt
      * Solvation model:               GBSA
        Solvent                        toluene
        Solvent mass                       9.2140E+01 g/mol
          :  Hamiltonian                  GFN2-xTB          :
 * total energy  :  -199.9960058 Eh     change       -0.1673413E-07 Eh
 * total energy  :  -199.9962179 Eh     change       -0.2121456E-03 Eh
 * total energy  :  -199.9963746 Eh     change       -0.1567003E-03 Eh
 * total energy  :  -199.9964641 Eh     change       -0.8951702E-04 Eh
 * total energy  :  -199.9965900 Eh     change       -0.1258644E-03 Eh
 * total energy  :  -199.9967476 Eh     change       -0.1576405E-03 Eh
 * total energy  :  -199.9969082 Eh     change       -0.1605643E-03 Eh
 * total energy  :  -199.9970788 Eh     change       -0.1706145E-03 Eh
 * total energy  :  -199.9972854 Eh     change       -0.2065651E-03 Eh
 * total energy  :  -199.9975199 Eh     change       -0.2345174E-03 Eh
 * total energy  :  -199.9996161 Eh     change       -0.1391235E-05 Eh
 * total energy  :  -199.9996175 Eh     change       -0.1347153E-05 Eh
 * total energy  :  -199.9996187 Eh     change       -0.1244973E-05 Eh
 * total energy  :  -199.9996198 Eh     change       -0.1097225E-05 Eh
 * total energy  :  -199.9996207 Eh     change       -0.9105356E-06 Eh
 * total energy  :  -199.9996215 Eh     change       -0.7794426E-06 Eh
 * total energy  :  -199.9996221 Eh     change       -0.6560705E-06 Eh
 * total energy  :  -199.9996229 Eh     change       -0.7949527E-06 Eh
 * total energy  :  -199.9996229 Eh     change       -0.4644534E-08 Eh
   *** GEOMETRY OPTIMIZATION CONVERGED AFTER 68 ITERATIONS ***

 final structure:
================
141
 xtb: 6.7.1 (edcfbbe)
C            6.76874689849501       -2.53531868813528        4.02106439516177
C            7.06475049276997       -2.00882267419583        2.60848505305422
C            7.48604950911608       -3.17130389402944        1.69660441327465
C            8.23765084244671       -1.02805814093781        2.70221445022419
C            5.80897774152350       -1.36706428606147        2.03886639713740
C            4.65752135133081       -2.15043788987260        1.88196239182455
C            3.48583869779173       -1.65750384909834        1.34490134800914
C            3.46473778080244       -0.33372716332534        0.93266698399148
C            4.58814515471958        0.49512596767056        1.14003303533421
C            5.75326980110940       -0.02519302081618        1.67923560652158
C            4.20461742747359        1.81157352973082        0.70006372155216
C            4.87472846962370        3.02222255830390        0.64114707568814
C            4.23222268064332        4.14379516021204        0.12959664020425
C            4.90620173325355        5.50446368710559        0.04336297329338
C            6.33633632274353        5.49045276505587        0.59171821506311
C            4.96302546465244        5.94655782116869       -1.42711479389748
C            4.09164746853513        6.51884369665274        0.86071071566640
C            2.91472310895303        4.00867898558921       -0.33027885130222
C            2.22768043926311        2.81349625137091       -0.28926538529325
C            2.87155488106440        1.70665049466936        0.24447745716476
N            2.44311858775524        0.40201066460183        0.36732203851847
C            1.23518027978608       -0.11594024411384       -0.10770944981175
C            1.21694635209435       -1.20430861027230       -0.96597612989062
N            2.41543206618451       -1.72907312111538       -1.47194848439569
C            2.82777935018943       -3.04132559215394       -1.35873482955345
C            2.16020426266540       -4.13308246367577       -0.82199408323336
C            2.81616434144374       -5.34931429638498       -0.80273126343238
C            4.11171377939954       -5.48072050993940       -1.29752875925756
C            4.78887226924549       -4.39356809487131       -1.81832109573118
C            4.14906509712621       -3.16281789502862       -1.84885724310179
C            4.53980681843785       -1.85311324838383       -2.29442643507930
C            5.69145066459198       -1.34382375498878       -2.87654731330947
C            5.71835346168075       -0.00820385527761       -3.23348331384658
C            4.60455197440639        0.80643176363387       -3.04700103984823
C            3.44781025769214        0.32122587614196       -2.46669391949658
C            3.43474901877075       -1.00380447191666       -2.05600290159211
C           -0.00044258437141       -1.77526222564232       -1.38631730161709
C           -1.21776237199539       -1.20142805300638       -0.96992235298157
N           -2.41581951527084       -1.72158022085040       -1.48150683348370
C           -3.43087066553742       -0.99122089354532       -2.06679886052694
C           -3.43889921326720        0.33555578125695       -2.47197821179737
C           -4.59201687760161        0.82621157780602       -3.05493137036104
C           -5.70702708703142        0.01517310075089       -3.24961542743190
C           -5.68499528903917       -1.32199127578892       -2.89816028385809
C           -4.53714018533290       -1.83661769576254       -2.31324270915692
C           -4.15162723548343       -3.14917277488948       -1.87152370482689
C           -4.79487567307091       -4.37829189174739       -1.84883702453332
C           -4.12281528020958       -5.46947669678921       -1.32989333608560
C           -2.82892699921646       -5.34365876201402       -0.82935499565884
C           -2.16956871375141       -4.12916259754324       -0.84087671807514
C           -2.83200807335459       -3.03324769204041       -1.37554935322161
C           -1.23626225929005       -0.11407728047263       -0.11018711384213
N           -2.44439132738644        0.40373771601552        0.36416472607878
C           -3.46758576858697       -0.33327739516694        0.92518367891640
C           -3.49070481287521       -1.65871906310256        1.33187709325961
C           -4.66363727236268       -2.15260697569385        1.86535448224567
C           -5.81435335186958       -1.36855089181681        2.02424214472178
C           -7.07171076866118       -2.01137918984560        2.58913513342269
C           -7.49442126758002       -3.16736343680958        1.66966855784455
C           -6.77785987908435       -2.54724420451632        3.99862712515752
C           -8.24280673925596       -1.02897765127073        2.68815333499319
C           -5.75655827558141       -0.02518932451296        1.67062209454571
C           -4.59015602778510        0.49604773188080        1.13503762171526
C           -4.20426876531697        1.81408329757968        0.70203263233785
C           -4.87223460077022        3.02621861980615        0.64974752751362
C           -4.22720141066683        4.14976534357670        0.14579576374447
C           -4.89733145422705        5.51295465786252        0.07075655523837
C           -4.08399299047727        6.51472907302219        0.90474233768009
C           -6.33056825413942        5.49663003097703        0.61089882245664
C           -4.94487894640636        5.97299084715347       -1.39449266344150
C           -2.90971618423429        4.01497589216600       -0.31422256129829
C           -2.22494137105766        2.81828356748984       -0.28011827976788
C           -2.87090486553515        1.70954741673732        0.24714705159566
C           -0.00053360769257        0.46332299344550        0.35900168816075
C           -0.00026095948962        1.39491247332770        1.37160662963233
N            0.00062687521924        2.19765949807059        2.21656256655386
H            7.66607119077523       -2.97656049332690        4.44951218886521
H            5.98985362238007       -3.29254974325270        4.00834698025044
H            6.44213346938748       -1.72099841376890        4.66502997829578
H            8.40276637219900       -3.62365031750575        2.06889329185271
H            7.66311832528725       -2.80874078172962        0.68599968675830
H            6.71982088538699       -3.94010971396069        1.65334910649785
H            8.49731783476380       -0.63459871620367        1.72214333581160
H            9.10929967052076       -1.54460220484079        3.09903402306036
H            8.00519597029019       -0.20227811139113        3.37072992843962
H            4.67151695568731       -3.18387438203591        2.19110271852551
H            2.61113096224513       -2.28498495483465        1.26384663446679
H            6.59836096182248        0.62827794760272        1.81349467982343
H            5.89132448110905        3.06864733127747        0.99286562503044
H            6.76297292339571        6.48817324112009        0.51147784160740
H            6.34962010383204        5.20320642157687        1.64055028792019
H            6.96694781459296        4.80944049386214        0.02482837726355
H            5.52741895463527        5.22510493388003       -2.01459323216307
H            5.45235496501278        6.91495970337906       -1.50598949679748
H            3.96824112981119        6.03219257115965       -1.85521076029052
H            4.02019241112419        6.19539226400971        1.89737479693040
H            4.57481989800147        7.49319939761616        0.83404504837743
H            3.08349811093098        6.62760364227766        0.47082137102901
H            2.40497184837620        4.86730046274942       -0.73894615122777
H            1.21556004267611        2.74938164654676       -0.65896285302253
H            1.16200641141458       -4.03372834691002       -0.42434239171469
H            2.31493562228280       -6.21381190891768       -0.39281654463628
H            4.59276082612713       -6.44704706961787       -1.26694102911402
H            5.79730842667211       -4.49554745908825       -2.18933495098304
H            6.54429854738912       -1.98163452648520       -3.05283226738774
H            6.60750846079429        0.40843877615384       -3.68266625679209
H            4.64047853373907        1.83768051675931       -3.36496088928057
H            2.58015694544827        0.95271536335721       -2.35080852236341
H           -0.00005608333468       -2.55656152316081       -2.12631299584353
H           -2.57012447883040        0.96434422352611       -2.34997994933827
H           -4.62402720462917        1.85892231202971       -3.36859081212804
H           -6.59321220133235        0.43591412108141       -3.70083720922269
H           -6.53869437627777       -1.95688483168238       -3.08074869420375
H           -5.80205599562326       -4.47592734394917       -2.22439995780074
H           -4.60657949379807       -6.43461138319029       -1.30537969104346
H           -2.33165254573890       -6.21124689407303       -0.42115605153781
H           -1.17258107977374       -4.03448076978801       -0.43912445381934
H           -2.61658344588098       -2.28683989633728        1.24953314049302
H           -4.67925253323728       -3.18736647835032        2.16994808804923
H           -7.67024914784516       -2.79816778030877        0.66124749845074
H           -6.72939031769311       -3.93711401559851        1.62204444983450
H           -8.41212828620790       -3.62050761661546        2.03852807769330
H           -7.67643703076092       -2.98921809774955        4.42367407601649
H           -6.44999956808866       -1.73759890330704        4.64782651649082
H           -6.00062297850098       -3.30608635543429        3.98186723434476
H           -9.11544553013984       -1.54606527805163        3.08208516947410
H           -8.50170679683119       -0.62971092942552        1.71023401428161
H           -8.00885259874295       -0.20725845838997        3.36115279589167
H           -6.60095843563364        0.62877325605553        1.80681195748203
H           -5.88898646529474        3.07234307440031        1.00106783487019
H           -4.01963045804809        6.17866482198690        1.93786439269763
H           -3.07316706846746        6.62402934651313        0.52192908561466
H           -4.56341989259160        7.49112763401208        0.88693646173910
H           -6.95905171580740        4.82173428361152        0.03437660915761
H           -6.75497160146404        6.49580903171400        0.53710802493062
H           -6.35041573098029        5.20020568725268        1.65706028085403
H           -3.94756476605359        6.06363441403948       -1.81553540700204
H           -5.43331421473420        6.94252797393659       -1.46436003489957
H           -5.50595152968935        5.25912375715509       -1.99427553362109
H           -2.39791662603200        4.87518943166412       -0.71691446680422
H           -1.21268314836229        2.75477899200178       -0.64946884680459

          :  Hamiltonian                  GFN2-xTB          :
         :: gradient norm              0.000062840394 Eh/a0 ::
         :: HOMO-LUMO gap              0.242178540310 eV    ::
         :: SCC energy              -203.579869108180 Eh    ::
         :: -> dispersion             -0.219260007350 Eh    ::
         :: -> Gsolv                  -0.079664329780 Eh    ::
         :: repulsion energy           3.580246157368 Eh    ::

    * Orbital Energies and Occupations

         #    Occupation            Energy/Eh            Energy/eV
      -------------------------------------------------------------
         1        2.0000           -0.6847792             -18.6338
       ...           ...                  ...                  ...
       176        2.0000           -0.4038860             -10.9903
       177        2.0000           -0.4036511             -10.9839
       178        2.0000           -0.3961164             -10.7789
       179        2.0000           -0.3941740             -10.7260
       180        2.0000           -0.3868538             -10.5268
       181        2.0000           -0.3868158             -10.5258
       182        2.0000           -0.3811389             -10.3713
       183        2.0000           -0.3809619             -10.3665
       184        2.0000           -0.3732039             -10.1554
       185        2.0000           -0.3730470             -10.1511
       186        1.7370           -0.3636412              -9.8952
       187        1.2630           -0.3616830              -9.8419
       188        0.9905           -0.2638415              -7.1795 (HOMO)
       189        0.0089           -0.2549416              -6.9373 (LUMO)
       190        0.0005           -0.2522412              -6.8638
       191        0.0000           -0.2499594              -6.8017
       192        0.0000           -0.2485811              -6.7642
       193                         -0.2388394              -6.4992
       194                         -0.2317935              -6.3074
       195                         -0.2316467              -6.3034
       196                         -0.2247116              -6.1147
       197                         -0.2247078              -6.1146
       198                         -0.2063669              -5.6155
       199                         -0.2016805              -5.4880
       ...                                ...                  ...
       369                          1.1634046              31.6579
      -------------------------------------------------------------
                  HL-Gap            0.0088999 Eh            0.2422 eV

     #   Z          covCN         q      C6AA      α(0)
     1   6 C        3.761    -0.106    22.578     6.774
     2   6 C        3.903     0.026    20.076     6.369
     3   6 C        3.761    -0.106    22.572     6.773
     4   6 C        3.761    -0.110    22.641     6.783
     5   6 C        2.973     0.007    27.849     8.656
     6   6 C        2.930    -0.039    28.975     8.828
     7   6 C        2.908    -0.046    29.150     8.853
     8   6 C        3.084     0.049    26.815     8.489
     9   6 C        3.064    -0.018    28.404     8.739
    10   6 C        2.917    -0.041    29.025     8.835
    11   6 C        3.066    -0.017    28.365     8.733
    12   6 C        2.917    -0.041    29.022     8.834
    13   6 C        2.973     0.009    27.814     8.651
    14   6 C        3.902     0.027    20.070     6.368
    15   6 C        3.761    -0.110    22.646     6.784
    16   6 C        3.761    -0.106    22.575     6.773
    17   6 C        3.761    -0.106    22.568     6.772
    18   6 C        2.929    -0.038    28.943     8.823
    19   6 C        2.908    -0.039    28.981     8.827
    20   6 C        3.081     0.054    26.712     8.473
    21   7 N        2.800    -0.031    21.838     6.941
    22   6 C        2.911     0.034    27.245     8.559
    23   6 C        2.903     0.044    27.008     8.521
    24   7 N        2.802    -0.038    21.976     6.963
    25   6 C        3.077     0.051    26.770     8.483
    26   6 C        2.910    -0.046    29.141     8.852
    27   6 C        2.923    -0.034    28.837     8.806
    28   6 C        2.920    -0.038    28.941     8.822
    29   6 C        2.912    -0.032    28.791     8.799
    30   6 C        3.067    -0.015    28.318     8.726
    31   6 C        3.067    -0.017    28.362     8.733
    32   6 C        2.912    -0.033    28.818     8.803
    33   6 C        2.920    -0.038    28.951     8.823
    34   6 C        2.924    -0.034    28.836     8.806
    35   6 C        2.910    -0.047    29.156     8.854
    36   6 C        3.078     0.050    26.789     8.486
    37   6 C        2.917    -0.108    30.740     9.092
    38   6 C        2.903     0.044    27.007     8.521
    39   7 N        2.802    -0.038    21.975     6.962
    40   6 C        3.078     0.050    26.789     8.486
    41   6 C        2.910    -0.047    29.156     8.854
    42   6 C        2.924    -0.034    28.836     8.806
    43   6 C        2.920    -0.038    28.951     8.823
    44   6 C        2.912    -0.033    28.818     8.803
    45   6 C        3.067    -0.017    28.362     8.733
    46   6 C        3.067    -0.015    28.318     8.726
    47   6 C        2.912    -0.032    28.791     8.799
    48   6 C        2.920    -0.038    28.941     8.822
    49   6 C        2.923    -0.034    28.837     8.806
    50   6 C        2.910    -0.046    29.141     8.852
    51   6 C        3.077     0.051    26.770     8.483
    52   6 C        2.911     0.034    27.246     8.559
    53   7 N        2.800    -0.031    21.836     6.940
    54   6 C        3.084     0.049    26.816     8.489
    55   6 C        2.908    -0.046    29.150     8.853
    56   6 C        2.930    -0.039    28.976     8.828
    57   6 C        2.973     0.007    27.849     8.656
    58   6 C        3.903     0.026    20.076     6.369
    59   6 C        3.761    -0.106    22.572     6.773
    60   6 C        3.761    -0.106    22.578     6.774
    61   6 C        3.761    -0.110    22.641     6.783
    62   6 C        2.917    -0.041    29.025     8.835
    63   6 C        3.064    -0.018    28.404     8.739
    64   6 C        3.066    -0.017    28.366     8.733
    65   6 C        2.917    -0.041    29.023     8.834
    66   6 C        2.973     0.009    27.813     8.651
    67   6 C        3.903     0.027    20.070     6.368
    68   6 C        3.761    -0.106    22.568     6.772
    69   6 C        3.761    -0.110    22.646     6.784
    70   6 C        3.761    -0.106    22.576     6.773
    71   6 C        2.929    -0.038    28.943     8.823
    72   6 C        2.908    -0.039    28.979     8.827
    73   6 C        3.081     0.054    26.713     8.473
    74   6 C        2.962    -0.059    29.471     8.904
    75   6 C        1.908     0.101    28.600     8.637
    76   7 N        0.911    -0.403    30.445     7.980
    77   1 H        0.925     0.043     2.409     2.427
    78   1 H        0.925     0.037     2.488     2.467
    79   1 H        0.925     0.034     2.532     2.488
    80   1 H        0.925     0.043     2.409     2.427
    81   1 H        0.925     0.035     2.520     2.482
    82   1 H        0.925     0.037     2.484     2.465
    83   1 H        0.925     0.039     2.467     2.456
    84   1 H        0.925     0.041     2.433     2.439
    85   1 H        0.925     0.038     2.478     2.462
    86   1 H        0.926     0.038     2.472     2.459
    87   1 H        0.926     0.025     2.661     2.551
    88   1 H        0.926     0.050     2.314     2.379
    89   1 H        0.926     0.051     2.303     2.373
    90   1 H        0.925     0.042     2.428     2.437
    91   1 H        0.925     0.038     2.475     2.460
    92   1 H        0.925     0.039     2.460     2.453
    93   1 H        0.925     0.035     2.515     2.480
    94   1 H        0.925     0.043     2.406     2.426
    95   1 H        0.925     0.037     2.485     2.465
    96   1 H        0.925     0.034     2.533     2.489
    97   1 H        0.925     0.043     2.407     2.426
    98   1 H        0.925     0.037     2.490     2.467
    99   1 H        0.926     0.039     2.462     2.454
   100   1 H        0.926     0.020     2.730     2.584
   101   1 H        0.926     0.029     2.596     2.519
   102   1 H        0.926     0.036     2.499     2.472
   103   1 H        0.926     0.037     2.495     2.470
   104   1 H        0.926     0.039     2.466     2.456
   105   1 H        0.926     0.039     2.466     2.456
   106   1 H        0.926     0.037     2.494     2.469
   107   1 H        0.926     0.034     2.528     2.486
   108   1 H        0.926     0.023     2.689     2.564
   109   1 H        0.926     0.033     2.544     2.494
   110   1 H        0.926     0.023     2.689     2.564
   111   1 H        0.926     0.034     2.528     2.487
   112   1 H        0.926     0.037     2.493     2.469
   113   1 H        0.926     0.039     2.466     2.456
   114   1 H        0.926     0.039     2.466     2.456
   115   1 H        0.926     0.037     2.495     2.470
   116   1 H        0.926     0.036     2.499     2.472
   117   1 H        0.926     0.029     2.594     2.519
   118   1 H        0.926     0.025     2.660     2.551
   119   1 H        0.926     0.038     2.472     2.459
   120   1 H        0.925     0.035     2.520     2.482
   121   1 H        0.925     0.037     2.484     2.465
   122   1 H        0.925     0.043     2.409     2.427
   123   1 H        0.925     0.043     2.409     2.427
   124   1 H        0.925     0.034     2.532     2.488
   125   1 H        0.925     0.037     2.488     2.467
   126   1 H        0.925     0.041     2.433     2.439
   127   1 H        0.925     0.039     2.467     2.456
   128   1 H        0.925     0.038     2.478     2.462
   129   1 H        0.926     0.050     2.314     2.379
   130   1 H        0.926     0.051     2.303     2.373
   131   1 H        0.925     0.034     2.533     2.489
   132   1 H        0.925     0.037     2.490     2.467
   133   1 H        0.925     0.043     2.407     2.426
   134   1 H        0.925     0.039     2.460     2.453
   135   1 H        0.925     0.042     2.428     2.437
   136   1 H        0.925     0.038     2.475     2.460
   137   1 H        0.925     0.037     2.485     2.465
   138   1 H        0.925     0.043     2.406     2.426
   139   1 H        0.925     0.035     2.515     2.480
   140   1 H        0.926     0.039     2.462     2.454
   141   1 H        0.926     0.020     2.729     2.583

molecular dipole:
                 x           y           z       tot (Debye)
 q only:       -0.003      -0.594      -0.854
   full:       -0.002      -0.891      -1.141       3.678

 projected vibrational frequencies (cm⁻¹)
eigval :       -0.00    -0.00    -0.00     0.00     0.00     0.00
eigval :        5.13     6.95    12.24    14.01    16.82    19.77
eigval :       22.87    29.04    29.14    32.43    32.91    37.52
eigval :       42.44    44.64    51.31    57.34    64.65    67.78
eigval :       76.73    77.73    79.75    85.58    87.11    98.25
eigval :      106.58   108.51   119.10   121.74   122.13   131.04
eigval :      131.54   144.56   149.62   151.89   160.57   162.44
eigval :      176.39   177.28   182.50   189.00   194.47   197.01
eigval :      202.65   204.13   205.51   215.89   217.98   224.57
eigval :      226.44   228.51   233.07   237.11   237.82   246.90
eigval :      257.46   259.28   271.84   273.37   276.86   281.67
eigval :      285.74   294.43   305.52   310.15   315.92   319.19
eigval :      325.49   326.59   330.13   332.66   336.80   340.01
eigval :      341.53   345.77   356.01   356.75   374.28   375.13
eigval :      378.42   390.97   393.54   395.69   398.94   401.52
eigval :      402.42   403.47   406.01   416.40   423.47   424.44
eigval :      435.62   437.02   440.19   440.59   442.99   443.53
eigval :      452.64   453.49   463.63   464.10   465.68   470.85
eigval :      486.85   503.32   509.18   511.92   517.14   517.29
eigval :      522.68   529.13   539.07   539.24   539.64   549.96
eigval :      552.15   567.15   578.42   584.62   585.65   586.47
eigval :      589.43   590.53   595.89   608.81   623.22   635.04
eigval :      638.91   641.33   641.68   647.18   655.65   671.63
eigval :      673.09   679.48   688.13   691.11   698.44   703.93
eigval :      704.06   707.25   707.96   711.97   716.13   717.88
eigval :      732.43   753.20   754.77   766.26   770.78   771.29
eigval :      780.86   782.09   806.31   814.03   826.58   827.08
eigval :      827.81   830.11   830.93   852.28   854.85   861.98
eigval :      867.98   868.57   869.90   870.67   872.09   874.89
eigval :      875.41   890.27   894.68   894.87   899.60   902.06
eigval :      902.60   904.07   904.76   908.73   917.70   918.38
eigval :      918.53   920.70   921.05   921.40   926.78   929.32
eigval :      930.02   932.86   957.22   958.18   959.89   960.01
eigval :      960.83   961.01   961.49   961.64   961.89   962.25
eigval :      964.77   964.78   970.35   997.22  1008.10  1013.36
eigval :     1025.86  1028.74  1031.32  1032.28  1033.24  1033.67
eigval :     1033.69  1034.69  1034.81  1039.79  1040.75  1063.06
eigval :     1067.09  1067.23  1070.66  1074.00  1105.82  1115.98
eigval :     1124.49  1125.95  1131.61  1134.56  1139.67  1141.89
eigval :     1146.04  1156.49  1159.06  1162.87  1173.11  1176.57
eigval :     1178.20  1178.99  1198.18  1199.78  1208.58  1222.00
eigval :     1222.09  1223.65  1224.11  1224.17  1225.47  1226.27
eigval :     1226.85  1227.71  1227.81  1228.13  1230.02  1231.52
eigval :     1231.91  1235.73  1248.91  1252.28  1254.10  1275.83
eigval :     1276.41  1285.51  1285.99  1287.10  1288.51  1291.41
eigval :     1291.88  1294.34  1297.79  1323.37  1323.79  1334.09
eigval :     1334.69  1346.70  1350.73  1351.70  1352.80  1353.58
eigval :     1358.53  1359.79  1365.14  1377.23  1388.51  1398.70
eigval :     1398.88  1400.18  1400.26  1401.14  1401.26  1401.29
eigval :     1401.37  1408.58  1409.36  1416.46  1418.70  1419.12
eigval :     1424.37  1424.46  1425.46  1425.52  1430.39  1430.98
eigval :     1439.87  1457.99  1458.74  1461.87  1464.77  1470.59
eigval :     1474.47  1477.97  1478.29  1483.13  1483.80  1485.62
eigval :     1485.81  1486.96  1487.02  1490.01  1490.52  1492.07
eigval :     1492.16  1496.56  1497.13  1498.84  1498.92  1499.18
eigval :     1499.52  1500.47  1500.49  1509.13  1509.13  1510.67
eigval :     1510.79  1514.62  1516.14  1518.04  1518.13  1557.33
eigval :     1557.44  1566.68  1568.05  1568.17  1569.19  1572.76
eigval :     1572.85  1580.07  1582.97  1586.29  1586.64  1589.33
eigval :     1592.50  1594.70  1601.74  2221.88  3021.70  3021.98
eigval :     3022.33  3022.33  3022.84  3022.86  3023.07  3023.32
eigval :     3025.61  3025.61  3025.93  3026.05  3027.52  3027.74
eigval :     3027.89  3027.97  3029.39  3029.45  3029.62  3029.90
eigval :     3033.14  3033.21  3033.25  3033.36  3037.36  3037.47
eigval :     3037.68  3037.74  3045.69  3045.86  3046.27  3046.28
eigval :     3049.34  3049.40  3049.96  3050.00  3076.54  3076.84
eigval :     3078.59  3078.65  3079.63  3080.56  3082.33  3082.47
eigval :     3082.91  3083.04  3083.51  3083.58  3089.36  3089.45
eigval :     3090.43  3090.73  3095.90  3095.98  3096.31  3096.70
eigval :     3097.23  3097.81  3098.10  3098.70  3121.40  3121.67
eigval :     3123.55  3124.41  3124.66

   temp. (K)  partition function   enthalpy   heat capacity  entropy
                                   cal/mol     cal/K/mol   cal/K/mol   J/K/mol
 298.15  VIB  0.440E+33            41748.023    257.664    259.802
         ROT  0.232E+09              888.752      2.981     41.263
         INT  0.102E+42            42636.775    260.645    301.065
         TR   0.301E+29             1481.254      4.968     46.525
         TOT                       44118.0292   265.6129   347.5904  1454.3182

       T/K    H(0)-H(T)+PV         H(T)/Eh          T*S/Eh         G(T)/Eh
   ------------------------------------------------------------------------
    298.15    0.703066E-01    0.121256E+01    0.165151E+00    0.104741E+01
   ------------------------------------------------------------------------

         :::::::::::::::::::::::::::::::::::::::::::::::::::::
         ::                  THERMODYNAMIC                  ::
         :::::::::::::::::::::::::::::::::::::::::::::::::::::
         :: total free energy        -198.952212905099 Eh   ::
         ::.................................................::
         :: total energy             -199.999622949702 Eh   ::
         :: zero point energy           1.142254898791 Eh   ::
         :: G(RRHO) w/o ZPVE           -0.094844854188 Eh   ::
         :: G(RRHO) contrib.            1.047410044602 Eh   ::
         :::::::::::::::::::::::::::::::::::::::::::::::::::::

           -------------------------------------------------
          | TOTAL ENERGY             -199.999622949702 Eh   |
          | TOTAL ENTHALPY           -198.787061496127 Eh   |
          | TOTAL FREE ENERGY        -198.952212905099 Eh   |
          | GRADIENT NORM               0.000062187197 Eh/α |
          | HOMO-LUMO GAP               0.242179013845 eV   |
           -------------------------------------------------

 * finished run on 2025/09/07 at 18:24:07.887
