   * xtb version 6.7.1 (edcfbbe) compiled by 'albert@albert-system' on 2024-07-22

   ID    Z sym.   atoms
    1    6 C      1-6, 8-13, 15-25, 27-32, 34-39, 41-44, 46
    2    8 O      7
    3    7 N      14, 26, 33, 40, 45
    4    1 H      47-69

          program call               : xtb data2507/toluene/pDPAPQ-PXZ/pDPAPQ-PXZ_toluene_S0_finalOpt.xtbopt.xyz --gfn 2 --uhf 2 --gbsa toluene --ohess vtight --parallel 40 --molden --ceasefiles --namespace data2507/toluene/pDPAPQ-PXZ/pDPAPQ-PXZ_toluene_T1_preOpt
      * Solvation model:               GBSA
        Solvent                        toluene
        Solvent mass                       9.2140E+01 g/mol
          :  Hamiltonian                  GFN2-xTB          :
 * total energy  :  -116.0987897 Eh     change       -0.3384562E-07 Eh
 * total energy  :  -116.1013305 Eh     change       -0.2540811E-02 Eh
 * total energy  :  -116.1023901 Eh     change       -0.1059626E-02 Eh
 * total energy  :  -116.1025277 Eh     change       -0.1376238E-03 Eh
 * total energy  :  -116.1026316 Eh     change       -0.1038551E-03 Eh
 * total energy  :  -116.1026608 Eh     change       -0.2923764E-04 Eh
 * total energy  :  -116.1026916 Eh     change       -0.3076551E-04 Eh
 * total energy  :  -116.1027156 Eh     change       -0.2404110E-04 Eh
 * total energy  :  -116.1027367 Eh     change       -0.2104625E-04 Eh
 * total energy  :  -116.1027621 Eh     change       -0.2539316E-04 Eh
 * total energy  :  -116.1030300 Eh     change       -0.5535732E-06 Eh
 * total energy  :  -116.1030306 Eh     change       -0.6076273E-06 Eh
 * total energy  :  -116.1030313 Eh     change       -0.6723286E-06 Eh
 * total energy  :  -116.1030319 Eh     change       -0.6659732E-06 Eh
 * total energy  :  -116.1030327 Eh     change       -0.7082419E-06 Eh
 * total energy  :  -116.1030334 Eh     change       -0.6959663E-06 Eh
 * total energy  :  -116.1030338 Eh     change       -0.4678869E-06 Eh
 * total energy  :  -116.1030340 Eh     change       -0.2036258E-06 Eh
 * total energy  :  -116.1030341 Eh     change       -0.7855385E-07 Eh
   *** GEOMETRY OPTIMIZATION CONVERGED AFTER 43 ITERATIONS ***

 final structure:
================
69
 xtb: 6.7.1 (edcfbbe)
C            7.49916504932226       -2.76139227286073       -2.38426925505733
C            6.11373690719104       -2.80707022366315       -2.41041524772981
C            5.36925974237465       -2.00925435082933       -1.56160450241618
C            6.00023547893900       -1.15128220164542       -0.66207813037490
C            7.40643043681253       -1.09822843727038       -0.65673922344819
C            8.14431140317349       -1.90240350347375       -1.51039272289448
O            8.09724269357846       -0.25775685067342        0.17099374365002
C            7.37885536687168        0.54015540160270        1.01713033714740
C            8.08819296690717        1.38720157352570        1.85335644302416
C            7.41426903847674        2.20763256924101        2.74246907230710
C            6.02960109213055        2.17104583810570        2.80214733818191
C            5.31346202020952        1.32914366953811        1.97179672952963
C            5.97280018251863        0.50922321259281        1.05726922097527
N            5.28713126979661       -0.34203112795232        0.20666821084896
C            3.86675927542912       -0.37638708406180        0.22177340614909
C            3.21370305448702       -1.46094377708396        0.79960914714335
C            1.82866597625375       -1.57046234660599        0.85578372581526
C            1.06258386018529       -0.54543410798383        0.30483293126198
C            1.73750992572809        0.55799202192666       -0.28441159655919
C            0.83493825321522        1.51266946836367       -0.80245948781616
C            1.33929178834412        2.64738085344042       -1.41867523754170
C            2.72628846322793        2.78922262453777       -1.49900924708740
C            3.60973291704817        1.85393031908337       -0.99070050474645
C            3.12643732814527        0.69169739475823       -0.35365508630570
C           -0.48264662576749        1.00095120498205       -0.52994607275094
N           -1.66166538881828        1.48151296039552       -0.78862405210699
C           -2.75413941678188        0.78653980995962       -0.42280563185199
C           -4.03662631208421        1.26310936861319       -0.69046012066173
C           -5.17156858103122        0.55376432258204       -0.33176475334361
C           -6.48917987558259        1.07843638573921       -0.70901382535254
C           -6.81621434254688        2.41995574513264       -0.50299293086873
C           -8.06724326541520        2.87015971592693       -0.88487645986779
N           -8.98448189686511        2.09960093588017       -1.45009667486685
C           -8.67088327759951        0.83023862203500       -1.66196992323226
C           -7.45299392961611        0.27221353600728       -1.31776718147045
C           -5.02971645428151       -0.68140631257422        0.34544228493651
C           -6.19909633783276       -1.42845798859321        0.83464582504110
C           -7.20158212083236       -0.80564774691983        1.57815563383584
C           -8.26225200351983       -1.56730201401463        2.03670549617840
N           -8.38584412272040       -2.86567220919028        1.80927121478042
C           -7.43112542550243       -3.46028789146232        1.11101671923280
C           -6.32351500829730       -2.79905578006041        0.60925587152220
C           -3.77015778498626       -1.17646405151430        0.61520489393394
C           -2.60648430338722       -0.48364688205176        0.24917928963156
N           -1.39547030591554       -0.97019423644093        0.51546345844359
C           -0.32828700805340       -0.28662435172533        0.15925207356959
H            8.07852078855093       -3.38602830270187       -3.04524383827623
H            5.60567222965738       -3.46577240522134       -3.09727281393406
H            4.29178921944010       -2.04050863155909       -1.58898998205983
H            9.21999314962476       -1.83616026685841       -1.47486780200305
H            9.16471693889884        1.38516972484290        1.79166313270325
H            7.97133999023840        2.86633574468295        3.38938611473481
H            5.49990374876346        2.80000823877133        3.50040374008336
H            4.23700330406356        1.29843658405906        2.02456446938665
H            3.81863846881388       -2.24870172685910        1.22679101749133
H            1.36507959366481       -2.42785253628297        1.31750422127039
H            0.68326675693266        3.40044020143902       -1.82719731967706
H            3.12589884768030        3.67057451383350       -1.98003763042090
H            4.67327514414789        2.01870295254841       -1.08263244355869
H           -4.12549065449155        2.19897208842869       -1.22169327736610
H           -6.11129893775047        3.08850613224443       -0.03243098648977
H           -8.35876903214852        3.90155866452621       -0.73082142410131
H           -9.44100167852478        0.23339599230648       -2.13427924049784
H           -7.24846267645995       -0.76595781693706       -1.52979781161847
H           -7.14601516022610        0.24831656704638        1.80311705365788
H           -9.05819882491576       -1.11857585156022        2.61747643813853
H           -7.56688397170331       -4.52211840871320        0.94851126656892
H           -5.57705542722736       -3.32938279182316        0.03764753328152
H           -3.65231071749432       -2.10695134130098        1.15015718205423

          :  Hamiltonian                  GFN2-xTB          :
         :: gradient norm              0.000076340523 Eh/a0 ::
         :: HOMO-LUMO gap              0.052461870134 eV    ::
         :: SCC energy              -118.141223836274 Eh    ::
         :: -> dispersion             -0.100932292017 Eh    ::
         :: -> Gsolv                  -0.051987704137 Eh    ::
         :: repulsion energy           2.038189719933 Eh    ::

    * Orbital Energies and Occupations

         #    Occupation            Energy/Eh            Energy/eV
      -------------------------------------------------------------
         1        2.0000           -0.7538271             -20.5127
       ...           ...                  ...                  ...
        96        2.0000           -0.4242759             -11.5451
        97        2.0000           -0.4230601             -11.5121
        98        2.0000           -0.4187430             -11.3946
        99        2.0000           -0.4126964             -11.2300
       100        2.0000           -0.4100006             -11.1567
       101        2.0000           -0.4080672             -11.1041
       102        2.0000           -0.3943688             -10.7313
       103        2.0000           -0.3874811             -10.5439
       104        2.0000           -0.3738522             -10.1730
       105        2.0000           -0.3721163             -10.1258
       106        1.5838           -0.3603091              -9.8045
       107        1.4162           -0.3596663              -9.7870
       108        0.7339           -0.3014467              -8.2028 (HOMO)
       109        0.2661           -0.2995187              -8.1503 (LUMO)
       110                         -0.2673184              -7.2741
       111                         -0.2581332              -7.0242
       112                         -0.2518970              -6.8545
       113                         -0.2461686              -6.6986
       114                         -0.2425999              -6.6015
       115                         -0.2367959              -6.4435
       116                         -0.2351833              -6.3997
       117                         -0.2321057              -6.3159
       118                         -0.2211172              -6.0169
       119                         -0.2160063              -5.8778
       ...                                ...                  ...
       207                          0.7228730              19.6704
      -------------------------------------------------------------
                  HL-Gap            0.0019280 Eh            0.0525 eV

     #   Z          covCN         q      C6AA      α(0)
     1   6 C        2.919    -0.030    28.752     8.793
     2   6 C        2.918    -0.030    28.747     8.792
     3   6 C        2.921    -0.050    29.251     8.869
     4   6 C        2.925     0.047    26.955     8.514
     5   6 C        2.884     0.130    25.158     8.223
     6   6 C        2.917    -0.052    29.288     8.875
     7   8 O        1.709    -0.231    17.836     5.702
     8   6 C        2.884     0.130    25.161     8.224
     9   6 C        2.917    -0.052    29.291     8.875
    10   6 C        2.919    -0.030    28.751     8.793
    11   6 C        2.918    -0.030    28.746     8.792
    12   6 C        2.921    -0.049    29.225     8.865
    13   6 C        2.926     0.047    26.941     8.512
    14   7 N        2.752    -0.025    21.731     6.923
    15   6 C        2.922     0.029    27.353     8.577
    16   6 C        2.918    -0.042    29.034     8.836
    17   6 C        2.909    -0.038    28.932     8.820
    18   6 C        3.031    -0.023    28.553     8.765
    19   6 C        3.150    -0.012    28.038     8.661
    20   6 C        3.030    -0.019    28.455     8.750
    21   6 C        2.910    -0.029    28.718     8.787
    22   6 C        2.918    -0.031    28.786     8.798
    23   6 C        2.917    -0.040    28.985     8.828
    24   6 C        2.974     0.004    27.919     8.667
    25   6 C        3.043     0.085    26.078     8.376
    26   7 N        1.839    -0.220    26.635     7.648
    27   6 C        2.960     0.076    26.304     8.412
    28   6 C        2.923    -0.054    29.350     8.884
    29   6 C        2.974    -0.004    28.112     8.697
    30   6 C        2.985     0.030    27.328     8.575
    31   6 C        2.919    -0.047    29.170     8.857
    32   6 C        2.912     0.059    26.669     8.468
    33   7 N        1.835    -0.246    27.256     7.737
    34   6 C        2.913     0.060    26.664     8.467
    35   6 C        2.918    -0.044    29.098     8.846
    36   6 C        2.974     0.003    27.962     8.674
    37   6 C        2.987     0.032    27.287     8.569
    38   6 C        2.918    -0.043    29.056     8.839
    39   6 C        2.913     0.060    26.654     8.466
    40   7 N        1.835    -0.241    27.151     7.722
    41   6 C        2.913     0.060    26.660     8.467
    42   6 C        2.918    -0.046    29.137     8.852
    43   6 C        2.924    -0.058    29.438     8.898
    44   6 C        2.956     0.082    26.164     8.390
    45   7 N        1.840    -0.227    26.810     7.673
    46   6 C        3.039     0.066    26.484     8.441
    47   1 H        0.926     0.058     2.225     2.333
    48   1 H        0.926     0.055     2.256     2.349
    49   1 H        0.926     0.053     2.288     2.366
    50   1 H        0.926     0.064     2.157     2.297
    51   1 H        0.926     0.064     2.157     2.297
    52   1 H        0.926     0.058     2.225     2.333
    53   1 H        0.926     0.055     2.262     2.352
    54   1 H        0.926     0.051     2.304     2.374
    55   1 H        0.926     0.041     2.435     2.440
    56   1 H        0.926     0.039     2.459     2.452
    57   1 H        0.926     0.038     2.471     2.458
    58   1 H        0.926     0.039     2.461     2.453
    59   1 H        0.926     0.031     2.577     2.510
    60   1 H        0.926     0.050     2.314     2.379
    61   1 H        0.926     0.041     2.442     2.444
    62   1 H        0.925     0.038     2.477     2.461
    63   1 H        0.925     0.035     2.512     2.479
    64   1 H        0.926     0.032     2.555     2.500
    65   1 H        0.926     0.034     2.528     2.486
    66   1 H        0.925     0.037     2.483     2.464
    67   1 H        0.925     0.040     2.448     2.447
    68   1 H        0.926     0.042     2.418     2.432
    69   1 H        0.926     0.050     2.326     2.385

molecular dipole:
                 x           y           z       tot (Debye)
 q only:        5.063      -0.136       0.090
   full:        5.575      -0.066       0.052      14.171

 projected vibrational frequencies (cm⁻¹)
eigval :       -0.00    -0.00    -0.00     0.00     0.00     0.00
eigval :       14.24    18.32    24.14    33.04    36.34    46.37
eigval :       49.13    57.92    62.68    69.88    82.80   102.05
eigval :      107.05   109.97   133.50   140.12   165.34   174.32
eigval :      175.74   202.99   207.32   219.33   242.33   246.80
eigval :      261.79   266.46   279.85   299.97   312.37   336.76
eigval :      337.37   343.79   344.85   364.93   387.97   390.16
eigval :      412.55   417.43   429.67   435.28   441.87   447.00
eigval :      455.38   480.59   498.54   501.73   504.92   514.58
eigval :      524.30   525.72   537.38   543.84   554.84   571.40
eigval :      575.84   579.59   583.60   610.08   617.12   624.02
eigval :      629.15   648.96   649.50   658.81   668.04   669.27
eigval :      672.01   682.67   696.49   707.69   708.26   714.64
eigval :      722.34   730.93   771.47   775.86   777.53   778.32
eigval :      794.16   796.29   803.92   806.46   829.01   834.87
eigval :      842.41   855.22   865.56   866.30   866.99   871.17
eigval :      884.30   885.86   893.17   900.34   902.58   903.45
eigval :      912.82   912.86   914.58   914.72   919.69   920.00
eigval :      922.53   923.36   932.69   943.72   996.10  1016.25
eigval :     1031.02  1040.95  1074.37  1077.41  1082.38  1084.05
eigval :     1095.49  1096.81  1112.26  1113.31  1114.63  1116.97
eigval :     1128.63  1164.22  1170.57  1171.50  1183.01  1191.57
eigval :     1202.29  1203.36  1205.73  1206.47  1218.68  1222.67
eigval :     1236.46  1238.70  1245.85  1252.50  1261.40  1262.58
eigval :     1267.27  1273.30  1280.48  1282.21  1288.73  1294.97
eigval :     1306.54  1309.56  1316.61  1334.42  1344.59  1347.76
eigval :     1368.31  1372.20  1373.25  1392.37  1409.35  1416.14
eigval :     1417.62  1431.95  1437.84  1439.37  1459.89  1470.20
eigval :     1473.15  1476.15  1479.86  1487.56  1535.28  1537.31
eigval :     1541.88  1548.20  1553.92  1561.85  1562.90  1569.36
eigval :     1573.83  1575.36  1582.76  1585.99  3048.33  3049.71
eigval :     3050.17  3051.28  3072.36  3073.28  3083.39  3086.44
eigval :     3086.98  3088.47  3088.80  3092.09  3093.52  3096.05
eigval :     3096.65  3096.81  3098.22  3103.97  3104.21  3111.67
eigval :     3112.39  3115.22  3115.73

   temp. (K)  partition function   enthalpy   heat capacity  entropy
                                   cal/mol     cal/K/mol   cal/K/mol   J/K/mol
 298.15  VIB  0.426E+15            19943.429    129.547    122.036
         ROT  0.835E+08              888.752      2.981     39.228
         INT  0.355E+23            20832.182    132.528    161.264
         TR   0.139E+29             1481.254      4.968     44.987
         TOT                       22313.4356   137.4958   206.2508   862.9532

       T/K    H(0)-H(T)+PV         H(T)/Eh          T*S/Eh         G(T)/Eh
   ------------------------------------------------------------------------
    298.15    0.355587E-01    0.540014E+00    0.979964E-01    0.442018E+00
   ------------------------------------------------------------------------

         :::::::::::::::::::::::::::::::::::::::::::::::::::::
         ::                  THERMODYNAMIC                  ::
         :::::::::::::::::::::::::::::::::::::::::::::::::::::
         :: total free energy        -115.661016162886 Eh   ::
         ::.................................................::
         :: total energy             -116.103034121908 Eh   ::
         :: zero point energy           0.504455632262 Eh   ::
         :: G(RRHO) w/o ZPVE           -0.062437673240 Eh   ::
         :: G(RRHO) contrib.            0.442017959022 Eh   ::
         :::::::::::::::::::::::::::::::::::::::::::::::::::::

           -------------------------------------------------
          | TOTAL ENERGY             -116.103034121908 Eh   |
          | TOTAL ENTHALPY           -115.563019766681 Eh   |
          | TOTAL FREE ENERGY        -115.661016162886 Eh   |
          | GRADIENT NORM               0.000091227195 Eh/α |
          | HOMO-LUMO GAP               0.052462348746 eV   |
           -------------------------------------------------

 * finished run on 2025/08/22 at 12:00:44.233
