   * xtb version 6.7.1 (edcfbbe) compiled by 'albert@albert-system' on 2024-07-22

   ID    Z sym.   atoms
    1    6 C      1-6, 8-13, 15-25, 27-32, 34-39, 41-44, 46
    2    8 O      7
    3    7 N      14, 26, 33, 40, 45
    4    1 H      47-69

          program call               : xtb data2507/toluene/pDPAPQ-PXZ/pDPAPQ-PXZ.xyz --gfn 2 --gbsa toluene --ohess vtight --parallel 40 --molden --ceasefiles --namespace data2507/toluene/pDPAPQ-PXZ/pDPAPQ-PXZ_toluene_S0_preOpt
      * Solvation model:               GBSA
        Solvent                        toluene
        Solvent mass                       9.2140E+01 g/mol
          :  Hamiltonian                  GFN2-xTB          :
 * total energy  :  -116.1325218 Eh     change       -0.1593335E-08 Eh
 * total energy  :  -116.1470284 Eh     change       -0.1450667E-01 Eh
 * total energy  :  -116.1510294 Eh     change       -0.4000967E-02 Eh
 * total energy  :  -116.1518560 Eh     change       -0.8266126E-03 Eh
 * total energy  :  -116.1524922 Eh     change       -0.6361967E-03 Eh
 * total energy  :  -116.1527193 Eh     change       -0.2270523E-03 Eh
 * total energy  :  -116.1529155 Eh     change       -0.1962217E-03 Eh
 * total energy  :  -116.1530687 Eh     change       -0.1532227E-03 Eh
 * total energy  :  -116.1531994 Eh     change       -0.1306384E-03 Eh
 * total energy  :  -116.1533119 Eh     change       -0.1125600E-03 Eh
 * total energy  :  -116.1550360 Eh     change       -0.7348173E-06 Eh
 * total energy  :  -116.1550369 Eh     change       -0.8960783E-06 Eh
 * total energy  :  -116.1550380 Eh     change       -0.1115629E-05 Eh
 * total energy  :  -116.1550390 Eh     change       -0.9729403E-06 Eh
 * total energy  :  -116.1550395 Eh     change       -0.4560764E-06 Eh
 * total energy  :  -116.1550397 Eh     change       -0.2945518E-06 Eh
 * total energy  :  -116.1550400 Eh     change       -0.2726950E-06 Eh
 * total energy  :  -116.1550402 Eh     change       -0.1483440E-06 Eh
 * total energy  :  -116.1550402 Eh     change       -0.7578336E-07 Eh
   *** GEOMETRY OPTIMIZATION CONVERGED AFTER 84 ITERATIONS ***

 final structure:
================
69
 xtb: 6.7.1 (edcfbbe)
C            7.55441156756007       -2.97755030950513       -2.22806480144856
C            6.17552373792361       -3.03432542399586       -2.27253125538825
C            5.41283090016735       -2.17599759567171       -1.49539106441709
C            6.01712972906130       -1.25119826700207       -0.65233683829605
C            7.41664578629050       -1.17928672791938       -0.64022788663574
C            8.17338457712720       -2.04049528875166       -1.41405820625420
O            8.10315545067322       -0.25307502329394        0.10917861975731
C            7.36450646633717        0.58639753837184        0.90873101349671
C            8.06627505201577        1.47595929120542        1.70223574071038
C            7.39068567276988        2.33407487888566        2.55740173183315
C            6.01271022189460        2.27858350510537        2.62870344559145
C            5.30513659077309        1.38826034981364        1.83584138066989
C            5.96469711312060        0.54853800835309        0.94612946083436
N            5.27856425835614       -0.35791163582978        0.13096201752547
C            3.87158374495331       -0.39784470383205        0.14429074264353
C            3.21446226054836       -1.51905272175317        0.62284572929262
C            1.81791958910994       -1.62552276987194        0.67348065168831
C            1.06574739059826       -0.56705703224857        0.22080540815950
C            1.73273756856737        0.57519422173813       -0.28352197004049
C            0.83105237505020        1.56931741467846       -0.73362393831080
C            1.33196014104451        2.72971751910181       -1.27078163935790
C            2.72823973356770        2.87451252005437       -1.35497701065923
C            3.60526110214599        1.91222159682966       -0.91165161974325
C            3.12227494996105        0.71158893176767       -0.34427934438724
C           -0.49932698521312        1.03451186081013       -0.49083638992653
N           -1.66113441902984        1.56990066811842       -0.73780874431225
C           -2.73693084679520        0.81512987747919       -0.39123456650132
C           -4.02633768871619        1.31348595672337       -0.63344279836697
C           -5.14627613730940        0.59025536876375       -0.29221848360223
C           -6.47657242969345        1.12284573997920       -0.63355731796905
C           -6.82460889771559        2.43732012690816       -0.32730228719975
C           -8.08307910131677        2.89310770728502       -0.68276119563198
N           -8.97989246685673        2.15061631552043       -1.31164983928352
C           -8.64495392948437        0.90766440766709       -1.61797375881129
C           -7.41853709139559        0.34552357552531       -1.30599230646228
C           -5.00262394537676       -0.67415739201750        0.33808387417965
C           -6.17778588819894       -1.42683346771314        0.81027206302684
C           -7.15079569323269       -0.82277303271493        1.60493213784751
C           -8.22029744023221       -1.58584052056322        2.04221286080943
N           -8.37523049757775       -2.86641795677150        1.74707275511324
C           -7.44715678813172       -3.44356051525682        1.00101852145712
C           -6.33384466911054       -2.77947427891358        0.51367125739013
C           -3.74611816769656       -1.18712168459768        0.56347179974619
C           -2.59306163835051       -0.47116176967015        0.20484146469865
N           -1.37363210698705       -1.01944080550130        0.44419176183214
C           -0.35251491590357       -0.28352853631895        0.10229789593692
H            8.15304592751099       -3.64548243981123       -2.82705662151713
H            5.67843473553053       -3.74435003773955       -2.91541181201841
H            4.33673849660696       -2.21985731832087       -1.55243021870238
H            9.24779590564262       -1.95530050097097       -1.36975053175630
H            9.14301979374011        1.47794305901447        1.63763374972414
H            7.94632593590612        3.02739392696076        3.16879625848324
H            5.47395646816959        2.92427102052760        3.30495241346723
H            4.23015118986526        1.34523824293482        1.91152788364545
H            3.81115047280754       -2.34403250284821        0.98516778051730
H            1.35542979695059       -2.51543421792893        1.07074842311448
H            0.67816320657283        3.51120712522959       -1.62561815543867
H            3.12385319343792        3.78150868497512       -1.78770859430461
H            4.66930316140058        2.07355243793357       -0.99904720994107
H           -4.11399426731382        2.27395068767218       -1.11873866217982
H           -6.13224720791251        3.08047624886475        0.19406751894042
H           -8.39440531759007        3.90442893662774       -0.45416833507163
H           -9.40156070310870        0.33554602528099       -2.13944743574711
H           -7.19362961809492       -0.67055557875891       -1.59104220307206
H           -7.06667658244802        0.21568499999567        1.88580065274986
H           -8.99588532702860       -1.15234417369102        2.66056808950265
H           -7.60886104158127       -4.49203219435263        0.78552110053912
H           -5.60888829595571       -3.29348249389202       -0.09877230219067
H           -3.61740315839407       -2.14342485867943        1.04795714002261

          :  Hamiltonian                  GFN2-xTB          :
         :: gradient norm              0.000059629413 Eh/a0 ::
         :: HOMO-LUMO gap              1.150593173291 eV    ::
         :: SCC energy              -118.194009547073 Eh    ::
         :: -> dispersion             -0.101067107495 Eh    ::
         :: -> Gsolv                  -0.050201394333 Eh    ::
         :: repulsion energy           2.038969302195 Eh    ::

    * Orbital Energies and Occupations

         #    Occupation            Energy/Eh            Energy/eV
      -------------------------------------------------------------
         1        2.0000           -0.7349042             -19.9978
       ...           ...                  ...                  ...
        95        2.0000           -0.4276172             -11.6361
        96        2.0000           -0.4245070             -11.5514
        97        2.0000           -0.4238193             -11.5327
        98        2.0000           -0.4207107             -11.4481
        99        2.0000           -0.4193106             -11.4100
       100        2.0000           -0.4175566             -11.3623
       101        2.0000           -0.4054328             -11.0324
       102        2.0000           -0.4008944             -10.9089
       103        2.0000           -0.3951847             -10.7535
       104        2.0000           -0.3773137             -10.2672
       105        2.0000           -0.3764636             -10.2441
       106        2.0000           -0.3633400              -9.8870
       107        2.0000           -0.3499924              -9.5238 (HOMO)
       108                         -0.3077088              -8.3732 (LUMO)
       109                         -0.3067932              -8.3483
       110                         -0.2723942              -7.4122
       111                         -0.2581590              -7.0249
       112                         -0.2500797              -6.8050
       113                         -0.2471898              -6.7264
       114                         -0.2435825              -6.6282
       115                         -0.2425571              -6.6003
       116                         -0.2348900              -6.3917
       117                         -0.2298889              -6.2556
       118                         -0.2259043              -6.1472
       ...                                ...                  ...
       207                          0.7099004              19.3174
      -------------------------------------------------------------
                  HL-Gap            0.0422836 Eh            1.1506 eV

     #   Z          covCN         q      C6AA      α(0)
     1   6 C        2.919    -0.039    28.976     8.827
     2   6 C        2.919    -0.038    28.942     8.822
     3   6 C        2.923    -0.059    29.474     8.903
     4   6 C        2.921     0.041    27.082     8.534
     5   6 C        2.883     0.124    25.287     8.244
     6   6 C        2.919    -0.057    29.409     8.893
     7   8 O        1.708    -0.268    18.435     5.797
     8   6 C        2.882     0.123    25.290     8.244
     9   6 C        2.919    -0.057    29.413     8.894
    10   6 C        2.919    -0.039    28.973     8.827
    11   6 C        2.919    -0.038    28.944     8.822
    12   6 C        2.923    -0.058    29.438     8.898
    13   6 C        2.922     0.042    27.061     8.531
    14   7 N        2.750    -0.065    22.498     7.045
    15   6 C        2.918     0.065    26.553     8.450
    16   6 C        2.922    -0.041    29.023     8.834
    17   6 C        2.911    -0.019    28.490     8.752
    18   6 C        3.028    -0.015    28.348     8.733
    19   6 C        3.136    -0.007    27.971     8.657
    20   6 C        3.027    -0.010    28.228     8.715
    21   6 C        2.912    -0.017    28.431     8.743
    22   6 C        2.919    -0.025    28.631     8.775
    23   6 C        2.917    -0.023    28.579     8.766
    24   6 C        2.976     0.006    27.884     8.662
    25   6 C        3.057     0.088    26.000     8.362
    26   7 N        1.838    -0.257    27.526     7.775
    27   6 C        2.986     0.077    26.269     8.407
    28   6 C        2.925    -0.047    29.158     8.855
    29   6 C        2.975     0.008    27.847     8.656
    30   6 C        2.986     0.032    27.286     8.569
    31   6 C        2.918    -0.044    29.100     8.846
    32   6 C        2.913     0.060    26.645     8.464
    33   7 N        1.835    -0.236    27.013     7.702
    34   6 C        2.913     0.060    26.645     8.464
    35   6 C        2.918    -0.042    29.042     8.837
    36   6 C        2.975     0.008    27.839     8.655
    37   6 C        2.987     0.032    27.282     8.568
    38   6 C        2.918    -0.042    29.040     8.837
    39   6 C        2.913     0.061    26.644     8.464
    40   7 N        1.835    -0.235    27.010     7.702
    41   6 C        2.913     0.060    26.645     8.464
    42   6 C        2.918    -0.044    29.099     8.846
    43   6 C        2.925    -0.047    29.165     8.856
    44   6 C        2.986     0.078    26.253     8.405
    45   7 N        1.838    -0.258    27.570     7.781
    46   6 C        3.056     0.087    26.005     8.363
    47   1 H        0.926     0.045     2.389     2.417
    48   1 H        0.926     0.043     2.405     2.425
    49   1 H        0.926     0.040     2.454     2.450
    50   1 H        0.926     0.051     2.313     2.378
    51   1 H        0.926     0.051     2.311     2.377
    52   1 H        0.926     0.045     2.386     2.415
    53   1 H        0.926     0.043     2.412     2.429
    54   1 H        0.926     0.037     2.493     2.469
    55   1 H        0.926     0.055     2.257     2.349
    56   1 H        0.926     0.059     2.215     2.327
    57   1 H        0.926     0.056     2.241     2.341
    58   1 H        0.926     0.054     2.270     2.356
    59   1 H        0.926     0.048     2.348     2.396
    60   1 H        0.926     0.058     2.222     2.331
    61   1 H        0.926     0.046     2.371     2.408
    62   1 H        0.925     0.043     2.407     2.426
    63   1 H        0.925     0.041     2.441     2.443
    64   1 H        0.926     0.038     2.480     2.463
    65   1 H        0.926     0.038     2.481     2.463
    66   1 H        0.925     0.041     2.439     2.442
    67   1 H        0.925     0.043     2.406     2.426
    68   1 H        0.926     0.046     2.373     2.409
    69   1 H        0.926     0.058     2.226     2.333

molecular dipole:
                 x           y           z       tot (Debye)
 q only:        1.546       0.207      -0.118
   full:        2.149       0.249      -0.147       5.511

 projected vibrational frequencies (cm⁻¹)
eigval :       -0.00    -0.00     0.00     0.00     0.00     0.00
eigval :       13.86    14.79    20.89    29.96    36.88    43.37
eigval :       45.11    56.46    59.01    72.42    82.51   101.35
eigval :      108.18   112.96   136.08   140.46   159.21   170.08
eigval :      177.20   205.12   209.95   220.02   243.84   249.25
eigval :      258.05   272.36   281.25   299.36   307.88   325.65
eigval :      338.08   340.92   349.56   375.21   387.31   397.15
eigval :      414.88   418.05   423.69   430.49   442.12   450.90
eigval :      468.78   486.66   505.61   507.87   508.21   518.69
eigval :      525.14   540.25   544.13   553.01   566.81   580.50
eigval :      584.21   585.20   588.76   615.67   624.34   630.01
eigval :      648.35   653.50   659.21   661.24   668.61   672.84
eigval :      689.91   701.82   710.98   714.28   731.49   734.48
eigval :      741.16   760.16   777.13   777.76   781.83   797.53
eigval :      798.15   800.67   808.49   835.10   842.42   853.32
eigval :      863.26   863.52   865.48   882.33   888.13   890.19
eigval :      891.70   893.99   896.85   898.55   912.63   914.44
eigval :      915.15   915.89   916.02   920.25   923.46   924.52
eigval :      927.85   942.85   949.76   996.69  1022.30  1041.41
eigval :     1074.00  1076.50  1088.41  1090.02  1096.44  1097.83
eigval :     1106.00  1110.31  1114.59  1116.45  1121.86  1133.05
eigval :     1166.89  1172.60  1181.49  1187.74  1196.33  1196.91
eigval :     1197.80  1203.19  1204.37  1214.50  1226.27  1231.27
eigval :     1241.04  1253.33  1256.05  1258.01  1259.41  1261.08
eigval :     1268.65  1277.75  1279.09  1290.48  1298.29  1304.25
eigval :     1324.26  1336.12  1343.30  1355.32  1367.22  1370.62
eigval :     1376.40  1393.81  1409.63  1411.03  1420.87  1423.78
eigval :     1440.98  1443.87  1470.60  1471.32  1475.15  1477.52
eigval :     1482.52  1498.35  1542.04  1547.47  1549.24  1561.92
eigval :     1566.64  1574.11  1575.17  1577.29  1577.78  1587.39
eigval :     1591.38  1599.65  1604.71  1608.50  3052.67  3053.14
eigval :     3053.94  3054.22  3082.93  3084.91  3088.76  3089.54
eigval :     3090.25  3090.71  3093.36  3093.56  3093.76  3093.79
eigval :     3094.45  3097.20  3097.55  3102.24  3103.44  3105.29
eigval :     3105.66  3110.00  3110.80

   temp. (K)  partition function   enthalpy   heat capacity  entropy
                                   cal/mol     cal/K/mol   cal/K/mol   J/K/mol
 298.15  VIB  0.689E+15            19777.881    127.580    121.489
         ROT  0.833E+08              888.752      2.981     39.225
         INT  0.574E+23            20666.633    130.561    160.713
         TR   0.139E+29             1481.254      4.968     44.987
         TOT                       22147.8870   135.5288   205.6999   860.6485

       T/K    H(0)-H(T)+PV         H(T)/Eh          T*S/Eh         G(T)/Eh
   ------------------------------------------------------------------------
    298.15    0.352949E-01    0.543973E+00    0.977347E-01    0.446238E+00
   ------------------------------------------------------------------------

         :::::::::::::::::::::::::::::::::::::::::::::::::::::
         ::                  THERMODYNAMIC                  ::
         :::::::::::::::::::::::::::::::::::::::::::::::::::::
         :: total free energy        -115.708802119859 Eh   ::
         ::.................................................::
         :: total energy             -116.155040243968 Eh   ::
         :: zero point energy           0.508677894672 Eh   ::
         :: G(RRHO) w/o ZPVE           -0.062439770564 Eh   ::
         :: G(RRHO) contrib.            0.446238124108 Eh   ::
         :::::::::::::::::::::::::::::::::::::::::::::::::::::

           -------------------------------------------------
          | TOTAL ENERGY             -116.155040243968 Eh   |
          | TOTAL ENTHALPY           -115.611067444746 Eh   |
          | TOTAL FREE ENERGY        -115.708802119859 Eh   |
          | GRADIENT NORM               0.000059658220 Eh/α |
          | HOMO-LUMO GAP               1.150594167694 eV   |
           -------------------------------------------------

 * finished run on 2025/08/22 at 11:57:37.912
