   * xtb version 6.7.1 (edcfbbe) compiled by 'albert@albert-system' on 2024-07-22

   ID    Z sym.   atoms
    1    6 C      1-6, 8-13, 15-25, 27-32, 34-39, 41-44, 46
    2    8 O      7
    3    7 N      14, 26, 33, 40, 45
    4    1 H      47-69

          program call               : xtb data2507/toluene/pDPAPQ-PXZ/pDPAPQ-PXZ_toluene_S0_crest.xyz --gfn 2 --gbsa toluene --ohess vtight --parallel 40 --molden --ceasefiles --namespace data2507/toluene/pDPAPQ-PXZ/pDPAPQ-PXZ_toluene_S0_finalOpt
      * Solvation model:               GBSA
        Solvent                        toluene
        Solvent mass                       9.2140E+01 g/mol
          :  Hamiltonian                  GFN2-xTB          :
 * total energy  :  -116.1549137 Eh     change       -0.1899352E-08 Eh
 * total energy  :  -116.1549542 Eh     change       -0.4051617E-04 Eh
 * total energy  :  -116.1549694 Eh     change       -0.1523807E-04 Eh
 * total energy  :  -116.1549771 Eh     change       -0.7701589E-05 Eh
 * total energy  :  -116.1549844 Eh     change       -0.7267201E-05 Eh
 * total energy  :  -116.1549912 Eh     change       -0.6844392E-05 Eh
 * total energy  :  -116.1549959 Eh     change       -0.4667663E-05 Eh
 * total energy  :  -116.1549987 Eh     change       -0.2842009E-05 Eh
 * total energy  :  -116.1549981 Eh     change        0.6005738E-06 Eh
 * total energy  :  -116.1550006 Eh     change       -0.2442419E-05 Eh
 * total energy  :  -116.1550346 Eh     change       -0.3283877E-06 Eh
 * total energy  :  -116.1550348 Eh     change       -0.2077562E-06 Eh
 * total energy  :  -116.1550350 Eh     change       -0.1806646E-06 Eh
 * total energy  :  -116.1550352 Eh     change       -0.2160101E-06 Eh
 * total energy  :  -116.1550355 Eh     change       -0.2515697E-06 Eh
 * total energy  :  -116.1550357 Eh     change       -0.2046815E-06 Eh
 * total energy  :  -116.1550358 Eh     change       -0.1362978E-06 Eh
 * total energy  :  -116.1550359 Eh     change       -0.1032142E-06 Eh
 * total energy  :  -116.1550359 Eh     change       -0.1961979E-08 Eh
   *** GEOMETRY OPTIMIZATION CONVERGED AFTER 44 ITERATIONS ***

 final structure:
================
69
 xtb: 6.7.1 (edcfbbe)
C            7.55650363627546       -2.99094659629244       -2.16443141344997
C            6.17781118094829       -3.05226073488431       -2.20949437750058
C            5.41177285359318       -2.18402330458655       -1.44684180653676
C            6.01222881534663       -1.24442329580595       -0.61743085973880
C            7.41150120325436       -1.16755671756258       -0.60618139178173
C            8.17168247615588       -2.03880381824977       -1.36533063474214
O            8.09476350782201       -0.22639869108028        0.12723598954094
C            7.35357633880171        0.61963377758618        0.91731268424126
C            8.05276008148933        1.52126000746828        1.69947337289791
C            7.37481322121272        2.38619777244966        2.54574395190833
C            5.99719153863935        2.32525912545674        2.62004313229416
C            5.29229306149337        1.42300477180860        1.83842759860909
C            5.95400743576382        0.57647144605631        0.95671016462064
N            5.27042201791053       -0.34170787951797        0.15230239073936
C            3.86379222402809       -0.38448447991259        0.16459588792613
C            3.20828266070070       -1.50465005741189        0.64819660351378
C            1.81200786678708       -1.61500025071370        0.69547256207869
C            1.05785978569909       -0.56092900117977        0.23575267591677
C            1.72304767908693        0.58127657442216       -0.27111703118210
C            0.81967120384732        1.57153142483935       -0.72629378659375
C            1.31842403595785        2.73066680283435       -1.26814124481779
C            2.71441302272803        2.87782218046114       -1.35237992172583
C            3.59310436404036        1.91951804747528       -0.90374356600904
C            3.11236455648268        0.72071132939092       -0.33062730047151
C           -0.50978256598394        1.03439229666760       -0.48386635882413
N           -1.67235848647392        1.56732972013374       -0.73236796545122
C           -2.74701590470061        0.80940643668774       -0.38910858359878
C           -4.03702584293922        1.30594485968423       -0.63156298423150
C           -5.15595378472154        0.57699446087765       -0.29935641559767
C           -6.48647041205628        1.11019480060080       -0.63926225480427
C           -6.83918641076495        2.41923943004861       -0.31566314980063
C           -8.09710049735816        2.87707726551927       -0.67039518257986
N           -8.98903020360193        2.14158700368776       -1.31429168188727
C           -8.64965271236318        0.90392657901843       -1.63667222914052
C           -7.42338063619262        0.34021352342143       -1.32686357393469
C           -5.01080764011752       -0.69245557674174        0.32011581176554
C           -6.18614817340459       -1.45592394771147        0.77443821323360
C           -7.16795581348216       -0.86703324875395        1.56957456060510
C           -8.23826999145216       -1.64032638390690        1.98652321429171
N           -8.38608909490833       -2.91691550467543        1.67122649445153
C           -7.44956966071845       -3.47983171697091        0.92484297800710
C           -6.33456957758353       -2.80470674891644        0.45697079309901
C           -3.75349917330763       -1.20172796921710        0.54959012520237
C           -2.60128087409918       -0.47874653833399        0.20246420753332
N           -1.38094074108905       -1.02267012709434        0.44731375867614
C           -0.36086871616975       -0.28256922399559        0.11121205211429
H            8.15772105578993       -3.66688818267208       -2.75171888838065
H            5.68344772612564       -3.77379970030786       -2.84155270923724
H            4.33593636602812       -2.23188982503114       -1.50497555588260
H            9.24575271824911       -1.94916287098047       -1.32166836438170
H            9.12939052019356        1.52698029040502        1.63314062375907
H            7.92830962675241        3.08905942540408        3.14811218400185
H            5.45670623619856        2.97605891397467        3.28997692215804
H            4.21765451301062        1.37613002728936        1.91656894753659
H            3.80614058366217       -2.32589971232364        1.01700140027046
H            1.35113810043898       -2.50444885267088        1.09566006980749
H            0.66317319766280        3.50914002059740       -1.62690563585683
H            3.10847300882944        3.78347301333753       -1.78932848497271
H            4.65681588479626        2.08274166739557       -0.99151717960873
H           -4.12601154464515        2.26952796167690       -1.11041559441189
H           -6.15064741827037        3.05650750646002        0.21788664555398
H           -8.41203442833539        3.88423691028248       -0.42868275654096
H           -9.40237078467746        0.33750040435851       -2.16985917427304
H           -7.19481913703640       -0.67131976389371       -1.62487035692515
H           -7.09025920919880        0.16761285503080        1.86594160520215
H           -9.02077138405168       -1.21871968887965        2.60436670072292
H           -7.60573490254659       -4.52551398275869        0.69234577606508
H           -5.60252097709779       -3.30703867993037       -0.15673804635000
H           -3.62378569165559       -2.16107981124248        1.02776686917529

          :  Hamiltonian                  GFN2-xTB          :
         :: gradient norm              0.000038638079 Eh/a0 ::
         :: HOMO-LUMO gap              1.156439526165 eV    ::
         :: SCC energy              -118.193975602832 Eh    ::
         :: -> dispersion             -0.101080388980 Eh    ::
         :: -> Gsolv                  -0.050173835905 Eh    ::
         :: repulsion energy           2.038939705215 Eh    ::

    * Orbital Energies and Occupations

         #    Occupation            Energy/Eh            Energy/eV
      -------------------------------------------------------------
         1        2.0000           -0.7350056             -20.0005
       ...           ...                  ...                  ...
        95        2.0000           -0.4276136             -11.6360
        96        2.0000           -0.4244796             -11.5507
        97        2.0000           -0.4237525             -11.5309
        98        2.0000           -0.4207689             -11.4497
        99        2.0000           -0.4192916             -11.4095
       100        2.0000           -0.4175766             -11.3628
       101        2.0000           -0.4054260             -11.0322
       102        2.0000           -0.4008627             -10.9080
       103        2.0000           -0.3951983             -10.7539
       104        2.0000           -0.3773099             -10.2671
       105        2.0000           -0.3764568             -10.2439
       106        2.0000           -0.3632584              -9.8848
       107        2.0000           -0.3500965              -9.5266 (HOMO)
       108                         -0.3075981              -8.3702 (LUMO)
       109                         -0.3067156              -8.3462
       110                         -0.2722352              -7.4079
       111                         -0.2581545              -7.0247
       112                         -0.2499893              -6.8026
       113                         -0.2471859              -6.7263
       114                         -0.2436565              -6.6302
       115                         -0.2425566              -6.6003
       116                         -0.2349501              -6.3933
       117                         -0.2299392              -6.2570
       118                         -0.2258957              -6.1469
       ...                                ...                  ...
       207                          0.7099650              19.3191
      -------------------------------------------------------------
                  HL-Gap            0.0424984 Eh            1.1564 eV

     #   Z          covCN         q      C6AA      α(0)
     1   6 C        2.919    -0.039    28.974     8.827
     2   6 C        2.919    -0.038    28.942     8.822
     3   6 C        2.923    -0.059    29.474     8.903
     4   6 C        2.921     0.041    27.083     8.534
     5   6 C        2.883     0.124    25.286     8.244
     6   6 C        2.919    -0.057    29.408     8.893
     7   8 O        1.708    -0.267    18.433     5.797
     8   6 C        2.883     0.123    25.289     8.244
     9   6 C        2.919    -0.057    29.412     8.893
    10   6 C        2.919    -0.039    28.971     8.826
    11   6 C        2.919    -0.038    28.943     8.822
    12   6 C        2.923    -0.058    29.436     8.897
    13   6 C        2.922     0.042    27.062     8.531
    14   7 N        2.750    -0.065    22.492     7.044
    15   6 C        2.918     0.065    26.555     8.450
    16   6 C        2.922    -0.041    29.027     8.835
    17   6 C        2.911    -0.019    28.491     8.753
    18   6 C        3.028    -0.015    28.351     8.734
    19   6 C        3.136    -0.007    27.972     8.657
    20   6 C        3.027    -0.010    28.229     8.715
    21   6 C        2.912    -0.017    28.432     8.744
    22   6 C        2.919    -0.025    28.632     8.775
    23   6 C        2.917    -0.023    28.581     8.767
    24   6 C        2.976     0.006    27.885     8.662
    25   6 C        3.057     0.088    26.000     8.362
    26   7 N        1.838    -0.257    27.529     7.775
    27   6 C        2.986     0.077    26.269     8.407
    28   6 C        2.925    -0.047    29.158     8.855
    29   6 C        2.975     0.008    27.848     8.656
    30   6 C        2.987     0.032    27.286     8.569
    31   6 C        2.918    -0.044    29.100     8.846
    32   6 C        2.913     0.060    26.645     8.464
    33   7 N        1.835    -0.236    27.012     7.702
    34   6 C        2.913     0.060    26.645     8.464
    35   6 C        2.918    -0.042    29.041     8.837
    36   6 C        2.975     0.008    27.839     8.655
    37   6 C        2.987     0.032    27.282     8.568
    38   6 C        2.918    -0.042    29.040     8.837
    39   6 C        2.913     0.061    26.644     8.464
    40   7 N        1.835    -0.235    27.010     7.702
    41   6 C        2.913     0.060    26.645     8.464
    42   6 C        2.918    -0.044    29.099     8.846
    43   6 C        2.925    -0.047    29.165     8.856
    44   6 C        2.986     0.078    26.253     8.405
    45   7 N        1.838    -0.259    27.574     7.782
    46   6 C        3.056     0.087    26.006     8.363
    47   1 H        0.926     0.045     2.388     2.416
    48   1 H        0.926     0.043     2.404     2.425
    49   1 H        0.926     0.040     2.451     2.448
    50   1 H        0.926     0.051     2.313     2.378
    51   1 H        0.926     0.051     2.310     2.377
    52   1 H        0.926     0.045     2.385     2.415
    53   1 H        0.926     0.043     2.411     2.428
    54   1 H        0.926     0.037     2.491     2.468
    55   1 H        0.926     0.055     2.258     2.350
    56   1 H        0.926     0.059     2.216     2.328
    57   1 H        0.926     0.056     2.242     2.342
    58   1 H        0.926     0.054     2.271     2.356
    59   1 H        0.926     0.048     2.348     2.396
    60   1 H        0.926     0.058     2.223     2.332
    61   1 H        0.926     0.046     2.372     2.408
    62   1 H        0.925     0.043     2.407     2.426
    63   1 H        0.925     0.041     2.441     2.443
    64   1 H        0.926     0.038     2.481     2.463
    65   1 H        0.926     0.038     2.481     2.463
    66   1 H        0.925     0.041     2.439     2.442
    67   1 H        0.925     0.043     2.406     2.426
    68   1 H        0.926     0.046     2.374     2.409
    69   1 H        0.926     0.058     2.227     2.334

molecular dipole:
                 x           y           z       tot (Debye)
 q only:        1.564       0.208      -0.107
   full:        2.167       0.253      -0.131       5.555

 projected vibrational frequencies (cm⁻¹)
eigval :       -0.00    -0.00    -0.00     0.00     0.00     0.00
eigval :       12.91    14.09    20.61    27.40    37.18    42.57
eigval :       44.16    58.22    60.00    68.72    82.50   100.35
eigval :      107.80   112.63   135.76   140.75   158.09   169.18
eigval :      177.09   204.82   209.27   219.81   243.08   249.05
eigval :      257.57   272.05   281.34   299.24   307.95   325.58
eigval :      337.98   340.85   349.62   374.71   387.16   397.18
eigval :      414.76   417.90   423.50   430.43   442.02   450.96
eigval :      468.76   486.70   505.58   507.87   508.20   518.61
eigval :      524.97   540.17   543.88   553.00   566.72   580.47
eigval :      584.25   585.17   588.78   615.66   624.19   630.08
eigval :      648.10   653.40   659.16   661.14   668.16   672.95
eigval :      689.94   701.79   711.08   714.16   731.16   734.36
eigval :      741.16   760.27   776.92   777.20   781.85   797.92
eigval :      798.62   800.80   808.83   835.07   841.98   853.45
eigval :      863.19   863.47   865.28   882.59   889.03   891.06
eigval :      891.80   894.24   896.61   898.23   912.58   914.35
eigval :      914.94   915.09   917.47   920.06   923.24   925.61
eigval :      927.65   942.88   949.73   996.71  1022.18  1041.47
eigval :     1074.05  1076.59  1088.43  1090.06  1096.38  1098.35
eigval :     1105.94  1110.35  1114.53  1116.94  1121.88  1133.11
eigval :     1166.87  1172.50  1181.49  1187.82  1196.38  1197.04
eigval :     1197.91  1202.65  1204.85  1214.46  1226.16  1231.37
eigval :     1241.09  1253.44  1256.02  1258.10  1259.29  1261.01
eigval :     1268.62  1277.69  1279.09  1290.32  1298.24  1304.18
eigval :     1323.89  1336.16  1343.13  1355.25  1367.14  1370.69
eigval :     1376.39  1393.87  1409.61  1411.07  1420.74  1423.63
eigval :     1440.90  1443.78  1470.59  1471.32  1475.06  1477.33
eigval :     1482.67  1498.20  1542.04  1547.47  1549.23  1561.84
eigval :     1566.67  1574.04  1575.30  1577.38  1577.69  1587.38
eigval :     1591.27  1599.54  1604.66  1608.58  3052.46  3052.95
eigval :     3054.07  3054.19  3082.98  3084.91  3088.91  3089.55
eigval :     3090.08  3090.62  3093.08  3093.53  3093.77  3093.80
eigval :     3094.43  3097.28  3097.52  3102.30  3103.40  3105.28
eigval :     3105.65  3110.01  3110.78

   temp. (K)  partition function   enthalpy   heat capacity  entropy
                                   cal/mol     cal/K/mol   cal/K/mol   J/K/mol
 298.15  VIB  0.905E+15            19795.218    127.532    121.769
         ROT  0.833E+08              888.752      2.981     39.225
         INT  0.754E+23            20683.971    130.513    160.994
         TR   0.139E+29             1481.254      4.968     44.987
         TOT                       22165.2245   135.4811   205.9804   861.8221

       T/K    H(0)-H(T)+PV         H(T)/Eh          T*S/Eh         G(T)/Eh
   ------------------------------------------------------------------------
    298.15    0.353225E-01    0.543965E+00    0.978679E-01    0.446097E+00
   ------------------------------------------------------------------------

         :::::::::::::::::::::::::::::::::::::::::::::::::::::
         ::                  THERMODYNAMIC                  ::
         :::::::::::::::::::::::::::::::::::::::::::::::::::::
         :: total free energy        -115.708939220603 Eh   ::
         ::.................................................::
         :: total energy             -116.155035897334 Eh   ::
         :: zero point energy           0.508642088898 Eh   ::
         :: G(RRHO) w/o ZPVE           -0.062545412167 Eh   ::
         :: G(RRHO) contrib.            0.446096676731 Eh   ::
         :::::::::::::::::::::::::::::::::::::::::::::::::::::

           -------------------------------------------------
          | TOTAL ENERGY             -116.155035897334 Eh   |
          | TOTAL ENTHALPY           -115.611071274747 Eh   |
          | TOTAL FREE ENERGY        -115.708939220603 Eh   |
          | GRADIENT NORM               0.000038632262 Eh/α |
          | HOMO-LUMO GAP               1.156440287783 eV   |
           -------------------------------------------------

 * finished run on 2025/08/22 at 12:00:37.045
