   * xtb version 6.7.1 (edcfbbe) compiled by 'albert@albert-system' on 2024-07-22

   ID    Z sym.   atoms
    1    6 C      1-6, 8-13, 15-25, 27-32, 34-39, 41-44, 46
    2    8 O      7
    3    7 N      14, 26, 33, 40, 45
    4    1 H      47-69

          program call               : xtb data2507/toluene/pDPAPQ-PXZ/pDPAPQ-PXZ_toluene_T1_crest.xyz --gfn 2 --uhf 2 --gbsa toluene --ohess vtight --parallel 40 --molden --ceasefiles --namespace data2507/toluene/pDPAPQ-PXZ/pDPAPQ-PXZ_toluene_T1_finalOpt
      * Solvation model:               GBSA
        Solvent                        toluene
        Solvent mass                       9.2140E+01 g/mol
          :  Hamiltonian                  GFN2-xTB          :
 * total energy  :  -116.1027396 Eh     change       -0.8077151E-08 Eh
 * total energy  :  -116.1028269 Eh     change       -0.8729374E-04 Eh
 * total energy  :  -116.1028850 Eh     change       -0.5811734E-04 Eh
 * total energy  :  -116.1028986 Eh     change       -0.1356371E-04 Eh
 * total energy  :  -116.1029088 Eh     change       -0.1018929E-04 Eh
 * total energy  :  -116.1029130 Eh     change       -0.4188953E-05 Eh
 * total energy  :  -116.1029157 Eh     change       -0.2794114E-05 Eh
 * total energy  :  -116.1029182 Eh     change       -0.2494900E-05 Eh
 * total energy  :  -116.1029202 Eh     change       -0.1998711E-05 Eh
 * total energy  :  -116.1029221 Eh     change       -0.1857412E-05 Eh
 * total energy  :  -116.1029243 Eh     change       -0.4458052E-06 Eh
 * total energy  :  -116.1029248 Eh     change       -0.4981188E-06 Eh
 * total energy  :  -116.1029252 Eh     change       -0.3948209E-06 Eh
 * total energy  :  -116.1029255 Eh     change       -0.3030583E-06 Eh
 * total energy  :  -116.1029258 Eh     change       -0.3038850E-06 Eh
 * total energy  :  -116.1029261 Eh     change       -0.2862164E-06 Eh
 * total energy  :  -116.1029263 Eh     change       -0.2224271E-06 Eh
 * total energy  :  -116.1029265 Eh     change       -0.1909609E-06 Eh
 * total energy  :  -116.1029265 Eh     change       -0.2421203E-07 Eh
   *** GEOMETRY OPTIMIZATION CONVERGED AFTER 22 ITERATIONS ***

 final structure:
================
69
 xtb: 6.7.1 (edcfbbe)
C            7.43012947642901       -2.08462494725177        2.77865288770519
C            6.04691767579701       -2.03288643625939        2.85709399683866
C            5.32521044717098       -1.22058286522778        2.00247927651408
C            5.97686013253414       -0.44734108613409        1.04266452600360
C            7.38207325807063       -0.48841176445242        0.98751182708256
C            8.09715565253303       -1.30593750402866        1.84794325629036
O            8.09502560669026        0.27129369296813        0.10274833921160
C            7.39947902779162        1.08425649063936       -0.74795852839456
C            8.13347593640467        1.85448700130607       -1.63564956871856
C            7.48472621735312        2.68270783572069       -2.53596808872897
C            6.09928047173109        2.72882834654311       -2.55568729574380
C            5.35879801907954        1.96449653587148       -1.67320960771063
C            5.99343726731121        1.14108042398579       -0.74425226565010
N            5.28504733982128        0.36816790603745        0.16167769675883
C            3.86542723614997        0.39942326053631        0.18102528264975
C            3.21048940094660        1.52484931086205        0.67314823805078
C            1.82555205074668        1.63585124917756        0.72428935101184
C            1.05991751882990        0.56860603124834        0.25908395969385
C            1.73632426792304       -0.57767149040282       -0.24046944472129
C            0.83466587892488       -1.57378276017054       -0.67531545253541
C            1.33917700218662       -2.75433337492995       -1.19792910699476
C            2.72614219674058       -2.89812172874373       -1.27392598032378
C            3.60879881454455       -1.92159313845218       -0.84855167148814
C            3.12537598234738       -0.71307907960051       -0.30437721237874
C           -0.48350849345712       -1.04395011047673       -0.44243768244430
N           -1.66147173762355       -1.54601225888065       -0.66072621685435
C           -2.75513302934176       -0.82564403062844       -0.35124558032605
C           -4.03644541596335       -1.32379738774943       -0.58149476032121
C           -5.17319706453616       -0.59179293578481       -0.27743217503389
C           -6.48932046659545       -1.14547686204530       -0.61604623780668
C           -7.45800415236330       -0.38555262671498       -1.27495804804539
C           -8.67324398063035       -0.97082368113303       -1.58160174973580
N           -8.98052131457554       -2.22517460558782       -1.28737153593806
C           -8.05906635393663       -2.95262598589434       -0.67396093218773
C           -6.81012257674476       -2.47249418199637       -0.32320051073606
C           -5.03281643567775        0.69117333254636        0.30477622642880
C           -6.20358081407528        1.46890349773023        0.74050335839457
C           -6.33982295582018        2.81577443097154        0.40594597792698
C           -7.44999444845060        3.50702293188308        0.85937708012919
N           -8.39630661085201        2.96350031672653        1.60882612595555
C           -8.26079140392148        1.68894318443112        1.94034145762992
C           -7.19601278365778        0.90106827351375        1.53926619244205
C           -3.77444521120098        1.20896746997128        0.53331871185219
C           -2.60914851194760        0.49353307622245        0.21889576294154
N           -1.39907813396491        1.00281126665030        0.44275644350526
C           -0.33057266062454        0.29565117342251        0.13943380097301
H            7.99134735469536       -2.72144624923363        3.44364346821493
H            5.52264880235081       -2.62667107673541        3.58938797033035
H            4.25009785173584       -1.17823580983655        2.07127201708461
H            9.17272322528976       -1.31374934654071        1.77175113828364
H            9.20917076330635        1.78614749541552       -1.60494606453757
H            8.06095984160897        3.28182418240834       -3.22277201040141
H            5.58776954614314        3.36158362212025       -3.26404101048654
H            4.28133551988388        1.99597621087558       -1.69775417557496
H            3.81452974919579        2.34485361010823        1.03604198345099
H            1.36152708980108        2.52604718809192        1.11849394236976
H            0.68341228127337       -3.54034018955093       -1.53925502199680
H            3.12656646889905       -3.81429743124606       -1.68383790539861
H            4.67220813430227       -2.09046019030727       -0.93353867286048
H           -4.12288759294644       -2.29748241291462       -1.04016433814416
H           -7.25891137107049        0.63717362406392       -1.55579075071600
H           -9.44615790812044       -0.40987952235845       -2.09175823903257
H           -8.34528374520964       -3.97339211166521       -0.45336460931641
H           -6.10210446190568       -3.10639999619264        0.18875706520350
H           -5.60112769991865        3.30355160996308       -0.21181871916841
H           -7.59529812085653        4.55106291268714        0.61205611294361
H           -9.04990375317239        1.28257843763091        2.56024027423082
H           -7.12955728703061       -0.13069291972684        1.84868484322647
H           -3.65853420715044        2.17811793162348        0.99513040772312

          :  Hamiltonian                  GFN2-xTB          :
         :: gradient norm              0.000077808017 Eh/a0 ::
         :: HOMO-LUMO gap              0.053748048856 eV    ::
         :: SCC energy              -118.140921070368 Eh    ::
         :: -> dispersion             -0.100974560993 Eh    ::
         :: -> Gsolv                  -0.051890354322 Eh    ::
         :: repulsion energy           2.037994565286 Eh    ::

    * Orbital Energies and Occupations

         #    Occupation            Energy/Eh            Energy/eV
      -------------------------------------------------------------
         1        2.0000           -0.7538486             -20.5133
       ...           ...                  ...                  ...
        96        2.0000           -0.4243122             -11.5461
        97        2.0000           -0.4230214             -11.5110
        98        2.0000           -0.4187092             -11.3937
        99        2.0000           -0.4126601             -11.2291
       100        2.0000           -0.4100577             -11.1582
       101        2.0000           -0.4079639             -11.1013
       102        2.0000           -0.3943505             -10.7308
       103        2.0000           -0.3875743             -10.5464
       104        2.0000           -0.3738869             -10.1740
       105        2.0000           -0.3720351             -10.1236
       106        1.5819           -0.3602648              -9.8033
       107        1.4181           -0.3596370              -9.7862
       108        0.7388           -0.3014434              -8.2027 (HOMO)
       109        0.2612           -0.2994679              -8.1489 (LUMO)
       110                         -0.2673213              -7.2742
       111                         -0.2581262              -7.0240
       112                         -0.2518869              -6.8542
       113                         -0.2461660              -6.6985
       114                         -0.2425699              -6.6007
       115                         -0.2367702              -6.4428
       116                         -0.2351778              -6.3995
       117                         -0.2321758              -6.3178
       118                         -0.2210777              -6.0158
       119                         -0.2161044              -5.8805
       ...                                ...                  ...
       207                          0.7228816              19.6706
      -------------------------------------------------------------
                  HL-Gap            0.0019755 Eh            0.0538 eV

     #   Z          covCN         q      C6AA      α(0)
     1   6 C        2.919    -0.030    28.751     8.793
     2   6 C        2.918    -0.030    28.748     8.792
     3   6 C        2.921    -0.049    29.222     8.865
     4   6 C        2.926     0.047    26.944     8.512
     5   6 C        2.884     0.130    25.161     8.224
     6   6 C        2.917    -0.052    29.292     8.875
     7   8 O        1.709    -0.231    17.836     5.702
     8   6 C        2.884     0.130    25.157     8.223
     9   6 C        2.917    -0.052    29.289     8.875
    10   6 C        2.919    -0.030    28.752     8.793
    11   6 C        2.918    -0.030    28.748     8.792
    12   6 C        2.921    -0.050    29.254     8.870
    13   6 C        2.925     0.046    26.960     8.515
    14   7 N        2.752    -0.025    21.725     6.923
    15   6 C        2.921     0.029    27.352     8.577
    16   6 C        2.918    -0.042    29.036     8.836
    17   6 C        2.909    -0.038    28.934     8.820
    18   6 C        3.031    -0.023    28.551     8.764
    19   6 C        3.150    -0.012    28.040     8.662
    20   6 C        3.030    -0.019    28.454     8.750
    21   6 C        2.910    -0.029    28.716     8.787
    22   6 C        2.918    -0.032    28.786     8.798
    23   6 C        2.917    -0.040    28.983     8.828
    24   6 C        2.974     0.004    27.920     8.667
    25   6 C        3.043     0.085    26.073     8.375
    26   7 N        1.839    -0.220    26.637     7.649
    27   6 C        2.960     0.076    26.306     8.413
    28   6 C        2.923    -0.054    29.349     8.884
    29   6 C        2.974    -0.004    28.115     8.698
    30   6 C        2.985     0.030    27.331     8.576
    31   6 C        2.918    -0.044    29.101     8.846
    32   6 C        2.913     0.060    26.665     8.468
    33   7 N        1.835    -0.246    27.261     7.737
    34   6 C        2.913     0.059    26.669     8.468
    35   6 C        2.919    -0.047    29.172     8.857
    36   6 C        2.974     0.003    27.959     8.673
    37   6 C        2.987     0.032    27.284     8.568
    38   6 C        2.918    -0.046    29.136     8.851
    39   6 C        2.913     0.060    26.660     8.467
    40   7 N        1.835    -0.241    27.149     7.721
    41   6 C        2.913     0.060    26.653     8.466
    42   6 C        2.918    -0.042    29.055     8.839
    43   6 C        2.924    -0.058    29.438     8.898
    44   6 C        2.956     0.082    26.162     8.389
    45   7 N        1.839    -0.227    26.813     7.674
    46   6 C        3.038     0.066    26.489     8.442
    47   1 H        0.926     0.058     2.226     2.333
    48   1 H        0.926     0.055     2.262     2.352
    49   1 H        0.926     0.051     2.303     2.373
    50   1 H        0.926     0.064     2.157     2.297
    51   1 H        0.926     0.064     2.157     2.297
    52   1 H        0.926     0.058     2.226     2.333
    53   1 H        0.926     0.055     2.256     2.349
    54   1 H        0.926     0.053     2.283     2.363
    55   1 H        0.926     0.041     2.431     2.438
    56   1 H        0.926     0.039     2.459     2.452
    57   1 H        0.926     0.038     2.470     2.458
    58   1 H        0.926     0.039     2.460     2.453
    59   1 H        0.926     0.031     2.576     2.510
    60   1 H        0.926     0.051     2.313     2.378
    61   1 H        0.926     0.032     2.556     2.500
    62   1 H        0.925     0.035     2.514     2.479
    63   1 H        0.925     0.038     2.478     2.462
    64   1 H        0.926     0.041     2.442     2.444
    65   1 H        0.926     0.042     2.419     2.432
    66   1 H        0.925     0.040     2.448     2.447
    67   1 H        0.925     0.038     2.482     2.463
    68   1 H        0.926     0.034     2.527     2.486
    69   1 H        0.926     0.049     2.327     2.385

molecular dipole:
                 x           y           z       tot (Debye)
 q only:        5.074       0.159       0.068
   full:        5.586       0.089       0.036      14.200

 projected vibrational frequencies (cm⁻¹)
eigval :       -0.00    -0.00    -0.00    -0.00     0.00     0.00
eigval :       12.40    14.74    22.64    28.83    37.23    44.55
eigval :       47.91    60.44    61.79    72.60    82.14   104.87
eigval :      107.40   109.98   134.25   140.27   164.38   171.31
eigval :      176.40   202.09   208.83   219.59   241.80   244.17
eigval :      261.14   266.79   279.29   298.76   312.30   336.08
eigval :      339.22   343.92   345.08   364.89   388.75   390.49
eigval :      412.11   416.51   427.74   434.30   443.52   446.93
eigval :      453.95   480.54   497.54   500.86   504.79   514.03
eigval :      523.80   525.03   537.13   543.79   555.02   569.79
eigval :      575.55   579.45   583.60   609.79   616.81   623.80
eigval :      629.51   648.50   649.22   657.85   666.56   668.72
eigval :      671.04   682.57   697.52   707.46   709.51   712.00
eigval :      722.07   731.02   771.36   773.77   775.39   777.22
eigval :      794.71   798.35   804.28   808.89   830.17   835.93
eigval :      844.66   855.31   859.63   866.48   867.02   871.16
eigval :      886.91   888.56   891.79   900.47   901.74   902.64
eigval :      912.24   913.96   914.39   915.38   918.02   918.54
eigval :      922.82   922.88   933.23   943.72   996.22  1016.07
eigval :     1031.94  1042.33  1074.23  1077.66  1082.34  1084.13
eigval :     1096.18  1097.31  1112.00  1112.62  1115.22  1117.34
eigval :     1128.91  1164.46  1170.62  1171.33  1182.85  1191.70
eigval :     1202.23  1203.14  1205.42  1206.34  1218.81  1222.92
eigval :     1236.20  1238.68  1245.83  1251.26  1261.32  1262.20
eigval :     1267.80  1273.18  1280.33  1282.08  1288.87  1294.59
eigval :     1305.59  1309.63  1316.46  1334.51  1344.31  1347.39
eigval :     1368.04  1372.16  1373.07  1392.46  1409.20  1415.69
eigval :     1417.73  1432.04  1437.68  1438.93  1460.01  1469.94
eigval :     1473.08  1476.18  1479.48  1487.25  1534.94  1537.03
eigval :     1542.01  1547.96  1553.71  1561.82  1562.86  1569.18
eigval :     1573.72  1575.27  1582.61  1585.86  3048.62  3049.94
eigval :     3050.74  3051.59  3072.21  3073.97  3083.48  3086.09
eigval :     3086.39  3088.18  3088.58  3090.69  3091.19  3095.76
eigval :     3096.42  3096.58  3099.50  3103.84  3104.12  3111.85
eigval :     3112.80  3115.18  3115.85

   temp. (K)  partition function   enthalpy   heat capacity  entropy
                                   cal/mol     cal/K/mol   cal/K/mol   J/K/mol
 298.15  VIB  0.710E+15            19964.032    129.505    122.428
         ROT  0.835E+08              888.752      2.981     39.229
         INT  0.593E+23            20852.784    132.486    161.657
         TR   0.139E+29             1481.254      4.968     44.987
         TOT                       22334.0383   137.4540   206.6431   864.5948

       T/K    H(0)-H(T)+PV         H(T)/Eh          T*S/Eh         G(T)/Eh
   ------------------------------------------------------------------------
    298.15    0.355916E-01    0.539971E+00    0.981828E-01    0.441788E+00
   ------------------------------------------------------------------------

         :::::::::::::::::::::::::::::::::::::::::::::::::::::
         ::                  THERMODYNAMIC                  ::
         :::::::::::::::::::::::::::::::::::::::::::::::::::::
         :: total free energy        -115.661138554732 Eh   ::
         ::.................................................::
         :: total energy             -116.102926510196 Eh   ::
         :: zero point energy           0.504379214494 Eh   ::
         :: G(RRHO) w/o ZPVE           -0.062591259030 Eh   ::
         :: G(RRHO) contrib.            0.441787955464 Eh   ::
         :::::::::::::::::::::::::::::::::::::::::::::::::::::

           -------------------------------------------------
          | TOTAL ENERGY             -116.102926510196 Eh   |
          | TOTAL ENTHALPY           -115.562955740130 Eh   |
          | TOTAL FREE ENERGY        -115.661138554732 Eh   |
          | GRADIENT NORM               0.000065550766 Eh/α |
          | HOMO-LUMO GAP               0.053756025887 eV   |
           -------------------------------------------------

 * finished run on 2025/08/22 at 12:05:32.354
