   * xtb version 6.7.1 (edcfbbe) compiled by 'albert@albert-system' on 2024-07-22

   ID    Z sym.   atoms
    1    6 C      1-6, 8-26
    2    7 N      7
    3    1 H      27-43

          program call               : xtb data2507/toluene/FAC/FAC_toluene_S0_finalOpt.xtbopt.xyz --gfn 2 --uhf 2 --gbsa toluene --ohess vtight --parallel 40 --molden --ceasefiles --namespace data2507/toluene/FAC/FAC_toluene_T1_preOpt
      * Solvation model:               GBSA
        Solvent                        toluene
        Solvent mass                       9.2140E+01 g/mol
          :  Hamiltonian                  GFN2-xTB          :
 * total energy  :   -65.0599035 Eh     change       -0.1158628E-07 Eh
 * total energy  :   -65.0648193 Eh     change       -0.4915801E-02 Eh
 * total energy  :   -65.0668341 Eh     change       -0.2014867E-02 Eh
 * total energy  :   -65.0672652 Eh     change       -0.4310224E-03 Eh
 * total energy  :   -65.0683805 Eh     change       -0.1115296E-02 Eh
 * total energy  :   -65.0686991 Eh     change       -0.3186622E-03 Eh
 * total energy  :   -65.0688047 Eh     change       -0.1055555E-03 Eh
 * total energy  :   -65.0688083 Eh     change       -0.3596580E-05 Eh
 * total energy  :   -65.0688090 Eh     change       -0.7234583E-06 Eh
 * total energy  :   -65.0688087 Eh     change        0.2471781E-06 Eh
 * total energy  :   -65.0688100 Eh     change       -0.3496603E-06 Eh
 * total energy  :   -65.0688106 Eh     change       -0.5260704E-06 Eh
 * total energy  :   -65.0688113 Eh     change       -0.7772164E-06 Eh
 * total energy  :   -65.0688123 Eh     change       -0.9565764E-06 Eh
 * total energy  :   -65.0688132 Eh     change       -0.9544195E-06 Eh
 * total energy  :   -65.0688140 Eh     change       -0.7430821E-06 Eh
 * total energy  :   -65.0688145 Eh     change       -0.5403583E-06 Eh
 * total energy  :   -65.0688149 Eh     change       -0.3750135E-06 Eh
 * total energy  :   -65.0688149 Eh     change       -0.1679429E-07 Eh
   *** GEOMETRY OPTIMIZATION CONVERGED AFTER 22 ITERATIONS ***

 final structure:
================
43
 xtb: 6.7.1 (edcfbbe)
C           -2.37783795877292        3.63468388207819       -0.09452056857151
C           -0.99139083459657        3.67559870964108       -0.15435654325438
C           -0.26534652656427        2.49753930423779       -0.14337955726481
C           -0.89931448267849        1.26563153011849       -0.07678781414369
C           -2.29906827893853        1.22992092274580       -0.02017012578516
C           -3.02923636742539        2.42113885293308       -0.02856771159842
N           -2.95567856003900        0.02568594105717        0.04050250622608
C           -2.31950439200476       -1.19007920933062       -0.00568617841550
C           -3.06957838034319       -2.36887266368123        0.00079954558655
C           -2.43867955320295       -3.59384982626405       -0.05128076937878
C           -1.05315405778240       -3.65880621749470       -0.11212804554101
C           -0.30739183243411       -2.49308480284112       -0.11560189776404
C           -0.92059011264505       -1.25004839141565       -0.06240145907781
C           -0.07697501104301        0.00083285246678       -0.04131209637076
C            0.82504616262446        0.00026664245511        1.18497078418827
C            0.47182753530148        0.00798485246197        2.49688236749500
C            1.48143826538181        0.00532999803813        3.47869553341844
C            2.84026118753345       -0.00490937875009        3.10216295184071
C            3.22214142667459       -0.01304143902009        1.79300687344514
C            2.21584896195318       -0.01134739954260        0.77517446273897
C            2.28922051494771       -0.02022343297775       -0.60839699491022
C            3.39747879528951       -0.03435992131723       -1.51405592500775
C            3.15529235030428       -0.04302452642189       -2.85664806223317
C            1.84447519101849       -0.03837572813647       -3.37409754424562
C            0.73644532952411       -0.02390444591861       -2.50389053320643
C            0.94935436102593       -0.01458428612125       -1.16229508479680
H           -2.94847431951124        4.55115886717067       -0.10105288943106
H           -0.47823119281029        4.62362482158852       -0.20714681835065
H            0.81345117875050        2.52630731940282       -0.18591610783952
H           -4.10829283329422        2.37915140093167        0.01574124679718
H           -3.96610361179067        0.03441035235728        0.07554147737355
H           -4.14772310542366       -2.30821465767698        0.04561725902827
H           -3.02461097634538       -4.50063493485169       -0.04617790701993
H           -0.55614126433654       -4.61593713647684       -0.15441974177421
H            0.77077772155621       -2.54018265168773       -0.15889396904027
H           -0.56721929200360        0.01600979370326        2.79712514722598
H            1.21479601523677        0.01140601466212        4.52391227609113
H            3.59035958227287       -0.00632906429304        3.88165579738027
H            4.26427232936163       -0.02097519636224        1.51007182105338
H            4.40403227469524       -0.03818634763085       -1.12310165111828
H            3.98338882013832       -0.05389490799411       -3.55263482784917
H            1.68893357516231       -0.04556849347744       -4.44144747338425
H           -0.26541828906385       -0.02029394276762       -2.91155028762549

          :  Hamiltonian                  GFN2-xTB          :
         :: gradient norm              0.000079001799 Eh/a0 ::
         :: HOMO-LUMO gap              0.459565972615 eV    ::
         :: SCC energy               -66.293501834506 Eh    ::
         :: -> dispersion             -0.060253129909 Eh    ::
         :: -> Gsolv                  -0.026752983913 Eh    ::
         :: repulsion energy           1.224686909195 Eh    ::

    * Orbital Energies and Occupations

         #    Occupation            Energy/Eh            Energy/eV
      -------------------------------------------------------------
         1        2.0000           -0.6815586             -18.5462
       ...           ...                  ...                  ...
        50        2.0000           -0.4284963             -11.6600
        51        2.0000           -0.4181212             -11.3777
        52        2.0000           -0.4152567             -11.2997
        53        2.0000           -0.4151590             -11.2971
        54        2.0000           -0.4115471             -11.1988
        55        2.0000           -0.4108504             -11.1798
        56        2.0000           -0.4084705             -11.1150
        57        2.0000           -0.3969136             -10.8006
        58        2.0000           -0.3946475             -10.7389
        59        2.0000           -0.3915693             -10.6551
        60        1.7185           -0.3599457              -9.7946
        61        1.2815           -0.3581649              -9.7462
        62        0.9999           -0.2551974              -6.9443 (HOMO)
        63        0.0001           -0.2383083              -6.4847 (LUMO)
        64                         -0.2303314              -6.2676
        65                         -0.2293486              -6.2409
        66                         -0.2108642              -5.7379
        67                         -0.2038502              -5.5470
        68                         -0.2009696              -5.4687
        69                         -0.1806396              -4.9155
        70                         -0.1072280              -2.9178
        71                         -0.1027384              -2.7957
        72                         -0.0906213              -2.4659
        73                         -0.0527682              -1.4359
       ...                                ...                  ...
       121                          0.7439949              20.2451
      -------------------------------------------------------------
                  HL-Gap            0.0168892 Eh            0.4596 eV

     #   Z          covCN         q      C6AA      α(0)
     1   6 C        2.918    -0.029    28.717     8.788
     2   6 C        2.918    -0.035    28.881     8.813
     3   6 C        2.923    -0.031    28.784     8.798
     4   6 C        2.981     0.001    28.006     8.681
     5   6 C        2.917     0.066    26.523     8.445
     6   6 C        2.922    -0.057    29.406     8.893
     7   7 N        2.704    -0.110    23.397     7.184
     8   6 C        2.917     0.066    26.523     8.445
     9   6 C        2.922    -0.057    29.406     8.893
    10   6 C        2.918    -0.029    28.717     8.788
    11   6 C        2.918    -0.035    28.881     8.813
    12   6 C        2.923    -0.031    28.784     8.798
    13   6 C        2.981     0.001    28.005     8.681
    14   6 C        3.937     0.013    20.288     6.401
    15   6 C        3.048    -0.005    28.104     8.695
    16   6 C        2.904    -0.039    28.973     8.826
    17   6 C        2.918    -0.050    29.248     8.868
    18   6 C        2.910    -0.034    28.844     8.806
    19   6 C        2.905    -0.045    29.128     8.849
    20   6 C        3.020    -0.011    28.267     8.721
    21   6 C        3.020    -0.011    28.259     8.720
    22   6 C        2.905    -0.046    29.141     8.852
    23   6 C        2.910    -0.034    28.837     8.805
    24   6 C        2.918    -0.050    29.242     8.868
    25   6 C        2.904    -0.039    28.963     8.824
    26   6 C        3.047    -0.005    28.112     8.696
    27   1 H        0.926     0.043     2.408     2.427
    28   1 H        0.926     0.039     2.464     2.455
    29   1 H        0.926     0.036     2.503     2.474
    30   1 H        0.926     0.040     2.448     2.447
    31   1 H        0.860     0.175     1.244     1.747
    32   1 H        0.926     0.040     2.448     2.447
    33   1 H        0.926     0.043     2.408     2.427
    34   1 H        0.926     0.039     2.464     2.455
    35   1 H        0.926     0.036     2.504     2.475
    36   1 H        0.925     0.015     2.809     2.621
    37   1 H        0.926     0.019     2.750     2.593
    38   1 H        0.925     0.020     2.735     2.586
    39   1 H        0.926     0.020     2.738     2.588
    40   1 H        0.926     0.019     2.746     2.591
    41   1 H        0.925     0.020     2.739     2.588
    42   1 H        0.926     0.019     2.753     2.594
    43   1 H        0.925     0.015     2.810     2.621

molecular dipole:
                 x           y           z       tot (Debye)
 q only:       -2.062       0.018      -0.026
   full:       -2.166       0.018      -0.020       5.507

 projected vibrational frequencies (cm⁻¹)
eigval :       -0.00    -0.00    -0.00    -0.00     0.00     0.00
eigval :        5.87    38.64    45.14    66.02    68.57   110.63
eigval :      117.82   149.71   193.42   207.26   225.56   226.76
eigval :      275.83   283.91   311.80   322.70   387.27   390.67
eigval :      391.57   406.90   417.09   429.07   432.89   468.39
eigval :      490.59   492.47   508.02   519.50   528.01   555.84
eigval :      582.47   594.48   596.23   639.25   639.57   655.96
eigval :      678.95   681.86   689.30   694.35   694.51   728.26
eigval :      761.66   767.18   773.14   788.95   821.69   861.61
eigval :      863.12   864.04   872.40   879.17   879.45   896.53
eigval :      897.85   898.19   910.28   912.28   913.68   919.58
eigval :      919.59   956.06  1023.48  1033.20  1065.40  1087.88
eigval :     1092.63  1093.60  1123.41  1136.41  1138.05  1146.46
eigval :     1164.37  1167.42  1176.83  1177.17  1196.02  1196.47
eigval :     1219.92  1235.59  1248.54  1255.59  1270.66  1272.82
eigval :     1294.86  1298.53  1325.73  1331.67  1333.95  1352.93
eigval :     1357.28  1368.13  1376.06  1436.07  1441.07  1462.97
eigval :     1472.89  1488.86  1494.02  1541.67  1551.19  1558.13
eigval :     1568.58  1574.98  1589.21  1630.50  3055.69  3056.72
eigval :     3057.79  3058.77  3069.80  3070.15  3075.60  3077.68
eigval :     3082.77  3083.81  3088.54  3089.71  3091.02  3092.01
eigval :     3098.61  3099.45  3407.58

   temp. (K)  partition function   enthalpy   heat capacity  entropy
                                   cal/mol     cal/K/mol   cal/K/mol   J/K/mol
 298.15  VIB  0.376E+08            10808.654     74.897     65.070
         ROT  0.834E+07              888.752      2.981     34.652
         INT  0.314E+15            11697.406     77.878     99.722
         TR   0.584E+28             1481.254      4.968     43.270
         TOT                       13178.6598    82.8458   142.9918   598.2779

       T/K    H(0)-H(T)+PV         H(T)/Eh          T*S/Eh         G(T)/Eh
   ------------------------------------------------------------------------
    298.15    0.210015E-01    0.349802E+00    0.679400E-01    0.281861E+00
   ------------------------------------------------------------------------

         :::::::::::::::::::::::::::::::::::::::::::::::::::::
         ::                  THERMODYNAMIC                  ::
         :::::::::::::::::::::::::::::::::::::::::::::::::::::
         :: total free energy         -64.786953450045 Eh   ::
         ::.................................................::
         :: total energy              -65.068814925397 Eh   ::
         :: zero point energy           0.328799985132 Eh   ::
         :: G(RRHO) w/o ZPVE           -0.046938509780 Eh   ::
         :: G(RRHO) contrib.            0.281861475352 Eh   ::
         :::::::::::::::::::::::::::::::::::::::::::::::::::::

           -------------------------------------------------
          | TOTAL ENERGY              -65.068814925397 Eh   |
          | TOTAL ENTHALPY            -64.719013409089 Eh   |
          | TOTAL FREE ENERGY         -64.786953450045 Eh   |
          | GRADIENT NORM               0.000081658902 Eh/α |
          | HOMO-LUMO GAP               0.459577279585 eV   |
           -------------------------------------------------

 * finished run on 2025/09/04 at 12:56:27.457
