   * xtb version 6.7.1 (edcfbbe) compiled by 'albert@albert-system' on 2024-07-22

   ID    Z sym.   atoms
    1    6 C      1-6, 8-26
    2    7 N      7
    3    1 H      27-43

          program call               : xtb data2507/toluene/FAC/FAC_toluene_S0_crest.xyz --gfn 2 --gbsa toluene --ohess vtight --parallel 40 --molden --ceasefiles --namespace data2507/toluene/FAC/FAC_toluene_S0_finalOpt
      * Solvation model:               GBSA
        Solvent                        toluene
        Solvent mass                       9.2140E+01 g/mol
          :  Hamiltonian                  GFN2-xTB          :
 * total energy  :   -65.1791758 Eh     change       -0.4807816E-09 Eh
 * total energy  :   -65.1791874 Eh     change       -0.1158691E-04 Eh
 * total energy  :   -65.1791885 Eh     change       -0.1105154E-05 Eh
 * total energy  :   -65.1791883 Eh     change        0.1587841E-06 Eh
 * total energy  :   -65.1791891 Eh     change       -0.7998436E-06 Eh
 * total energy  :   -65.1791895 Eh     change       -0.3828551E-06 Eh
 * total energy  :   -65.1791899 Eh     change       -0.3855101E-06 Eh
 * total energy  :   -65.1791904 Eh     change       -0.4927694E-06 Eh
 * total energy  :   -65.1791910 Eh     change       -0.6372108E-06 Eh
 * total energy  :   -65.1791916 Eh     change       -0.5689341E-06 Eh
 * total energy  :   -65.1791918 Eh     change       -0.2677395E-06 Eh
 * total energy  :   -65.1791920 Eh     change       -0.1408809E-06 Eh
 * total energy  :   -65.1791921 Eh     change       -0.1620733E-06 Eh
 * total energy  :   -65.1791923 Eh     change       -0.1463049E-06 Eh
 * total energy  :   -65.1791924 Eh     change       -0.8015581E-07 Eh
   *** GEOMETRY OPTIMIZATION CONVERGED AFTER 15 ITERATIONS ***

 final structure:
================
43
 xtb: 6.7.1 (edcfbbe)
C           -2.36010171682381        3.63820015193512       -0.10391230346494
C           -0.97582103602088        3.68130980704408       -0.14141890951384
C           -0.25329714446299        2.50088811314772       -0.12138577981387
C           -0.88964527167099        1.27035052733461       -0.06625238264848
C           -2.28597521697507        1.23126420976272       -0.03047328656364
C           -3.01164417375017        2.42241188880843       -0.04998246966793
N           -2.94683431616467        0.02528117430193        0.02634935410290
C           -2.30491873897943       -1.19143979270258       -0.01710114448734
C           -3.04898960328648       -2.37132175357307       -0.02386364930234
C           -2.41637022477830       -3.59756518832050       -0.06451025828962
C           -1.03290280314509       -3.66261655998092       -0.10121343765922
C           -0.29214493372758       -2.49340695845726       -0.09389323142519
C           -0.90941413977381       -1.25267272881519       -0.05201391995675
C           -0.06371669315621        0.00250112890464       -0.02725546910227
C            0.84139477725211        0.00192469297885        1.19151359799882
C            0.48130137384498        0.01268013802730        2.52117271152514
C            1.48536160767899        0.00861398157234        3.48081421204635
C            2.82150365770613       -0.00558303172275        3.10947214593650
C            3.18835170720664       -0.01634263386969        1.77281485181766
C            2.19089525084259       -0.01268605060967        0.81128279995482
C            2.26121942674123       -0.02265158976585       -0.64273863892884
C            3.34689524129524       -0.03967391435074       -1.50326633995387
C            3.11067689350625       -0.04742316788830       -2.86916289792153
C            1.81652460770199       -0.03838898707091       -3.36760917443603
C            0.72441165969723       -0.02125166985924       -2.50955709441585
C            0.95415369084951       -0.01344002164030       -1.15123616767394
H           -2.93356181455978        4.55344784763013       -0.11760117722768
H           -0.46047910555704        4.62894593011058       -0.18388469410801
H            0.82664468698619        2.53074578166922       -0.14723487201937
H           -4.09170328028434        2.38118866819803       -0.02166925972912
H           -3.95560827860414        0.03322984133372        0.03399036899361
H           -4.12827592136156       -2.31301529290326        0.00366393119669
H           -3.00395583997338       -4.50390510699000       -0.06848865466495
H           -0.53238688575132       -4.61858410531423       -0.13336361476127
H            0.78724958048111       -2.54003675648123       -0.11955457923543
H           -0.55946150774295        0.02371345759759        2.81179042042666
H            1.22233431864469        0.01659087197242        4.52876383975460
H            3.58625907658541       -0.00844481216097        3.87304806918769
H            4.23056996550883       -0.02749097445470        1.48907588776862
H            4.35679868511146       -0.04704574029932       -1.12008627836300
H            3.94530772787484       -0.06092261252641       -3.55550988293056
H            1.65568542617282       -0.04486779871547       -4.43597092355228
H           -0.28345005833826       -0.01455203575703       -2.89959642269287

          :  Hamiltonian                  GFN2-xTB          :
         :: gradient norm              0.000038016025 Eh/a0 ::
         :: HOMO-LUMO gap              2.709094131703 eV    ::
         :: SCC energy               -66.425031513198 Eh    ::
         :: -> dispersion             -0.060437031528 Eh    ::
         :: -> Gsolv                  -0.025097005669 Eh    ::
         :: repulsion energy           1.245839139334 Eh    ::

    * Orbital Energies and Occupations

         #    Occupation            Energy/Eh            Energy/eV
      -------------------------------------------------------------
         1        2.0000           -0.6687704             -18.1982
       ...           ...                  ...                  ...
        49        2.0000           -0.4300206             -11.7015
        50        2.0000           -0.4248840             -11.5617
        51        2.0000           -0.4215672             -11.4714
        52        2.0000           -0.4206380             -11.4461
        53        2.0000           -0.4193996             -11.4124
        54        2.0000           -0.4112185             -11.1898
        55        2.0000           -0.4096730             -11.1478
        56        2.0000           -0.4057236             -11.0403
        57        2.0000           -0.3968431             -10.7987
        58        2.0000           -0.3945568             -10.7364
        59        2.0000           -0.3924439             -10.6789
        60        2.0000           -0.3781104             -10.2889
        61        2.0000           -0.3501750              -9.5287 (HOMO)
        62                         -0.2506176              -6.8197 (LUMO)
        63                         -0.2303562              -6.2683
        64                         -0.2237390              -6.0882
        65                         -0.2225468              -6.0558
        66                         -0.2216595              -6.0317
        67                         -0.2142456              -5.8299
        68                         -0.1905293              -5.1846
        69                         -0.1883047              -5.1240
        70                         -0.1089607              -2.9650
        71                         -0.0933887              -2.5412
        72                         -0.0807981              -2.1986
       ...                                ...                  ...
       121                          0.7293702              19.8472
      -------------------------------------------------------------
                  HL-Gap            0.0995574 Eh            2.7091 eV

     #   Z          covCN         q      C6AA      α(0)
     1   6 C        2.919    -0.033    28.822     8.804
     2   6 C        2.918    -0.045    29.118     8.849
     3   6 C        2.925    -0.036    28.895     8.815
     4   6 C        2.981    -0.008    28.202     8.711
     5   6 C        2.916     0.065    26.552     8.450
     6   6 C        2.924    -0.063    29.557     8.916
     7   7 N        2.703    -0.142    24.079     7.288
     8   6 C        2.916     0.065    26.552     8.450
     9   6 C        2.924    -0.063    29.557     8.916
    10   6 C        2.919    -0.033    28.822     8.804
    11   6 C        2.918    -0.045    29.118     8.849
    12   6 C        2.925    -0.036    28.896     8.815
    13   6 C        2.982    -0.008    28.201     8.711
    14   6 C        3.947     0.012    20.305     6.403
    15   6 C        3.058     0.002    27.927     8.666
    16   6 C        2.914    -0.034    28.850     8.808
    17   6 C        2.922    -0.033    28.823     8.804
    18   6 C        2.921    -0.034    28.841     8.807
    19   6 C        2.914    -0.035    28.882     8.813
    20   6 C        3.034     0.000    27.993     8.678
    21   6 C        3.034     0.000    27.993     8.678
    22   6 C        2.914    -0.036    28.886     8.813
    23   6 C        2.921    -0.034    28.840     8.807
    24   6 C        2.922    -0.033    28.822     8.804
    25   6 C        2.914    -0.034    28.838     8.806
    26   6 C        3.057     0.002    27.926     8.666
    27   1 H        0.926     0.032     2.551     2.498
    28   1 H        0.926     0.028     2.610     2.526
    29   1 H        0.926     0.026     2.641     2.541
    30   1 H        0.925     0.029     2.602     2.522
    31   1 H        0.860     0.163     1.313     1.795
    32   1 H        0.925     0.029     2.602     2.522
    33   1 H        0.926     0.032     2.551     2.498
    34   1 H        0.926     0.028     2.610     2.526
    35   1 H        0.926     0.026     2.641     2.541
    36   1 H        0.926     0.026     2.645     2.543
    37   1 H        0.926     0.032     2.565     2.504
    38   1 H        0.926     0.032     2.562     2.503
    39   1 H        0.926     0.032     2.555     2.499
    40   1 H        0.926     0.032     2.558     2.501
    41   1 H        0.926     0.032     2.564     2.504
    42   1 H        0.926     0.031     2.566     2.505
    43   1 H        0.926     0.026     2.649     2.545

molecular dipole:
                 x           y           z       tot (Debye)
 q only:       -0.522       0.004       0.013
   full:       -0.643       0.004       0.006       1.634

 projected vibrational frequencies (cm⁻¹)
eigval :       -0.00    -0.00    -0.00    -0.00     0.00     0.00
eigval :        6.78    39.44    45.65    65.64    82.83   110.27
eigval :      139.81   151.36   188.04   228.30   235.16   246.08
eigval :      280.34   292.99   313.36   382.27   393.12   393.93
eigval :      413.93   422.79   424.70   458.25   460.26   463.55
eigval :      500.21   509.71   513.56   539.80   560.04   587.44
eigval :      599.81   600.47   603.41   645.90   674.97   685.27
eigval :      686.31   687.67   729.97   752.84   767.24   771.22
eigval :      776.48   785.43   825.75   861.41   861.64   877.70
eigval :      879.44   880.74   891.55   906.87   908.52   909.45
eigval :      912.76   918.23   919.34   919.92   925.27   927.06
eigval :      932.85  1005.38  1072.86  1078.27  1088.04  1098.11
eigval :     1098.89  1124.88  1141.01  1145.74  1174.50  1175.29
eigval :     1179.85  1180.13  1183.06  1202.93  1203.08  1217.15
eigval :     1236.01  1239.53  1258.13  1264.24  1274.00  1277.10
eigval :     1282.64  1324.71  1332.11  1334.06  1364.97  1377.50
eigval :     1427.37  1428.64  1440.49  1459.68  1466.21  1469.53
eigval :     1492.98  1493.57  1578.14  1584.47  1588.50  1589.70
eigval :     1594.89  1600.02  1603.09  1603.41  3063.07  3063.35
eigval :     3067.17  3067.72  3071.07  3071.97  3075.81  3076.35
eigval :     3078.09  3078.89  3079.46  3080.16  3086.25  3088.19
eigval :     3092.82  3093.82  3437.90

   temp. (K)  partition function   enthalpy   heat capacity  entropy
                                   cal/mol     cal/K/mol   cal/K/mol   J/K/mol
 298.15  VIB  0.157E+08            10374.918     72.503     62.212
         ROT  0.827E+07              888.752      2.981     34.635
         INT  0.130E+15            11263.670     75.484     96.847
         TR   0.584E+28             1481.254      4.968     43.270
         TOT                       12744.9241    80.4520   140.1169   586.2492

       T/K    H(0)-H(T)+PV         H(T)/Eh          T*S/Eh         G(T)/Eh
   ------------------------------------------------------------------------
    298.15    0.203103E-01    0.354067E+00    0.665741E-01    0.287492E+00
   ------------------------------------------------------------------------

         :::::::::::::::::::::::::::::::::::::::::::::::::::::
         ::                  THERMODYNAMIC                  ::
         :::::::::::::::::::::::::::::::::::::::::::::::::::::
         :: total free energy         -64.891699931287 Eh   ::
         ::.................................................::
         :: total energy              -65.179192373983 Eh   ::
         :: zero point energy           0.333756181617 Eh   ::
         :: G(RRHO) w/o ZPVE           -0.046263738921 Eh   ::
         :: G(RRHO) contrib.            0.287492442696 Eh   ::
         :::::::::::::::::::::::::::::::::::::::::::::::::::::

           -------------------------------------------------
          | TOTAL ENERGY              -65.179192373983 Eh   |
          | TOTAL ENTHALPY            -64.825125863003 Eh   |
          | TOTAL FREE ENERGY         -64.891699931287 Eh   |
          | GRADIENT NORM               0.000037997209 Eh/α |
          | HOMO-LUMO GAP               2.709094697397 eV   |
           -------------------------------------------------

 * finished run on 2025/09/04 at 12:56:25.576
