   * xtb version 6.7.1 (edcfbbe) compiled by 'albert@albert-system' on 2024-07-22

   ID    Z sym.   atoms
    1    6 C      1-6, 8-26
    2    7 N      7
    3    1 H      27-43

          program call               : xtb data2507/toluene/FAC/FAC_toluene_T1_crest.xyz --gfn 2 --uhf 2 --gbsa toluene --ohess vtight --parallel 40 --molden --ceasefiles --namespace data2507/toluene/FAC/FAC_toluene_T1_finalOpt
      * Solvation model:               GBSA
        Solvent                        toluene
        Solvent mass                       9.2140E+01 g/mol
          :  Hamiltonian                  GFN2-xTB          :
 * total energy  :   -65.0687360 Eh     change       -0.3521734E-09 Eh
 * total energy  :   -65.0687646 Eh     change       -0.2858309E-04 Eh
 * total energy  :   -65.0687747 Eh     change       -0.1011094E-04 Eh
 * total energy  :   -65.0687788 Eh     change       -0.4037230E-05 Eh
 * total energy  :   -65.0687832 Eh     change       -0.4438559E-05 Eh
 * total energy  :   -65.0687876 Eh     change       -0.4340166E-05 Eh
 * total energy  :   -65.0687913 Eh     change       -0.3729045E-05 Eh
 * total energy  :   -65.0687943 Eh     change       -0.2980360E-05 Eh
 * total energy  :   -65.0687957 Eh     change       -0.1399513E-05 Eh
 * total energy  :   -65.0687963 Eh     change       -0.6751278E-06 Eh
 * total energy  :   -65.0687968 Eh     change       -0.4765852E-06 Eh
 * total energy  :   -65.0687971 Eh     change       -0.3300083E-06 Eh
 * total energy  :   -65.0687974 Eh     change       -0.2462950E-06 Eh
 * total energy  :   -65.0687976 Eh     change       -0.1709072E-06 Eh
 * total energy  :   -65.0687977 Eh     change       -0.1123498E-06 Eh
 * total energy  :   -65.0687978 Eh     change       -0.9475342E-07 Eh
   *** GEOMETRY OPTIMIZATION CONVERGED AFTER 16 ITERATIONS ***

 final structure:
================
43
 xtb: 6.7.1 (edcfbbe)
C           -2.38495396221044        3.60559683876850       -0.39858572163995
C           -1.00079550347382        3.64669149858031       -0.49980404298312
C           -0.26747478980210        2.47569170827734       -0.42019821393624
C           -0.89241685659387        1.24986948708098       -0.24496997382929
C           -2.29083999327748        1.21307611219570       -0.15356830834974
C           -3.02776422440001        2.39759272596661       -0.22786414957860
N           -2.93866162438192        0.01226948109480        0.00159646402701
C           -2.30156405757414       -1.20342927795227       -0.03802501589920
C           -3.04870883136179       -2.38318255560738        0.00180102792812
C           -2.41631205256612       -3.60748140075349       -0.05037009178620
C           -1.03242412842760       -3.67021779506406       -0.14539815265064
C           -0.28901063401133       -2.50341847077128       -0.17860850479720
C           -0.90354020991751       -1.26112054317319       -0.12452649328400
C           -0.06753685500768       -0.00546468745499       -0.09752254162472
C            0.70870735483810        0.05347282920023        1.21232966190984
C            0.22852142846961        0.10246975009641        2.48292199818791
C            1.13642326603833        0.15445127677726        3.55690309171915
C            2.52620836875105        0.15396564109873        3.31530047660798
C            3.03398623374371        0.10259187653084        2.05097523226705
C            2.13283112692511        0.04692826498377        0.94110776457438
C            2.34208783893970       -0.01979113216158       -0.42721041778871
C            3.53443502701982       -0.05752584820315       -1.21708462555457
C            3.42676040017450       -0.12996032412513       -2.57556489604355
C            2.17392129474714       -0.16774405072285       -3.21886186975855
C            0.98500541752444       -0.13018334615825       -2.46361747695486
C            1.06337487115442       -0.05772252602785       -1.10899780365589
H           -2.96039874646237        4.51732186894834       -0.45481277921447
H           -0.49485866134902        4.59017520670830       -0.63686810191649
H            0.80974541422242        2.50582446152098       -0.49218819342368
H           -4.10511574349637        2.35481452708400       -0.15333692824386
H           -3.94842575277490        0.01908567098812        0.05436284458896
H           -4.12565203472204       -2.32408797112360        0.07122585303435
H           -2.99958856884454       -4.51542212782643       -0.01890230616823
H           -0.53470009004043       -4.62693233308288       -0.18911576450487
H            0.78804482926801       -2.54932285654853       -0.24470892812240
H           -0.83479367298367        0.10369843468334        2.68071605652095
H            0.76885706183273        0.19540900120020        4.57018504850055
H            3.19624102363795        0.19532524417230        4.16350606736548
H            4.09873779940537        0.10085623027758        1.87105346391571
H            4.49721948593994       -0.02949803606859       -0.72897012783713
H            4.32021337782445       -0.15985102451177       -3.18478704846623
H            2.12531355225155       -0.22446325723747       -4.29496894581155
H            0.02841736427061       -0.15885722246005       -2.96755021702355

          :  Hamiltonian                  GFN2-xTB          :
         :: gradient norm              0.000047528105 Eh/a0 ::
         :: HOMO-LUMO gap              0.464596520877 eV    ::
         :: SCC energy               -66.293288483017 Eh    ::
         :: -> dispersion             -0.060290930491 Eh    ::
         :: -> Gsolv                  -0.026690110841 Eh    ::
         :: repulsion energy           1.224490711874 Eh    ::

    * Orbital Energies and Occupations

         #    Occupation            Energy/Eh            Energy/eV
      -------------------------------------------------------------
         1        2.0000           -0.6815278             -18.5453
       ...           ...                  ...                  ...
        50        2.0000           -0.4289999             -11.6737
        51        2.0000           -0.4181057             -11.3772
        52        2.0000           -0.4150779             -11.2948
        53        2.0000           -0.4143825             -11.2759
        54        2.0000           -0.4116679             -11.2021
        55        2.0000           -0.4113599             -11.1937
        56        2.0000           -0.4080807             -11.1044
        57        2.0000           -0.3970150             -10.8033
        58        2.0000           -0.3947228             -10.7410
        59        2.0000           -0.3916000             -10.6560
        60        1.7122           -0.3600101              -9.7964
        61        1.2878           -0.3582886              -9.7495
        62        0.9999           -0.2553158              -6.9475 (HOMO)
        63        0.0001           -0.2382416              -6.4829 (LUMO)
        64                         -0.2300818              -6.2608
        65                         -0.2292069              -6.2370
        66                         -0.2108558              -5.7377
        67                         -0.2039821              -5.5506
        68                         -0.2012137              -5.4753
        69                         -0.1806729              -4.9164
        70                         -0.1076938              -2.9305
        71                         -0.1022107              -2.7813
        72                         -0.0906613              -2.4670
        73                         -0.0527758              -1.4361
       ...                                ...                  ...
       121                          0.7437549              20.2386
      -------------------------------------------------------------
                  HL-Gap            0.0170742 Eh            0.4646 eV

     #   Z          covCN         q      C6AA      α(0)
     1   6 C        2.918    -0.029    28.725     8.789
     2   6 C        2.918    -0.035    28.878     8.812
     3   6 C        2.923    -0.032    28.792     8.799
     4   6 C        2.981     0.000    28.012     8.682
     5   6 C        2.917     0.066    26.526     8.446
     6   6 C        2.922    -0.056    29.403     8.892
     7   7 N        2.704    -0.110    23.397     7.184
     8   6 C        2.917     0.066    26.525     8.445
     9   6 C        2.922    -0.057    29.405     8.893
    10   6 C        2.918    -0.029    28.724     8.789
    11   6 C        2.918    -0.035    28.879     8.812
    12   6 C        2.923    -0.032    28.791     8.799
    13   6 C        2.981     0.001    28.010     8.681
    14   6 C        3.937     0.014    20.284     6.400
    15   6 C        3.050    -0.005    28.099     8.694
    16   6 C        2.904    -0.039    28.974     8.826
    17   6 C        2.918    -0.050    29.249     8.869
    18   6 C        2.910    -0.034    28.851     8.808
    19   6 C        2.905    -0.045    29.114     8.847
    20   6 C        3.020    -0.011    28.274     8.722
    21   6 C        3.020    -0.010    28.253     8.719
    22   6 C        2.905    -0.046    29.144     8.852
    23   6 C        2.910    -0.034    28.837     8.805
    24   6 C        2.918    -0.050    29.238     8.867
    25   6 C        2.904    -0.038    28.955     8.823
    26   6 C        3.045    -0.006    28.117     8.697
    27   1 H        0.926     0.043     2.410     2.428
    28   1 H        0.926     0.039     2.465     2.455
    29   1 H        0.926     0.036     2.501     2.473
    30   1 H        0.926     0.040     2.450     2.448
    31   1 H        0.860     0.175     1.244     1.747
    32   1 H        0.926     0.040     2.451     2.448
    33   1 H        0.926     0.043     2.410     2.428
    34   1 H        0.926     0.039     2.465     2.455
    35   1 H        0.926     0.036     2.503     2.474
    36   1 H        0.925     0.015     2.804     2.619
    37   1 H        0.926     0.019     2.746     2.591
    38   1 H        0.925     0.020     2.732     2.585
    39   1 H        0.926     0.020     2.731     2.584
    40   1 H        0.926     0.019     2.749     2.593
    41   1 H        0.925     0.020     2.741     2.589
    42   1 H        0.926     0.019     2.752     2.594
    43   1 H        0.925     0.015     2.803     2.618

molecular dipole:
                 x           y           z       tot (Debye)
 q only:       -2.039       0.003      -0.117
   full:       -2.145       0.002      -0.103       5.460

 projected vibrational frequencies (cm⁻¹)
eigval :       -0.00    -0.00    -0.00    -0.00     0.00     0.00
eigval :       31.21    39.67    47.63    64.90    75.88   112.95
eigval :      122.05   151.43   194.13   208.13   228.14   231.45
eigval :      276.60   283.53   311.61   326.43   388.11   391.11
eigval :      394.39   407.07   418.50   427.68   435.46   469.20
eigval :      490.86   495.49   508.65   526.72   529.51   556.23
eigval :      582.77   594.21   597.53   639.16   639.58   658.57
eigval :      678.98   682.78   690.82   694.32   694.91   728.07
eigval :      761.99   768.33   773.96   789.59   821.58   862.18
eigval :      864.00   864.72   872.28   878.98   879.06   896.48
eigval :      899.45   900.43   910.60   912.73   913.30   920.72
eigval :      921.71   956.44  1024.69  1033.83  1065.55  1087.62
eigval :     1092.80  1093.97  1123.58  1137.45  1138.58  1146.65
eigval :     1163.55  1167.48  1177.31  1178.09  1197.05  1197.27
eigval :     1220.51  1234.46  1249.60  1255.81  1270.12  1273.10
eigval :     1296.13  1301.04  1324.98  1331.84  1334.25  1353.30
eigval :     1356.80  1367.76  1375.52  1436.22  1439.84  1462.64
eigval :     1470.55  1488.49  1494.29  1540.54  1547.41  1557.14
eigval :     1565.48  1572.56  1587.25  1623.89  3055.83  3057.00
eigval :     3059.07  3059.64  3069.86  3070.41  3075.81  3078.02
eigval :     3084.13  3084.18  3089.52  3090.02  3091.40  3092.35
eigval :     3099.22  3099.96  3406.68

   temp. (K)  partition function   enthalpy   heat capacity  entropy
                                   cal/mol     cal/K/mol   cal/K/mol   J/K/mol
 298.15  VIB  0.595E+07            10726.104     75.045     63.232
         ROT  0.833E+07              888.752      2.981     34.649
         INT  0.495E+14            11614.856     78.025     97.881
         TR   0.584E+28             1481.254      4.968     43.270
         TOT                       13096.1099    82.9936   141.1510   590.5758

       T/K    H(0)-H(T)+PV         H(T)/Eh          T*S/Eh         G(T)/Eh
   ------------------------------------------------------------------------
    298.15    0.208700E-01    0.349872E+00    0.670654E-01    0.282806E+00
   ------------------------------------------------------------------------

         :::::::::::::::::::::::::::::::::::::::::::::::::::::
         ::                  THERMODYNAMIC                  ::
         :::::::::::::::::::::::::::::::::::::::::::::::::::::
         :: total free energy         -64.785991375327 Eh   ::
         ::.................................................::
         :: total energy              -65.068797768099 Eh   ::
         :: zero point energy           0.329001804347 Eh   ::
         :: G(RRHO) w/o ZPVE           -0.046195411575 Eh   ::
         :: G(RRHO) contrib.            0.282806392772 Eh   ::
         :::::::::::::::::::::::::::::::::::::::::::::::::::::

           -------------------------------------------------
          | TOTAL ENERGY              -65.068797768099 Eh   |
          | TOTAL ENTHALPY            -64.718925984242 Eh   |
          | TOTAL FREE ENERGY         -64.785991375327 Eh   |
          | GRADIENT NORM               0.000051350396 Eh/α |
          | HOMO-LUMO GAP               0.464612538773 eV   |
           -------------------------------------------------

 * finished run on 2025/09/04 at 12:58:05.040
