   * xtb version 6.7.1 (edcfbbe) compiled by 'albert@albert-system' on 2024-07-22

   ID    Z sym.   atoms
    1    6 C      1-9, 11-14, 16-20, 22-29, 31-33, 35-42
    2    7 N      10, 15, 21, 30, 34
    3    1 H      43-65

          program call               : xtb data2507/toluene/Ac-BPCN/Ac-BPCN_toluene_S0_crest.xyz --gfn 2 --gbsa toluene --ohess vtight --parallel 40 --molden --ceasefiles --namespace data2507/toluene/Ac-BPCN/Ac-BPCN_toluene_S0_finalOpt
      * Solvation model:               GBSA
        Solvent                        toluene
        Solvent mass                       9.2140E+01 g/mol
          :  Hamiltonian                  GFN2-xTB          :
 * total energy  :  -105.6162451 Eh     change       -0.1893753E-08 Eh
 * total energy  :  -105.6162857 Eh     change       -0.4062959E-04 Eh
 * total energy  :  -105.6162883 Eh     change       -0.2570189E-05 Eh
 * total energy  :  -105.6162770 Eh     change        0.1129480E-04 Eh
 * total energy  :  -105.6162989 Eh     change       -0.2190164E-04 Eh
 * total energy  :  -105.6162811 Eh     change        0.1774084E-04 Eh
 * total energy  :  -105.6163008 Eh     change       -0.1964026E-04 Eh
 * total energy  :  -105.6163020 Eh     change       -0.1184453E-05 Eh
 * total energy  :  -105.6163054 Eh     change       -0.3484859E-05 Eh
 * total energy  :  -105.6163062 Eh     change       -0.7960371E-06 Eh
 * total energy  :  -105.6163259 Eh     change        0.1871811E-07 Eh
 * total energy  :  -105.6163260 Eh     change       -0.1240652E-06 Eh
 * total energy  :  -105.6163260 Eh     change        0.2603176E-07 Eh
 * total energy  :  -105.6163260 Eh     change        0.1099744E-07 Eh
 * total energy  :  -105.6163259 Eh     change        0.1015459E-07 Eh
 * total energy  :  -105.6163261 Eh     change       -0.1746292E-06 Eh
 * total energy  :  -105.6163262 Eh     change       -0.1056383E-06 Eh
 * total energy  :  -105.6163263 Eh     change       -0.1114193E-06 Eh
 * total energy  :  -105.6163264 Eh     change       -0.7208968E-07 Eh
   *** GEOMETRY OPTIMIZATION CONVERGED AFTER 39 ITERATIONS ***

 final structure:
================
65
 xtb: 6.7.1 (edcfbbe)
C           -6.74902118267570        0.51083167144608        2.02960931656741
C           -5.43340005581038        0.16840067998336        1.32998383853324
C           -4.37265224264444       -0.10375706590899        2.41666485633226
C           -5.55423260777965       -1.05264986124454        0.43333559981292
C           -6.62287904883968       -1.93619244165710        0.44981735296340
C           -6.66708398831658       -3.01634711684516       -0.41637807417549
C           -5.65444835631032       -3.21295207097468       -1.33863924657395
C           -4.58389140958686       -2.33853906249410       -1.37910882281411
C           -4.51778513030023       -1.28397838108071       -0.47669923708938
N           -3.45892511766386       -0.34902426454966       -0.52092673228224
C           -2.13478094549109       -0.68468838467794       -0.41314878082712
C           -1.75417300789510       -2.05578556447032       -0.29263671104304
C           -0.45322535404972       -2.43532432805856       -0.19388521639918
C            0.57843954605930       -1.46797647784027       -0.18353931386422
N            1.85518991804082       -1.83935650031366       -0.09979151091282
C            2.77589095020056       -0.88547354627891       -0.04820413317880
C            4.16923575639307       -1.26026495539695        0.03814142428721
C            4.50905336779390       -2.61359156940484        0.04631153679143
C            5.83605321225400       -3.00367061761746        0.12835138436760
C            6.17649547023042       -4.37459166754864        0.13765449371605
N            6.46110372413986       -5.48646844335042        0.14609457614892
C            6.84241737395623       -2.02971160740763        0.20290144615238
C            6.50805342178567       -0.69711201258945        0.19459543415105
C            5.17360559504385       -0.27061340479101        0.11376128263054
C            4.80300937277553        1.13509434819356        0.10487689997327
C            5.75340772722340        2.16485969648358        0.18716373807579
C            5.38802220702495        3.48919336079799        0.17454649027290
C            4.03415647796668        3.84109200089284        0.07736346130990
C            3.65560963534986        5.20184377822232        0.06081867553779
N            3.35636294390027        6.30981180558052        0.04701612470683
C            3.07245089114662        2.84626499532880       -0.00303346200920
C            3.44362519167302        1.50231917314764        0.01073654210846
C            2.41106651018280        0.48884813958730       -0.07040354004753
N            1.14957368034854        0.87092676249289       -0.16180350950308
C            0.20599759260971       -0.08593955877821       -0.22795267649201
C           -1.14037762401522        0.27801894101139       -0.33357569486589
C           -3.92935507945553        0.98449729355803       -0.48236455895545
C           -3.47590493357967        1.93318835684719       -1.38974543515672
C           -3.98729075543061        3.21755415030998       -1.35514478908492
C           -4.96547710226306        3.54294016422952       -0.43215008938452
C           -5.44996131646636        2.58211024367005        0.43995789959601
C           -4.94574524036923        1.29032475465309        0.42792194763429
H           -7.53592645102223        0.71210785258650        1.30626396685230
H           -6.61801688707530        1.38297584586849        2.66481989977265
H           -7.05611692526546       -0.31146629442593        2.67064763904564
H           -3.40350326496468       -0.34415648616919        1.98801237339752
H           -4.25661635700565        0.77632871046660        3.04569781658413
H           -4.68824388192523       -0.93858833233032        3.03892275089895
H           -7.43636568224871       -1.79277286372951        1.14160778386793
H           -7.50499537589673       -3.69628734451733       -0.38029459621369
H           -5.70109014995073       -4.03610935759496       -2.03562474829041
H           -3.80723330502232       -2.45977706763180       -2.11981490745265
H           -2.52472237061516       -2.80892012528614       -0.25156643048627
H           -0.17894962124750       -3.47515448171272       -0.10312669988930
H            3.71582636264646       -3.34287310765924       -0.01256926028387
H            7.87600425616609       -2.33560875516470        0.26610583348524
H            7.30588687230567        0.02444316691252        0.25186329210277
H            6.80201035458548        1.93022631490580        0.26309175330187
H            6.13631463168590        4.26502471283839        0.23911752551066
H            2.02317501808460        3.08746810982900       -0.07674218661364
H           -1.36793723113052        1.33096800570061       -0.32849249325623
H           -2.73834198359118        1.65934539806415       -2.12906337709532
H           -3.62854972902540        3.95661724585979       -2.05567769587998
H           -5.36631423004615        4.54497719127644       -0.39982209678963
H           -6.22953031230283        2.85560684756083        1.13168997572344

          :  Hamiltonian                  GFN2-xTB          :
         :: gradient norm              0.000086987758 Eh/a0 ::
         :: HOMO-LUMO gap              1.272670543699 eV    ::
         :: SCC energy              -107.586931191151 Eh    ::
         :: -> dispersion             -0.093087767236 Eh    ::
         :: -> Gsolv                  -0.050867636290 Eh    ::
         :: repulsion energy           1.970604779929 Eh    ::

    * Orbital Energies and Occupations

         #    Occupation            Energy/Eh            Energy/eV
      -------------------------------------------------------------
         1        2.0000           -0.6838849             -18.6095
       ...           ...                  ...                  ...
        86        2.0000           -0.4321970             -11.7607
        87        2.0000           -0.4307420             -11.7211
        88        2.0000           -0.4232014             -11.5159
        89        2.0000           -0.4219866             -11.4828
        90        2.0000           -0.4206494             -11.4465
        91        2.0000           -0.4156429             -11.3102
        92        2.0000           -0.4109710             -11.1831
        93        2.0000           -0.4092071             -11.1351
        94        2.0000           -0.4064651             -11.0605
        95        2.0000           -0.4051580             -11.0249
        96        2.0000           -0.4041105             -10.9964
        97        2.0000           -0.3657657              -9.9530
        98        2.0000           -0.3603180              -9.8048 (HOMO)
        99                         -0.3135481              -8.5321 (LUMO)
       100                         -0.2932379              -7.9794
       101                         -0.2802271              -7.6254
       102                         -0.2634317              -7.1683
       103                         -0.2404153              -6.5420
       104                         -0.2371266              -6.4525
       105                         -0.2345248              -6.3817
       106                         -0.2290896              -6.2338
       107                         -0.2261171              -6.1530
       108                         -0.2203911              -5.9971
       109                         -0.2181925              -5.9373
       ...                                ...                  ...
       191                          1.1554834              31.4423
      -------------------------------------------------------------
                  HL-Gap            0.0467698 Eh            1.2727 eV

     #   Z          covCN         q      C6AA      α(0)
     1   6 C        3.759    -0.110    22.659     6.786
     2   6 C        3.910     0.023    20.127     6.377
     3   6 C        3.761    -0.099    22.444     6.754
     4   6 C        2.987    -0.004    28.117     8.698
     5   6 C        2.923    -0.037    28.920     8.819
     6   6 C        2.919    -0.035    28.870     8.811
     7   6 C        2.919    -0.033    28.814     8.803
     8   6 C        2.920    -0.046    29.135     8.852
     9   6 C        2.950     0.053    26.813     8.493
    10   7 N        2.754    -0.055    22.311     7.015
    11   6 C        2.907     0.073    26.369     8.420
    12   6 C        2.919    -0.046    29.143     8.853
    13   6 C        2.913    -0.044    29.097     8.845
    14   6 C        2.967     0.079    26.231     8.401
    15   7 N        1.847    -0.261    27.630     7.790
    16   6 C        2.964     0.075    26.327     8.416
    17   6 C        2.986     0.000    28.011     8.682
    18   6 C        2.931    -0.019    28.477     8.752
    19   6 C        2.971     0.020    27.568     8.612
    20   6 C        1.912     0.120    28.151     8.569
    21   7 N        0.911    -0.262    26.781     7.485
    22   6 C        2.922    -0.020    28.508     8.756
    23   6 C        2.920    -0.029    28.718     8.788
    24   6 C        2.975     0.011    27.763     8.643
    25   6 C        2.975     0.013    27.722     8.637
    26   6 C        2.921    -0.029    28.720     8.788
    27   6 C        2.922    -0.019    28.478     8.751
    28   6 C        2.971     0.020    27.568     8.612
    29   6 C        1.912     0.120    28.150     8.569
    30   7 N        0.911    -0.261    26.761     7.482
    31   6 C        2.931    -0.018    28.450     8.747
    32   6 C        2.986    -0.000    28.030     8.685
    33   6 C        2.959     0.083    26.139     8.386
    34   7 N        1.849    -0.272    27.915     7.830
    35   6 C        2.961     0.084    26.135     8.385
    36   6 C        2.923    -0.083    30.076     8.993
    37   6 C        2.951     0.053    26.811     8.493
    38   6 C        2.920    -0.044    29.105     8.847
    39   6 C        2.920    -0.032    28.808     8.802
    40   6 C        2.919    -0.035    28.867     8.811
    41   6 C        2.923    -0.037    28.928     8.820
    42   6 C        2.987    -0.004    28.120     8.699
    43   1 H        0.925     0.043     2.412     2.429
    44   1 H        0.925     0.046     2.364     2.404
    45   1 H        0.925     0.047     2.359     2.402
    46   1 H        0.925     0.031     2.575     2.509
    47   1 H        0.925     0.043     2.407     2.426
    48   1 H        0.925     0.044     2.399     2.422
    49   1 H        0.926     0.050     2.318     2.381
    50   1 H        0.926     0.040     2.451     2.448
    51   1 H        0.926     0.039     2.456     2.451
    52   1 H        0.926     0.040     2.452     2.449
    53   1 H        0.926     0.057     2.231     2.336
    54   1 H        0.926     0.055     2.260     2.351
    55   1 H        0.926     0.063     2.161     2.299
    56   1 H        0.926     0.052     2.289     2.366
    57   1 H        0.926     0.060     2.202     2.321
    58   1 H        0.926     0.060     2.194     2.316
    59   1 H        0.926     0.054     2.276     2.359
    60   1 H        0.926     0.065     2.143     2.289
    61   1 H        0.926     0.051     2.311     2.377
    62   1 H        0.926     0.039     2.461     2.453
    63   1 H        0.926     0.039     2.465     2.455
    64   1 H        0.926     0.040     2.452     2.449
    65   1 H        0.926     0.050     2.319     2.381

molecular dipole:
                 x           y           z       tot (Debye)
 q only:       -2.379       0.092       0.301
   full:       -2.288       0.040       0.242       5.849

 projected vibrational frequencies (cm⁻¹)
eigval :       -0.00    -0.00     0.00     0.00     0.00     0.00
eigval :       14.59    18.85    35.10    37.90    52.04    59.30
eigval :       64.53    70.07    72.95    83.83   103.56   118.79
eigval :      134.65   136.21   147.13   157.27   163.16   171.43
eigval :      181.17   202.38   223.30   230.42   250.02   253.23
eigval :      283.10   289.92   303.49   308.64   314.94   334.97
eigval :      342.91   352.70   363.44   370.63   374.48   385.23
eigval :      404.01   409.36   417.60   430.08   435.25   441.54
eigval :      446.54   458.07   479.32   485.62   494.80   499.25
eigval :      525.54   539.38   547.98   558.21   563.40   568.05
eigval :      575.43   584.42   595.21   599.51   605.09   612.10
eigval :      615.39   627.07   655.01   676.48   680.57   682.77
eigval :      693.83   712.57   721.97   725.82   733.38   766.66
eigval :      778.24   785.91   805.19   809.80   812.62   817.31
eigval :      823.69   825.83   856.83   867.31   883.25   885.78
eigval :      889.32   890.32   904.40   907.34   912.79   913.67
eigval :      918.46   921.32   922.95   936.56   943.76   945.57
eigval :      965.12   982.90   986.65  1010.13  1032.69  1066.38
eigval :     1072.56  1075.61  1099.53  1107.79  1136.77  1151.00
eigval :     1156.24  1158.48  1159.75  1172.53  1175.71  1181.77
eigval :     1184.38  1188.90  1198.60  1219.97  1228.69  1231.74
eigval :     1247.03  1257.19  1267.36  1271.57  1274.29  1276.74
eigval :     1280.26  1285.70  1298.38  1305.47  1317.84  1321.61
eigval :     1324.71  1343.62  1363.83  1371.21  1396.16  1408.18
eigval :     1413.78  1414.48  1429.94  1434.81  1437.00  1439.93
eigval :     1451.30  1458.05  1467.04  1475.81  1481.83  1487.90
eigval :     1490.27  1493.18  1503.70  1516.31  1519.98  1536.24
eigval :     1545.76  1568.56  1574.50  1582.69  1585.40  1587.31
eigval :     1592.22  1601.43  2361.82  2363.96  3027.38  3029.83
eigval :     3034.71  3035.14  3049.99  3050.85  3078.13  3080.21
eigval :     3083.32  3086.88  3090.35  3091.18  3092.41  3094.52
eigval :     3096.21  3106.66  3107.19  3110.78  3112.81  3115.58
eigval :     3116.50  3120.30  3121.31

   temp. (K)  partition function   enthalpy   heat capacity  entropy
                                   cal/mol     cal/K/mol   cal/K/mol   J/K/mol
 298.15  VIB  0.227E+14            19064.691    123.493    116.208
         ROT  0.616E+08              888.752      2.981     38.626
         INT  0.140E+22            19953.443    126.474    154.834
         TR   0.121E+29             1481.254      4.968     44.711
         TOT                       21434.6970   131.4423   199.5449   834.8958

       T/K    H(0)-H(T)+PV         H(T)/Eh          T*S/Eh         G(T)/Eh
   ------------------------------------------------------------------------
    298.15    0.341584E-01    0.521309E+00    0.948102E-01    0.426498E+00
   ------------------------------------------------------------------------

         :::::::::::::::::::::::::::::::::::::::::::::::::::::
         ::                  THERMODYNAMIC                  ::
         :::::::::::::::::::::::::::::::::::::::::::::::::::::
         :: total free energy        -105.189827958866 Eh   ::
         ::.................................................::
         :: total energy             -105.616326407247 Eh   ::
         :: zero point energy           0.487150293871 Eh   ::
         :: G(RRHO) w/o ZPVE           -0.060651845490 Eh   ::
         :: G(RRHO) contrib.            0.426498448381 Eh   ::
         :::::::::::::::::::::::::::::::::::::::::::::::::::::

           -------------------------------------------------
          | TOTAL ENERGY             -105.616326407247 Eh   |
          | TOTAL ENTHALPY           -105.095017749399 Eh   |
          | TOTAL FREE ENERGY        -105.189827958866 Eh   |
          | GRADIENT NORM               0.000086927683 Eh/α |
          | HOMO-LUMO GAP               1.272671504944 eV   |
           -------------------------------------------------

 * finished run on 2025/09/08 at 05:50:18.705
