   * xtb version 6.7.1 (edcfbbe) compiled by 'albert@albert-system' on 2024-07-22

   ID    Z sym.   atoms
    1    6 C      1-9, 11-14, 16-20, 22-29, 31-33, 35-42
    2    7 N      10, 15, 21, 30, 34
    3    1 H      43-65

          program call               : xtb data2507/toluene/Ac-BPCN/Ac-BPCN_toluene_S0_finalOpt.xtbopt.xyz --gfn 2 --uhf 2 --gbsa toluene --ohess vtight --parallel 40 --molden --ceasefiles --namespace data2507/toluene/Ac-BPCN/Ac-BPCN_toluene_T1_preOpt
      * Solvation model:               GBSA
        Solvent                        toluene
        Solvent mass                       9.2140E+01 g/mol
          :  Hamiltonian                  GFN2-xTB          :
 * total energy  :  -105.5624094 Eh     change       -0.9077610E-08 Eh
 * total energy  :  -105.5650358 Eh     change       -0.2626343E-02 Eh
 * total energy  :  -105.5661594 Eh     change       -0.1123636E-02 Eh
 * total energy  :  -105.5661869 Eh     change       -0.2751765E-04 Eh
 * total energy  :  -105.5663851 Eh     change       -0.1981249E-03 Eh
 * total energy  :  -105.5664180 Eh     change       -0.3294886E-04 Eh
 * total energy  :  -105.5664274 Eh     change       -0.9368323E-05 Eh
 * total energy  :  -105.5664140 Eh     change        0.1342460E-04 Eh
 * total energy  :  -105.5664445 Eh     change       -0.3058702E-04 Eh
 * total energy  :  -105.5664571 Eh     change       -0.1257687E-04 Eh
 * total energy  :  -105.5665547 Eh     change       -0.1769666E-06 Eh
 * total energy  :  -105.5665549 Eh     change       -0.1904200E-06 Eh
 * total energy  :  -105.5665552 Eh     change       -0.2829610E-06 Eh
 * total energy  :  -105.5665554 Eh     change       -0.2776689E-06 Eh
 * total energy  :  -105.5665557 Eh     change       -0.2356564E-06 Eh
 * total energy  :  -105.5665559 Eh     change       -0.2150842E-06 Eh
 * total energy  :  -105.5665561 Eh     change       -0.1802230E-06 Eh
 * total energy  :  -105.5665563 Eh     change       -0.2121607E-06 Eh
 * total energy  :  -105.5665563 Eh     change       -0.3146454E-08 Eh
   *** GEOMETRY OPTIMIZATION CONVERGED AFTER 44 ITERATIONS ***

 final structure:
================
65
 xtb: 6.7.1 (edcfbbe)
C           -6.79821328987814        0.60025707369171        1.97524041511908
C           -5.47427225972005        0.21154208566741        1.31648111510699
C           -4.44219670872004       -0.04529854065405        2.43472530856623
C           -5.59674335591595       -1.03522694226718        0.45817459163756
C           -6.67678686719181       -1.90399724354449        0.48496554842581
C           -6.72208434966188       -3.01003003935286       -0.34799871091994
C           -5.69760391786844       -3.24762919659210       -1.24807174330621
C           -4.61233698706191       -2.39284159529637       -1.29491487072788
C           -4.54455483427043       -1.31207920854362       -0.42257775903142
N           -3.47341415762871       -0.39664692653129       -0.47415578726084
C           -2.14866830007036       -0.75896498178454       -0.38952021708339
C           -1.76550374525610       -2.10672920480125       -0.26763595549697
C           -0.43993565607833       -2.46403527136132       -0.16238314120559
C            0.57759736212226       -1.50916056507641       -0.18778794768960
N            1.86950200725835       -1.81998215455692       -0.11054225312294
C            2.81067965157569       -0.89388194783409       -0.04947027252688
C            4.19719467218514       -1.24434044992886       -0.01363008900503
C            4.55133226887477       -2.59644295211101       -0.06408503760625
C            5.87841559826293       -2.98103382627471       -0.01420596279721
C            6.22572509573505       -4.34522654725604       -0.06396748652629
N            6.51527954628544       -5.45670834165728       -0.10406545968794
C            6.88467159270456       -1.99744328225785        0.08829032674349
C            6.54414726664205       -0.67319480776421        0.13617645987691
C            5.20290453666661       -0.24373659009059        0.08650849958316
C            4.82241277620411        1.13857870785621        0.13109486081394
C            5.75563078224711        2.18828791952523        0.24532319725593
C            5.37183264830875        3.50112508983939        0.27441867215505
C            4.00388706701706        3.83716177436411        0.18973695633038
C            3.60595675361520        5.18831851311841        0.21115191846901
N            3.28809446802389        6.29256546342996        0.22850162877299
C            3.05955849485513        2.83354765677529        0.08522190570134
C            3.44605549611881        1.48919734150542        0.05389174064559
C            2.43324664065720        0.48455013655899       -0.04516196875875
N            1.15992498967095        0.80842914108245       -0.19457670772853
C            0.19756615998615       -0.11625757548807       -0.25837792105300
C           -1.14574339823174        0.21990463900265       -0.31953616566880
C           -3.91057049112171        0.94171115452266       -0.48346831024629
C           -3.40368424368864        1.86210932383494       -1.39542218120038
C           -3.88106454640309        3.15947379035125       -1.40127401795244
C           -4.87671648348911        3.52926917706730       -0.51391001104111
C           -5.41086061819629        2.59986766530972        0.36489534196184
C           -4.94505583952189        1.29505481066190        0.39267219367844
H           -7.56467830340188        0.79364331085077        1.22837732405931
H           -6.66420074911145        1.48861523144695        2.58669686697737
H           -7.13516260259609       -0.19580606739219        2.63388833297027
H           -3.47216041539609       -0.32810612018129        2.03473277709176
H           -4.31549954426118        0.85441218555015        3.03292960173805
H           -4.79240809350594       -0.84760123199189        3.08048665207751
H           -7.49953056682628       -1.72658505020987        1.15741296221458
H           -7.57053142530853       -3.67618131587740       -0.30610449164708
H           -5.74692890271890       -4.08803809510039       -1.92372743367654
H           -3.82994441198928       -2.54370685934078       -2.02329605415219
H           -2.51314651989947       -2.88025923271604       -0.22418561995764
H           -0.15947184620766       -3.50228087351351       -0.07577834262429
H            3.76551957298041       -3.33355026725837       -0.13842577324040
H            7.91966499649881       -2.30275207418886        0.12700098344501
H            7.33657005577285        0.05315507483342        0.21171105071999
H            6.80750183128913        1.96424495810474        0.31312055119490
H            6.10492141551004        4.28915489275174        0.36068516321040
H            2.00739094957196        3.06910363607481        0.02429546399248
H           -1.39634193940391        1.26517776061528       -0.23588731478577
H           -2.65822080590614        1.55113484904272       -2.11182561835279
H           -3.48294859763917        3.87374264504156       -2.10589152375867
H           -5.25251068944013        4.54124052518843       -0.51464089121207
H           -6.19848477542276        2.90990825158260        1.03138519015780

          :  Hamiltonian                  GFN2-xTB          :
         :: gradient norm              0.000067431190 Eh/a0 ::
         :: HOMO-LUMO gap              0.706361388891 eV    ::
         :: SCC energy              -107.538910231285 Eh    ::
         :: -> dispersion             -0.092888745277 Eh    ::
         :: -> Gsolv                  -0.052042744927 Eh    ::
         :: repulsion energy           1.972353935105 Eh    ::

    * Orbital Energies and Occupations

         #    Occupation            Energy/Eh            Energy/eV
      -------------------------------------------------------------
         1        2.0000           -0.6901658             -18.7804
       ...           ...                  ...                  ...
        87        2.0000           -0.4271609             -11.6236
        88        2.0000           -0.4264672             -11.6048
        89        2.0000           -0.4257584             -11.5855
        90        2.0000           -0.4239419             -11.5360
        91        2.0000           -0.4145620             -11.2808
        92        2.0000           -0.4133175             -11.2469
        93        2.0000           -0.4095975             -11.1457
        94        2.0000           -0.4094152             -11.1408
        95        2.0000           -0.4086045             -11.1187
        96        2.0000           -0.4007524             -10.9050
        97        1.9498           -0.3722912             -10.1306
        98        1.0502           -0.3667040              -9.9785
        99        1.0000           -0.3157183              -8.5911 (HOMO)
       100        0.0000           -0.2897598              -7.8848 (LUMO)
       101                         -0.2796744              -7.6103
       102                         -0.2565709              -6.9816
       103                         -0.2417826              -6.5792
       104                         -0.2385350              -6.4909
       105                         -0.2351638              -6.3991
       106                         -0.2332920              -6.3482
       107                         -0.2305518              -6.2736
       108                         -0.2194107              -5.9705
       109                         -0.2125929              -5.7849
       110                         -0.2122889              -5.7767
       ...                                ...                  ...
       191                          1.1588649              31.5343
      -------------------------------------------------------------
                  HL-Gap            0.0259585 Eh            0.7064 eV

     #   Z          covCN         q      C6AA      α(0)
     1   6 C        3.759    -0.112    22.685     6.790
     2   6 C        3.910     0.024    20.119     6.375
     3   6 C        3.761    -0.101    22.475     6.758
     4   6 C        2.987    -0.002    28.059     8.689
     5   6 C        2.923    -0.035    28.881     8.813
     6   6 C        2.919    -0.032    28.807     8.801
     7   6 C        2.919    -0.031    28.773     8.796
     8   6 C        2.919    -0.044    29.082     8.843
     9   6 C        2.951     0.052    26.828     8.495
    10   7 N        2.755    -0.034    21.903     6.951
    11   6 C        2.907     0.067    26.507     8.442
    12   6 C        2.918    -0.058    29.432     8.896
    13   6 C        2.915    -0.053    29.306     8.877
    14   6 C        2.942     0.081    26.186     8.393
    15   7 N        1.849    -0.226    26.773     7.669
    16   6 C        2.944     0.081    26.195     8.394
    17   6 C        2.984    -0.006    28.161     8.705
    18   6 C        2.932    -0.018    28.459     8.749
    19   6 C        2.969     0.011    27.775     8.645
    20   6 C        1.912     0.117    28.219     8.579
    21   7 N        0.911    -0.278    27.183     7.541
    22   6 C        2.920    -0.025    28.631     8.775
    23   6 C        2.918    -0.031    28.763     8.795
    24   6 C        2.975     0.003    27.943     8.671
    25   6 C        2.975     0.003    27.965     8.674
    26   6 C        2.918    -0.030    28.754     8.793
    27   6 C        2.920    -0.026    28.653     8.778
    28   6 C        2.969     0.011    27.768     8.644
    29   6 C        1.912     0.117    28.214     8.578
    30   7 N        0.911    -0.278    27.168     7.539
    31   6 C        2.932    -0.018    28.454     8.748
    32   6 C        2.985    -0.007    28.178     8.708
    33   6 C        2.942     0.082    26.170     8.390
    34   7 N        1.851    -0.232    26.932     7.692
    35   6 C        2.939     0.088    26.041     8.369
    36   6 C        2.923    -0.078    29.946     8.974
    37   6 C        2.951     0.053    26.810     8.493
    38   6 C        2.919    -0.042    29.055     8.839
    39   6 C        2.919    -0.031    28.767     8.795
    40   6 C        2.919    -0.032    28.787     8.798
    41   6 C        2.922    -0.035    28.873     8.812
    42   6 C        2.987    -0.001    28.056     8.689
    43   1 H        0.925     0.045     2.386     2.416
    44   1 H        0.925     0.049     2.336     2.390
    45   1 H        0.925     0.049     2.330     2.387
    46   1 H        0.925     0.033     2.545     2.495
    47   1 H        0.925     0.045     2.377     2.411
    48   1 H        0.925     0.047     2.363     2.404
    49   1 H        0.926     0.054     2.270     2.356
    50   1 H        0.926     0.043     2.406     2.426
    51   1 H        0.926     0.043     2.410     2.427
    52   1 H        0.926     0.045     2.389     2.417
    53   1 H        0.926     0.056     2.246     2.344
    54   1 H        0.926     0.055     2.263     2.352
    55   1 H        0.926     0.052     2.299     2.371
    56   1 H        0.926     0.044     2.397     2.421
    57   1 H        0.926     0.052     2.297     2.370
    58   1 H        0.926     0.051     2.301     2.372
    59   1 H        0.926     0.044     2.402     2.424
    60   1 H        0.926     0.052     2.291     2.367
    61   1 H        0.926     0.060     2.202     2.321
    62   1 H        0.926     0.045     2.389     2.417
    63   1 H        0.926     0.043     2.412     2.429
    64   1 H        0.926     0.044     2.394     2.420
    65   1 H        0.926     0.055     2.258     2.350

molecular dipole:
                 x           y           z       tot (Debye)
 q only:       -4.454       0.003       0.255
   full:       -4.317      -0.038       0.213      10.986

 projected vibrational frequencies (cm⁻¹)
eigval :       -0.00    -0.00    -0.00    -0.00     0.00     0.00
eigval :       13.33    21.61    35.36    37.48    53.72    61.19
eigval :       63.33    71.46    72.93    83.46   108.45   119.27
eigval :      132.96   135.06   147.34   155.33   169.33   177.69
eigval :      189.20   194.77   219.85   227.86   242.85   251.99
eigval :      275.14   286.90   301.48   307.58   312.94   330.38
eigval :      341.48   348.67   359.81   367.31   368.33   380.12
eigval :      399.88   408.53   414.09   425.79   434.93   439.11
eigval :      445.87   457.60   470.60   475.88   493.21   498.43
eigval :      524.05   536.56   542.06   554.25   560.57   561.81
eigval :      573.28   581.57   582.34   584.99   592.93   603.60
eigval :      612.66   629.23   645.61   650.45   666.09   668.97
eigval :      676.81   692.19   701.92   717.30   721.17   724.47
eigval :      772.62   778.04   789.14   794.42   801.75   809.50
eigval :      810.11   815.72   818.21   848.25   869.73   874.02
eigval :      878.88   886.98   892.08   897.98   907.61   908.42
eigval :      917.05   919.60   920.97   933.90   934.79   943.55
eigval :      966.15   977.04   989.45  1008.75  1017.82  1060.88
eigval :     1072.10  1075.98  1098.46  1105.28  1134.90  1144.09
eigval :     1149.65  1154.13  1158.99  1169.42  1176.18  1180.06
eigval :     1183.72  1186.36  1196.58  1219.18  1223.48  1228.99
eigval :     1243.36  1248.71  1252.48  1261.04  1265.98  1270.44
eigval :     1271.21  1274.68  1286.15  1301.14  1303.27  1318.35
eigval :     1323.58  1328.94  1333.78  1364.25  1376.73  1392.34
eigval :     1395.37  1406.49  1412.43  1412.70  1427.98  1432.99
eigval :     1433.65  1444.01  1450.85  1461.59  1466.45  1476.67
eigval :     1487.93  1491.10  1495.26  1502.35  1503.24  1514.45
eigval :     1517.10  1540.30  1546.70  1567.38  1575.61  1576.22
eigval :     1580.80  1590.86  2344.12  2345.96  3029.93  3031.49
eigval :     3035.51  3037.35  3049.77  3050.29  3082.39  3082.61
eigval :     3087.73  3087.77  3089.01  3089.04  3093.11  3093.37
eigval :     3093.68  3097.53  3098.12  3103.79  3107.82  3116.34
eigval :     3117.70  3118.80  3125.97

   temp. (K)  partition function   enthalpy   heat capacity  entropy
                                   cal/mol     cal/K/mol   cal/K/mol   J/K/mol
 298.15  VIB  0.234E+14            19233.291    124.859    116.988
         ROT  0.617E+08              888.752      2.981     38.629
         INT  0.144E+22            20122.043    127.840    155.617
         TR   0.121E+29             1481.254      4.968     44.711
         TOT                       21603.2970   132.8077   200.3282   838.1732

       T/K    H(0)-H(T)+PV         H(T)/Eh          T*S/Eh         G(T)/Eh
   ------------------------------------------------------------------------
    298.15    0.344270E-01    0.518701E+00    0.951824E-01    0.423519E+00
   ------------------------------------------------------------------------

         :::::::::::::::::::::::::::::::::::::::::::::::::::::
         ::                  THERMODYNAMIC                  ::
         :::::::::::::::::::::::::::::::::::::::::::::::::::::
         :: total free energy        -105.143037344110 Eh   ::
         ::.................................................::
         :: total energy             -105.566556291530 Eh   ::
         :: zero point energy           0.484274298985 Eh   ::
         :: G(RRHO) w/o ZPVE           -0.060755351565 Eh   ::
         :: G(RRHO) contrib.            0.423518947420 Eh   ::
         :::::::::::::::::::::::::::::::::::::::::::::::::::::

           -------------------------------------------------
          | TOTAL ENERGY             -105.566556291530 Eh   |
          | TOTAL ENTHALPY           -105.047854947462 Eh   |
          | TOTAL FREE ENERGY        -105.143037344110 Eh   |
          | GRADIENT NORM               0.000067227603 Eh/α |
          | HOMO-LUMO GAP               0.706366971159 eV   |
           -------------------------------------------------

 * finished run on 2025/09/08 at 05:50:23.981
