   * xtb version 6.7.1 (edcfbbe) compiled by 'albert@albert-system' on 2024-07-22

   ID    Z sym.   atoms
    1    6 C      1-9, 11-14, 16-20, 22-29, 31-33, 35-42
    2    7 N      10, 15, 21, 30, 34
    3    1 H      43-65

          program call               : xtb data2507/toluene/Ac-BPCN/Ac-BPCN.xyz --gfn 2 --gbsa toluene --ohess vtight --parallel 40 --molden --ceasefiles --namespace data2507/toluene/Ac-BPCN/Ac-BPCN_toluene_S0_preOpt
      * Solvation model:               GBSA
        Solvent                        toluene
        Solvent mass                       9.2140E+01 g/mol
          :  Hamiltonian                  GFN2-xTB          :
 * total energy  :  -105.5890796 Eh     change       -0.2963418E-08 Eh
 * total energy  :  -105.6076709 Eh     change       -0.1859126E-01 Eh
 * total energy  :  -105.6128821 Eh     change       -0.5211210E-02 Eh
 * total energy  :  -105.6135659 Eh     change       -0.6838464E-03 Eh
 * total energy  :  -105.6138685 Eh     change       -0.3025688E-03 Eh
 * total energy  :  -105.6139240 Eh     change       -0.5547230E-04 Eh
 * total energy  :  -105.6138874 Eh     change        0.3657875E-04 Eh
 * total energy  :  -105.6139459 Eh     change       -0.5857284E-04 Eh
 * total energy  :  -105.6139485 Eh     change       -0.2586210E-05 Eh
 * total energy  :  -105.6139373 Eh     change        0.1123172E-04 Eh
 * total energy  :  -105.6139525 Eh     change       -0.5243741E-06 Eh
 * total energy  :  -105.6139533 Eh     change       -0.8129344E-06 Eh
 * total energy  :  -105.6139544 Eh     change       -0.1066423E-05 Eh
 * total energy  :  -105.6139552 Eh     change       -0.8466034E-06 Eh
 * total energy  :  -105.6139559 Eh     change       -0.6228544E-06 Eh
 * total energy  :  -105.6139564 Eh     change       -0.5711921E-06 Eh
 * total energy  :  -105.6139570 Eh     change       -0.5951075E-06 Eh
 * total energy  :  -105.6139570 Eh     change       -0.1602061E-08 Eh
 * total energy  :  -105.6139571 Eh     change       -0.9519158E-07 Eh
   *** GEOMETRY OPTIMIZATION CONVERGED AFTER 23 ITERATIONS ***

 final structure:
================
65
 xtb: 6.7.1 (edcfbbe)
C           -6.09699977387103        1.65267770287543        0.00004716954124
C           -5.54587308656942        0.21418975417837       -0.00001596204100
C           -6.70486100098639       -0.80025148245514       -0.00012414169655
C           -4.72037627166216        0.01180870301129       -1.25755107923652
C           -5.32429126040044        0.13796869000596       -2.50146711035416
C           -4.62279910732426       -0.03370970533222       -3.68105621054750
C           -3.27495398797025       -0.33974894230891       -3.62841362617010
C           -2.64871388230169       -0.46891219591858       -2.40596072448312
C           -3.35674515920382       -0.29616289486422       -1.21336817329366
N           -2.69819696773301       -0.43321935206973        0.00006340401503
C           -1.31311073473766       -0.74965052452956        0.00009818041540
C           -0.92252347857437       -2.11100351924227        0.00018520164740
C            0.39538144650884       -2.46112864662601        0.00016924573881
C            1.38914035902899       -1.45664918791161        0.00008039880998
N            2.68486153176149       -1.79627099218019        0.00004893670069
C            3.58239213639253       -0.82834970954687       -0.00000503351123
C            4.98915245508837       -1.17285782983714       -0.00004107910489
C            5.35649071473946       -2.51822129399946       -0.00007150490164
C            6.69499131832954       -2.87876491222292       -0.00009062642287
C            7.06589221650710       -4.24280222375832       -0.00006386303463
N            7.37378550633257       -5.34806616396472       -0.00020598422977
C            7.68074462942103       -1.88224818403353       -0.00008599181938
C            7.31765029591515       -0.55646019331384       -0.00006522375315
C            5.97195613126924       -0.15998250599892       -0.00003778512161
C            5.57181419312014        1.23926492431348       -0.00001352647476
C            6.50420709908110        2.28760016826289        0.00002515082997
C            6.11078141252360        3.60470966943557        0.00001000362027
C            4.74709737916492        3.92882052690754       -0.00004912319222
C            4.34137619371793        5.28281457324222       -0.00013978054043
N            4.02164448682463        6.38470585942565       -0.00010298219486
C            3.80183766050525        2.91499160988928       -0.00005430335347
C            4.20219074156549        1.57916326577395       -0.00003125975115
C            3.19015808518219        0.54295680281449       -0.00002053237986
N            1.91728951355567        0.89111637035787       -0.00001678406892
C            0.99642920872055       -0.08283490792456        0.00002714028835
C           -0.37455043009825        0.24808449767086        0.00002895765980
C           -3.35684043505377       -0.29628618312998        1.21345542705828
C           -2.64889164379774       -0.46911721450873        2.40608469957524
C           -3.27522879522522       -0.34008812929783        3.62850273433564
C           -4.62308557528836       -0.03408696294728        3.68107141609867
C           -5.32448946195763        0.13770167886105        2.50144561543647
C           -4.72047770521684        0.01167086566515        1.25756344822978
H           -5.27379109334390        2.36534164656911        0.00016562051201
H           -6.70707697297342        1.83341115073046        0.88073701086649
H           -6.70693151811169        1.83353915530927       -0.88071719326632
H           -6.31035899067072       -1.81504303365926       -0.00019340291741
H           -7.32964634562004       -0.67544372217970        0.87965529547350
H           -7.32960258289008       -0.67530569886358       -0.87991479176398
H           -6.37484972599081        0.37897049124497       -2.55849832165600
H           -5.12492366897400        0.07134206144707       -4.63097586305798
H           -2.70696860502362       -0.47829200075307       -4.53669874700111
H           -1.59614446870345       -0.70708663214659       -2.37214408791634
H           -1.69507674130621       -2.86547359574324        0.00024871380456
H            0.71102549621542       -3.49277265810538        0.00021491362881
H            4.57788427319282       -3.26525469996387       -0.00006994708548
H            8.72302741586055       -2.16391982969135       -0.00009960052607
H            8.10159168840038        0.18200200528811       -0.00007079682376
H            7.56011009909515        2.07559355527159        0.00006182567735
H            6.84552612578739        4.39583882478290        0.00002867280258
H            2.74581806928520        3.13667491099471       -0.00007886203351
H           -0.65991991250615        1.28886696471208       -0.00002869153501
H           -1.59630907636142       -0.70724293323429        2.37232317914866
H           -2.70730654547607       -0.47868596943545        4.53681893486209
H           -5.12528294402201        0.07087346234099        4.63096246864640
H           -6.37505393314715        0.37869074031545        2.55841995183707

          :  Hamiltonian                  GFN2-xTB          :
         :: gradient norm              0.000076213937 Eh/a0 ::
         :: HOMO-LUMO gap              0.646750114422 eV    ::
         :: SCC energy              -107.585237481705 Eh    ::
         :: -> dispersion             -0.092424084866 Eh    ::
         :: -> Gsolv                  -0.049626299481 Eh    ::
         :: repulsion energy           1.971280350047 Eh    ::

    * Orbital Energies and Occupations

         #    Occupation            Energy/Eh            Energy/eV
      -------------------------------------------------------------
         1        2.0000           -0.6982599             -19.0006
       ...           ...                  ...                  ...
        86        2.0000           -0.4348528             -11.8329
        87        2.0000           -0.4341323             -11.8133
        88        2.0000           -0.4294800             -11.6867
        89        2.0000           -0.4247766             -11.5588
        90        2.0000           -0.4188244             -11.3968
        91        2.0000           -0.4154423             -11.3048
        92        2.0000           -0.4104865             -11.1699
        93        2.0000           -0.4098007             -11.1512
        94        2.0000           -0.4062228             -11.0539
        95        2.0000           -0.4005690             -10.9000
        96        2.0000           -0.3951749             -10.7533
        97        2.0000           -0.3735564             -10.1650
        98        2.0000           -0.3504602              -9.5365 (HOMO)
        99        0.0000           -0.3266926              -8.8898 (LUMO)
       100                         -0.3010866              -8.1930
       101                         -0.2913716              -7.9286
       102                         -0.2684874              -7.3059
       103                         -0.2490473              -6.7769
       104                         -0.2416279              -6.5750
       105                         -0.2311184              -6.2891
       106                         -0.2269281              -6.1750
       107                         -0.2218955              -6.0381
       108                         -0.2216739              -6.0321
       109                         -0.2213640              -6.0236
       ...                                ...                  ...
       191                          1.1527398              31.3676
      -------------------------------------------------------------
                  HL-Gap            0.0237676 Eh            0.6467 eV

     #   Z          covCN         q      C6AA      α(0)
     1   6 C        3.761    -0.104    22.533     6.767
     2   6 C        3.908     0.021    20.162     6.382
     3   6 C        3.761    -0.104    22.543     6.768
     4   6 C        2.978    -0.013    28.332     8.731
     5   6 C        2.928    -0.037    28.913     8.818
     6   6 C        2.917    -0.046    29.130     8.851
     7   6 C        2.919    -0.034    28.854     8.809
     8   6 C        2.924    -0.060    29.488     8.905
     9   6 C        2.928     0.058    26.700     8.474
    10   7 N        2.755    -0.075    22.701     7.076
    11   6 C        2.923     0.079    26.231     8.399
    12   6 C        2.918    -0.033    28.815     8.803
    13   6 C        2.915    -0.039    28.977     8.827
    14   6 C        2.966     0.082    26.173     8.392
    15   7 N        1.848    -0.244    27.227     7.733
    16   6 C        2.961     0.083    26.144     8.387
    17   6 C        2.986     0.002    27.978     8.677
    18   6 C        2.931    -0.016    28.422     8.743
    19   6 C        2.971     0.023    27.485     8.599
    20   6 C        1.912     0.120    28.144     8.568
    21   7 N        0.911    -0.254    26.601     7.459
    22   6 C        2.922    -0.016    28.409     8.741
    23   6 C        2.921    -0.027    28.671     8.781
    24   6 C        2.975     0.016    27.646     8.625
    25   6 C        2.975     0.016    27.644     8.624
    26   6 C        2.921    -0.027    28.671     8.781
    27   6 C        2.922    -0.016    28.407     8.740
    28   6 C        2.971     0.023    27.486     8.600
    29   6 C        1.912     0.120    28.145     8.568
    30   7 N        0.911    -0.254    26.600     7.459
    31   6 C        2.931    -0.016    28.418     8.742
    32   6 C        2.986     0.002    27.981     8.677
    33   6 C        2.961     0.084    26.119     8.383
    34   7 N        1.848    -0.247    27.280     7.741
    35   6 C        2.966     0.085    26.115     8.382
    36   6 C        2.919    -0.050    29.254     8.870
    37   6 C        2.928     0.058    26.700     8.474
    38   6 C        2.924    -0.060    29.488     8.905
    39   6 C        2.919    -0.034    28.854     8.809
    40   6 C        2.917    -0.046    29.130     8.851
    41   6 C        2.928    -0.037    28.913     8.818
    42   6 C        2.978    -0.013    28.332     8.731
    43   1 H        0.925     0.030     2.582     2.513
    44   1 H        0.925     0.043     2.411     2.428
    45   1 H        0.925     0.043     2.411     2.428
    46   1 H        0.925     0.031     2.576     2.510
    47   1 H        0.925     0.043     2.410     2.427
    48   1 H        0.925     0.043     2.410     2.427
    49   1 H        0.926     0.035     2.510     2.478
    50   1 H        0.926     0.028     2.614     2.528
    51   1 H        0.926     0.027     2.625     2.534
    52   1 H        0.926     0.017     2.773     2.604
    53   1 H        0.926     0.063     2.167     2.302
    54   1 H        0.926     0.068     2.113     2.273
    55   1 H        0.926     0.068     2.104     2.268
    56   1 H        0.926     0.059     2.216     2.328
    57   1 H        0.926     0.066     2.131     2.283
    58   1 H        0.926     0.066     2.129     2.281
    59   1 H        0.926     0.059     2.214     2.327
    60   1 H        0.926     0.068     2.108     2.271
    61   1 H        0.926     0.064     2.151     2.293
    62   1 H        0.926     0.017     2.773     2.604
    63   1 H        0.926     0.027     2.625     2.534
    64   1 H        0.926     0.028     2.614     2.528
    65   1 H        0.926     0.035     2.510     2.478

molecular dipole:
                 x           y           z       tot (Debye)
 q only:        0.230       0.015       0.000
   full:        0.259      -0.022       0.000       0.661

 projected vibrational frequencies (cm⁻¹)
eigval :       -0.00    -0.00     0.00     0.00     0.00     0.00
eigval :      -22.44    12.46    16.46    27.56    31.20    38.29
eigval :       57.75    62.75    74.45    81.75    97.39   101.04
eigval :      105.59   125.10   130.57   137.29   143.28   171.56
eigval :      191.51   201.82   209.12   218.48   224.50   238.10
eigval :      261.88   284.33   284.54   303.08   304.62   329.01
eigval :      331.92   341.64   349.10   370.72   375.44   377.74
eigval :      388.88   392.49   408.45   427.95   437.66   439.12
eigval :      442.61   446.36   477.57   483.90   484.63   512.84
eigval :      524.25   534.13   539.32   544.07   545.10   568.16
eigval :      581.03   584.37   587.91   600.77   604.88   616.35
eigval :      626.68   641.85   654.40   669.26   679.18   679.50
eigval :      687.38   690.98   711.99   726.25   735.85   771.25
eigval :      776.06   776.80   807.19   812.87   820.30   821.28
eigval :      826.33   826.70   867.24   867.82   868.22   879.15
eigval :      884.45   887.29   909.15   912.10   912.85   915.21
eigval :      917.44   917.87   919.87   920.15   920.69   936.71
eigval :      954.69   982.61   984.31  1010.94  1030.90  1064.12
eigval :     1075.29  1078.86  1112.14  1117.97  1136.31  1139.51
eigval :     1152.82  1156.93  1158.22  1161.77  1173.22  1182.46
eigval :     1186.40  1186.43  1197.06  1208.16  1224.57  1237.71
eigval :     1243.59  1248.87  1267.13  1273.01  1275.84  1283.62
eigval :     1292.41  1294.74  1295.80  1301.70  1323.13  1331.77
eigval :     1336.31  1337.50  1348.23  1364.50  1399.15  1400.36
eigval :     1410.33  1416.49  1417.99  1432.71  1435.53  1439.46
eigval :     1456.42  1466.55  1476.93  1481.73  1485.74  1486.78
eigval :     1494.21  1496.57  1501.54  1503.96  1518.05  1537.83
eigval :     1545.52  1568.11  1574.37  1585.15  1589.03  1589.80
eigval :     1596.36  1601.57  2364.31  2366.30  3021.28  3023.70
eigval :     3038.46  3042.24  3046.86  3052.58  3073.33  3073.36
eigval :     3081.08  3081.19  3088.93  3089.12  3090.56  3093.42
eigval :     3094.76  3095.39  3096.79  3100.95  3103.03  3108.96
eigval :     3109.07  3116.73  3124.97

   temp. (K)  partition function   enthalpy   heat capacity  entropy
                                   cal/mol     cal/K/mol   cal/K/mol   J/K/mol
 298.15  VIB  0.495E+14            18949.957    121.835    115.799
         ROT  0.632E+08              888.752      2.981     38.677
         INT  0.313E+22            19838.709    124.816    154.476
         TR   0.121E+29             1481.254      4.968     44.711
         TOT                       21319.9632   129.7843   199.1877   833.4012

       T/K    H(0)-H(T)+PV         H(T)/Eh          T*S/Eh         G(T)/Eh
   ------------------------------------------------------------------------
    298.15    0.339755E-01    0.519636E+00    0.946405E-01    0.424996E+00
   ------------------------------------------------------------------------

         :::::::::::::::::::::::::::::::::::::::::::::::::::::
         ::                  THERMODYNAMIC                  ::
         :::::::::::::::::::::::::::::::::::::::::::::::::::::
         :: total free energy        -105.188961543889 Eh   ::
         ::.................................................::
         :: total energy             -105.613957124866 Eh   ::
         :: zero point energy           0.485660545154 Eh   ::
         :: G(RRHO) w/o ZPVE           -0.060664964177 Eh   ::
         :: G(RRHO) contrib.            0.424995580977 Eh   ::
         :::::::::::::::::::::::::::::::::::::::::::::::::::::

           -------------------------------------------------
          | TOTAL ENERGY             -105.613957124866 Eh   |
          | TOTAL ENTHALPY           -105.094321055737 Eh   |
          | TOTAL FREE ENERGY        -105.188961543889 Eh   |
          | GRADIENT NORM               0.000076308753 Eh/α |
          | HOMO-LUMO GAP               0.646749912279 eV   |
           -------------------------------------------------

 * finished run on 2025/09/08 at 05:46:57.533
