   * xtb version 6.7.1 (edcfbbe) compiled by 'albert@albert-system' on 2024-07-22

   ID    Z sym.   atoms
    1    6 C      1-9, 11-14, 16-20, 22-29, 31-33, 35-42
    2    7 N      10, 15, 21, 30, 34
    3    1 H      43-65

          program call               : xtb data2507/toluene/Ac-BPCN/Ac-BPCN_toluene_T1_crest.xyz --gfn 2 --uhf 2 --gbsa toluene --ohess vtight --parallel 40 --molden --ceasefiles --namespace data2507/toluene/Ac-BPCN/Ac-BPCN_toluene_T1_finalOpt
      * Solvation model:               GBSA
        Solvent                        toluene
        Solvent mass                       9.2140E+01 g/mol
          :  Hamiltonian                  GFN2-xTB          :
 * total energy  :  -105.5717423 Eh     change       -0.1936280E-07 Eh
 * total energy  :  -105.5718253 Eh     change       -0.8297985E-04 Eh
 * total energy  :  -105.5718404 Eh     change       -0.1511297E-04 Eh
 * total energy  :  -105.5718378 Eh     change        0.2681870E-05 Eh
 * total energy  :  -105.5718651 Eh     change       -0.2734974E-04 Eh
 * total energy  :  -105.5718642 Eh     change        0.9381541E-06 Eh
 * total energy  :  -105.5718670 Eh     change       -0.2865442E-05 Eh
 * total energy  :  -105.5718683 Eh     change       -0.1264784E-05 Eh
 * total energy  :  -105.5718697 Eh     change       -0.1375692E-05 Eh
 * total energy  :  -105.5718729 Eh     change       -0.3251229E-05 Eh
 * total energy  :  -105.5718966 Eh     change       -0.2607260E-05 Eh
 * total energy  :  -105.5718967 Eh     change       -0.1072733E-06 Eh
 * total energy  :  -105.5718976 Eh     change       -0.9364347E-06 Eh
 * total energy  :  -105.5718984 Eh     change       -0.7778421E-06 Eh
 * total energy  :  -105.5718988 Eh     change       -0.3689509E-06 Eh
 * total energy  :  -105.5718991 Eh     change       -0.3254422E-06 Eh
 * total energy  :  -105.5718988 Eh     change        0.2705213E-06 Eh
 * total energy  :  -105.5718993 Eh     change       -0.4852116E-06 Eh
 * total energy  :  -105.5718994 Eh     change       -0.9737046E-07 Eh
   *** GEOMETRY OPTIMIZATION CONVERGED AFTER 29 ITERATIONS ***

 final structure:
================
65
 xtb: 6.7.1 (edcfbbe)
C           -6.89581766959107        1.60602374831188        0.06257085492961
C           -6.31397343461592        0.17895824824822        0.01136236087681
C           -7.45416965222186       -0.85825595941279       -0.01799784840195
C           -5.49479316187866        0.03608751858756       -1.25347974480610
C           -6.10110918770724        0.20801365903100       -2.49065878556782
C           -5.39536546663479        0.09274734866966       -3.67449297919721
C           -4.04060389057671       -0.20331930795326       -3.63789234794656
C           -3.41185459479565       -0.38167971621274       -2.42642206819571
C           -4.12385758517483       -0.26620226980791       -1.22350385278014
N           -3.46669095846981       -0.45096881305929       -0.02518883275923
C           -2.07832872572520       -0.77847077398445       -0.04372160772142
C           -1.68925886097104       -2.11528608300356       -0.10033475913022
C           -0.34898183572005       -2.44706782770882       -0.11349097734398
C            0.63374307657502       -1.45480704265575       -0.07039787894179
N            1.93639162121024       -1.75099681624472       -0.07480106096967
C            2.85594632948202       -0.79650672106067       -0.03346840845694
C            4.24983297176248       -1.12423577524302       -0.02918795220822
C            4.62654389145798       -2.47073839174133       -0.06790012401241
C            5.96107175772598       -2.83096559937656       -0.05936363386886
C            6.33157656018724       -4.18995496301239       -0.09847056249336
N            6.64062571857556       -5.29623195012516       -0.13067644884208
C            6.95229762851480       -1.82900242468614       -0.00958778439431
C            6.58940614298391       -0.50993800746949        0.02632169516612
C            5.24007180822683       -0.10582296270705        0.01713888590070
C            4.83654113160454        1.27188355440430        0.05162824359630
C            5.75543972548630        2.33897499194205        0.08842383210173
C            5.34954048892974        3.64559971685224        0.11859163309234
C            3.97385769736669        3.95565819035779        0.11444114515903
C            3.55272435493090        5.29989296193100        0.14429285833544
N            3.21593990392616        6.39827039463272        0.16886920912064
C            3.04380160102081        2.93362245584493        0.07959469826141
C            3.45296972699119        1.59655821626918        0.04775200480055
C            2.45500254335309        0.56995907842584        0.01039333295045
N            1.16604671577053        0.88036239529415        0.01724051191834
C            0.22845906580476       -0.07276532110882       -0.01806877783804
C           -1.13158991472151        0.23523150428066       -0.00496441540811
C           -4.11075248204378       -0.34654866861276        1.19003054890698
C           -3.38646081066080       -0.54362679849325        2.37480522255938
C           -4.00279055230542       -0.45062380524797        3.60215891589797
C           -5.35695580574657       -0.15822324719287        3.67308511030837
C           -6.07442836419752        0.03933050084079        2.50738424423901
C           -5.48133588664737       -0.04809837894523        1.25495825737980
H           -6.08895092260563        2.33599126835683        0.09218423696050
H           -7.51250153132526        1.73888164552709        0.94631901294440
H           -7.50667751538313        1.80437316686605       -0.81292447104719
H           -7.04141848484144       -1.86448357882150       -0.05951455870760
H           -8.07215337885477       -0.77647044272818        0.87094309908542
H           -8.08707834657488       -0.70979055934581       -0.88759606614877
H           -7.15337309003908        0.43991017549009       -2.53848123348845
H           -5.89741454168046        0.23284470346770       -4.61936336627571
H           -3.47537925451215       -0.29523314993957       -4.55285272150361
H           -2.35866704992780       -0.61283393723952       -2.39845556912106
H           -2.44148253561429       -2.88829403725211       -0.13275715026713
H           -0.03279256359287       -3.47741195673090       -0.15479517350129
H            3.85121466680733       -3.22151029409818       -0.10370828368161
H            7.99348352464733       -2.11492871586113       -0.00109766012544
H            7.37080761821878        0.23118335807579        0.06357275015433
H            6.81356847212828        2.13509840121509        0.09165334781028
H            6.07190373373519        4.44775290000728        0.14521033899062
H            1.98559256247792        3.14844600329203        0.07569403127848
H           -1.43131891908911        1.27077602797902        0.03637607223186
H           -2.33351662170183       -0.77091443526838        2.32051385612376
H           -3.42816276591286       -0.60593413815414        4.50258579062951
H           -5.84933390822735       -0.08402549835383        4.63047743860772
H           -7.12592500481449        0.26768583805929        2.58168406633686

          :  Hamiltonian                  GFN2-xTB          :
         :: gradient norm              0.000064655370 Eh/a0 ::
         :: HOMO-LUMO gap              0.751168875236 eV    ::
         :: SCC energy              -107.542382401389 Eh    ::
         :: -> dispersion             -0.092232770565 Eh    ::
         :: -> Gsolv                  -0.053197389763 Eh    ::
         :: repulsion energy           1.970483010811 Eh    ::

    * Orbital Energies and Occupations

         #    Occupation            Energy/Eh            Energy/eV
      -------------------------------------------------------------
         1        2.0000           -0.6898669             -18.7722
       ...           ...                  ...                  ...
        87        2.0000           -0.4261763             -11.5968
        88        2.0000           -0.4260748             -11.5941
        89        2.0000           -0.4257198             -11.5844
        90        2.0000           -0.4219415             -11.4816
        91        2.0000           -0.4215871             -11.4720
        92        2.0000           -0.4158633             -11.3162
        93        2.0000           -0.4117375             -11.2039
        94        2.0000           -0.4098662             -11.1530
        95        2.0000           -0.4068293             -11.0704
        96        2.0000           -0.3993565             -10.8670
        97        1.6321           -0.3671779              -9.9914
        98        1.3679           -0.3661499              -9.9634
        99        1.0000           -0.3175404              -8.6407 (HOMO)
       100        0.0000           -0.2899356              -7.8895 (LUMO)
       101                         -0.2800967              -7.6218
       102                         -0.2565223              -6.9803
       103                         -0.2445210              -6.6538
       104                         -0.2368524              -6.4451
       105                         -0.2362467              -6.4286
       106                         -0.2351129              -6.3977
       107                         -0.2307129              -6.2780
       108                         -0.2173593              -5.9146
       109                         -0.2126889              -5.7876
       110                         -0.2123777              -5.7791
       ...                                ...                  ...
       191                          1.1589563              31.5368
      -------------------------------------------------------------
                  HL-Gap            0.0276047 Eh            0.7512 eV

     #   Z          covCN         q      C6AA      α(0)
     1   6 C        3.761    -0.108    22.608     6.778
     2   6 C        3.909     0.024    20.109     6.374
     3   6 C        3.761    -0.108    22.615     6.779
     4   6 C        2.978    -0.001    28.053     8.688
     5   6 C        2.925    -0.032    28.801     8.801
     6   6 C        2.917    -0.031    28.785     8.798
     7   6 C        2.918    -0.027    28.684     8.783
     8   6 C        2.922    -0.048    29.199     8.861
     9   6 C        2.929     0.061    26.637     8.464
    10   7 N        2.755    -0.023    21.698     6.918
    11   6 C        2.926     0.054    26.780     8.487
    12   6 C        2.916    -0.044    29.101     8.846
    13   6 C        2.918    -0.056    29.383     8.889
    14   6 C        2.944     0.084    26.122     8.383
    15   7 N        1.849    -0.242    27.179     7.727
    16   6 C        2.944     0.081    26.189     8.393
    17   6 C        2.985    -0.007    28.178     8.707
    18   6 C        2.932    -0.018    28.457     8.749
    19   6 C        2.969     0.011    27.760     8.642
    20   6 C        1.912     0.117    28.209     8.577
    21   7 N        0.911    -0.277    27.155     7.537
    22   6 C        2.920    -0.026    28.640     8.776
    23   6 C        2.918    -0.031    28.761     8.794
    24   6 C        2.975     0.003    27.948     8.672
    25   6 C        2.975     0.003    27.945     8.671
    26   6 C        2.918    -0.030    28.760     8.794
    27   6 C        2.920    -0.025    28.638     8.776
    28   6 C        2.969     0.011    27.760     8.642
    29   6 C        1.912     0.117    28.209     8.577
    30   7 N        0.911    -0.277    27.153     7.536
    31   6 C        2.932    -0.018    28.458     8.749
    32   6 C        2.985    -0.007    28.177     8.707
    33   6 C        2.945     0.082    26.177     8.391
    34   7 N        1.849    -0.244    27.226     7.733
    35   6 C        2.945     0.086    26.079     8.376
    36   6 C        2.920    -0.066    29.646     8.929
    37   6 C        2.929     0.061    26.637     8.464
    38   6 C        2.923    -0.048    29.198     8.861
    39   6 C        2.918    -0.027    28.685     8.783
    40   6 C        2.917    -0.031    28.785     8.798
    41   6 C        2.925    -0.032    28.801     8.801
    42   6 C        2.978    -0.001    28.053     8.688
    43   1 H        0.925     0.037     2.491     2.468
    44   1 H        0.925     0.052     2.291     2.367
    45   1 H        0.925     0.052     2.292     2.368
    46   1 H        0.925     0.038     2.481     2.463
    47   1 H        0.925     0.052     2.291     2.367
    48   1 H        0.925     0.052     2.290     2.367
    49   1 H        0.926     0.052     2.301     2.372
    50   1 H        0.926     0.045     2.387     2.416
    51   1 H        0.926     0.042     2.426     2.435
    52   1 H        0.926     0.036     2.502     2.473
    53   1 H        0.926     0.052     2.298     2.371
    54   1 H        0.926     0.055     2.254     2.348
    55   1 H        0.926     0.053     2.283     2.363
    56   1 H        0.926     0.044     2.398     2.422
    57   1 H        0.926     0.052     2.299     2.371
    58   1 H        0.926     0.052     2.300     2.371
    59   1 H        0.926     0.044     2.397     2.421
    60   1 H        0.926     0.053     2.278     2.360
    61   1 H        0.926     0.054     2.270     2.356
    62   1 H        0.926     0.036     2.504     2.474
    63   1 H        0.926     0.042     2.426     2.436
    64   1 H        0.926     0.045     2.387     2.416
    65   1 H        0.926     0.052     2.301     2.372

molecular dipole:
                 x           y           z       tot (Debye)
 q only:       -4.932      -0.103       0.007
   full:       -4.769      -0.146       0.006      12.128

 projected vibrational frequencies (cm⁻¹)
eigval :       -0.00    -0.00    -0.00    -0.00     0.00     0.00
eigval :       -1.62    15.76    20.49    32.38    42.98    47.96
eigval :       60.51    68.53    75.97    82.43    92.27   101.03
eigval :      116.54   127.39   135.81   137.23   143.15   171.85
eigval :      192.14   200.83   202.32   216.23   223.67   238.06
eigval :      253.61   277.48   288.81   303.61   303.74   325.01
eigval :      331.84   340.73   348.64   374.94   376.24   384.69
eigval :      392.81   394.55   408.63   418.97   439.59   440.87
eigval :      444.15   448.07   472.63   475.48   503.05   504.55
eigval :      524.36   532.28   537.93   540.55   543.01   564.27
eigval :      569.62   581.95   584.14   589.03   595.67   615.91
eigval :      629.42   634.68   651.69   657.54   663.67   666.41
eigval :      688.09   695.03   701.77   705.21   721.70   723.64
eigval :      771.83   774.34   795.66   797.25   810.02   812.28
eigval :      816.08   818.39   824.73   851.25   869.28   871.37
eigval :      875.86   878.50   880.78   898.55   908.71   912.42
eigval :      916.56   917.38   919.22   922.53   922.97   935.98
eigval :      956.88   977.69   988.86  1009.71  1018.27  1061.53
eigval :     1072.47  1081.72  1105.78  1111.50  1131.36  1137.51
eigval :     1145.93  1150.16  1157.30  1162.49  1175.71  1182.64
eigval :     1183.16  1184.07  1197.02  1214.50  1219.55  1233.26
eigval :     1242.87  1250.45  1252.61  1258.52  1271.82  1281.42
eigval :     1288.06  1291.61  1293.04  1303.32  1315.02  1323.11
eigval :     1325.52  1327.41  1333.92  1348.50  1367.44  1389.67
eigval :     1396.75  1403.16  1405.26  1415.36  1417.71  1427.87
eigval :     1431.87  1447.09  1453.45  1456.97  1472.50  1480.52
eigval :     1481.54  1484.60  1491.12  1495.75  1501.92  1508.18
eigval :     1517.45  1538.85  1545.87  1550.69  1564.95  1576.24
eigval :     1576.88  1588.01  2346.72  2347.58  3027.92  3029.95
eigval :     3049.04  3051.44  3056.02  3060.24  3086.04  3086.15
eigval :     3088.15  3089.49  3092.61  3093.21  3093.33  3094.64
eigval :     3096.01  3098.27  3102.26  3102.53  3102.96  3107.22
eigval :     3107.80  3107.83  3116.36

   temp. (K)  partition function   enthalpy   heat capacity  entropy
                                   cal/mol     cal/K/mol   cal/K/mol   J/K/mol
 298.15  VIB  0.193E+16            19577.151    124.367    122.452
         ROT  0.633E+08              888.752      2.981     38.679
         INT  0.122E+24            20465.903    127.348    161.131
         TR   0.121E+29             1481.254      4.968     44.711
         TOT                       21947.1570   132.3165   205.8422   861.2437

       T/K    H(0)-H(T)+PV         H(T)/Eh          T*S/Eh         G(T)/Eh
   ------------------------------------------------------------------------
    298.15    0.349750E-01    0.518418E+00    0.978023E-01    0.420616E+00
   ------------------------------------------------------------------------

         :::::::::::::::::::::::::::::::::::::::::::::::::::::
         ::                  THERMODYNAMIC                  ::
         :::::::::::::::::::::::::::::::::::::::::::::::::::::
         :: total free energy        -105.151283500213 Eh   ::
         ::.................................................::
         :: total energy             -105.571899377550 Eh   ::
         :: zero point energy           0.483443123636 Eh   ::
         :: G(RRHO) w/o ZPVE           -0.062827246300 Eh   ::
         :: G(RRHO) contrib.            0.420615877336 Eh   ::
         :::::::::::::::::::::::::::::::::::::::::::::::::::::

           -------------------------------------------------
          | TOTAL ENERGY             -105.571899377550 Eh   |
          | TOTAL ENTHALPY           -105.053481232909 Eh   |
          | TOTAL FREE ENERGY        -105.151283500213 Eh   |
          | GRADIENT NORM               0.000064488657 Eh/α |
          | HOMO-LUMO GAP               0.751163096001 eV   |
           -------------------------------------------------

 * finished run on 2025/09/08 at 05:53:39.220
