   * xtb version 6.7.1 (edcfbbe) compiled by 'albert@albert-system' on 2024-07-22

   ID    Z sym.   atoms
    1    6 C      1-4, 6-19, 22-28, 30-41, 43
    2    7 N      5, 20, 21, 29
    3    8 O      42
    4    1 H      44-67

          program call               : xtb data2507/toluene/o-CzOXD/o-CzOXD.xyz --gfn 2 --gbsa toluene --ohess vtight --parallel 40 --molden --ceasefiles --namespace data2507/toluene/o-CzOXD/o-CzOXD_toluene_S0_preOpt
      * Solvation model:               GBSA
        Solvent                        toluene
        Solvent mass                       9.2140E+01 g/mol
          :  Hamiltonian                  GFN2-xTB          :
 * total energy  :  -109.4622633 Eh     change       -0.3107900E-08 Eh
 * total energy  :  -109.4766779 Eh     change       -0.1441465E-01 Eh
 * total energy  :  -109.4798702 Eh     change       -0.3192271E-02 Eh
 * total energy  :  -109.4806717 Eh     change       -0.8014652E-03 Eh
 * total energy  :  -109.4813285 Eh     change       -0.6567956E-03 Eh
 * total energy  :  -109.4816163 Eh     change       -0.2878099E-03 Eh
 * total energy  :  -109.4818743 Eh     change       -0.2579997E-03 Eh
 * total energy  :  -109.4820615 Eh     change       -0.1871813E-03 Eh
 * total energy  :  -109.4821959 Eh     change       -0.1344933E-03 Eh
 * total energy  :  -109.4822637 Eh     change       -0.6771535E-04 Eh
 * total energy  :  -109.4826182 Eh     change       -0.9177997E-06 Eh
 * total energy  :  -109.4826191 Eh     change       -0.8989210E-06 Eh
 * total energy  :  -109.4826200 Eh     change       -0.8788356E-06 Eh
 * total energy  :  -109.4826208 Eh     change       -0.8556282E-06 Eh
 * total energy  :  -109.4826217 Eh     change       -0.8380832E-06 Eh
 * total energy  :  -109.4826225 Eh     change       -0.8213332E-06 Eh
 * total energy  :  -109.4826233 Eh     change       -0.8084244E-06 Eh
 * total energy  :  -109.4826241 Eh     change       -0.7955140E-06 Eh
 * total energy  :  -109.4826241 Eh     change       -0.8321706E-08 Eh
   *** GEOMETRY OPTIMIZATION CONVERGED AFTER 94 ITERATIONS ***

 final structure:
================
67
 xtb: 6.7.1 (edcfbbe)
C           -3.77995099118877       -4.15263720343382       -0.79813770223699
C           -4.90683174523168       -3.35030903281128       -0.68951397072377
C           -4.77043006093184       -2.00088822792662       -0.42576496492950
C           -3.51299400205183       -1.42634817846724       -0.25351437261018
N           -3.42727051155373       -0.05130223989717       -0.02306502244697
C           -2.76547265706958        0.86949550127914       -0.81059333426587
C           -2.05955215878873        0.67595022178919       -1.98752774754570
C           -1.53218755099798        1.78850934020790       -2.61452340668830
C           -1.70596705402197        3.06700259795976       -2.09067537268563
C           -2.42846204240523        3.26804898235447       -0.93131887055984
C           -2.97187245141657        2.16495840822840       -0.28658591998178
C           -3.79752268924965        2.00878228572274        0.87962445987956
C           -4.32462674848091        2.89771073959040        1.80736416153626
C           -5.10143354968664        2.39978088805472        2.83568623986426
C           -5.34497916414604        1.03331560799370        2.95341509253349
C           -4.82889678083821        0.12860280440816        2.04380523186317
C           -4.06376093844540        0.62623448072807        0.99957454356816
C           -2.37281306596139       -2.24460328073578       -0.32466026302321
C           -1.04645919309198       -1.74698986105086       -0.03782076514991
N           -0.68193185179668       -0.57319210662663        0.38792461773345
N            0.64581939022269       -0.60443787858670        0.56923392477155
C            1.05232824500282       -1.79813421738187        0.25311685709759
C            2.38384919773889       -2.35481138530513        0.36905185640247
C            2.52534796889237       -3.73155360579792        0.54837360726311
C            3.76812602305999       -4.28944819815647        0.77272195484772
C            4.89028022115844       -3.47560428733110        0.82211762997550
C            4.76982406112084       -2.11411508508627        0.61449001783594
C            3.52530589140159       -1.53785730644316        0.37471927858752
N            3.44036176669478       -0.17087693863392        0.10117173242614
C            3.94029964494880        0.84640779067350        0.89135501159898
C            4.55374259061136        0.77727329184974        2.13323035747357
C            4.95438752612692        1.96299560181482        2.72072846120026
C            4.74452664430096        3.19038469325517        2.09601972507736
C            4.11757713618254        3.26502949863938        0.86743201706433
C            3.70864173638091        2.08691233306806        0.25591732875361
C            3.04912919521580        1.79264515440711       -0.98678671127732
C            2.62060094981701        2.57563996033198       -2.05024672234013
C            2.06404647483196        1.95289182549174       -3.14974110768999
C            1.93770687259934        0.56695630736557       -3.20048662359952
C            2.35241430688344       -0.23207840455700       -2.15185005160366
C            2.89739000810836        0.38887343218185       -1.03826567305510
O            0.02037006230728       -2.58218841817888       -0.14060996857806
C           -2.52801167907648       -3.60326877506166       -0.61478172952272
H           -3.87915739211788       -5.20411224419311       -1.01873234579060
H           -5.89003339243860       -3.77425383912398       -0.82451027610737
H           -5.64060245384294       -1.36440710292483       -0.36515706309960
H           -1.92757935265143       -0.31197445405512       -2.40585809317586
H           -0.97336987237519        1.66370502631999       -3.52971453609479
H           -1.27442612475816        3.91147047455098       -2.60734991997723
H           -2.57592872555278        4.26155847875271       -0.53501200321615
H           -4.12716505101871        3.95587871155641        1.72435704769703
H           -5.52300400451902        3.07546059129773        3.56536509277128
H           -5.94827417014075        0.67230016895321        3.77361257449161
H           -5.01286006619845       -0.93049242331775        2.14839382090493
H            1.64315654642307       -4.35429422949055        0.53077963008884
H            3.86130512717302       -5.35470838588945        0.91609461174381
H            5.86312065509637       -3.90533417568437        1.00540909830908
H            5.64399432742685       -1.48052802310854        0.61636760559493
H            4.70724734281267       -0.16898346647621        2.63022627257274
H            5.43828037912396        1.93698114482872        3.68623028881348
H            5.07243603587643        4.09503378278171        2.58665452933539
H            3.94460870797573        4.21791988659133        0.39031754903722
H            2.72986655369016        3.64917136854766       -2.01873769292744
H            1.72971074738599        2.54434430052652       -3.98928850655615
H            1.51169934082563        0.10477226697592       -4.07981623379324
H            2.26396411807915       -1.30845512067038       -2.20835812442773
H           -1.64763730345443       -4.22480485267328       -0.68187913303809

          :  Hamiltonian                  GFN2-xTB          :
         :: gradient norm              0.000072463255 Eh/a0 ::
         :: HOMO-LUMO gap              2.002491518220 eV    ::
         :: SCC energy              -111.433152043638 Eh    ::
         :: -> dispersion             -0.099359340461 Eh    ::
         :: -> Gsolv                  -0.044868096003 Eh    ::
         :: repulsion energy           1.950527932093 Eh    ::

    * Orbital Energies and Occupations

         #    Occupation            Energy/Eh            Energy/eV
      -------------------------------------------------------------
         1        2.0000           -0.7757100             -21.1081
       ...           ...                  ...                  ...
        89        2.0000           -0.4201510             -11.4329
        90        2.0000           -0.4195771             -11.4173
        91        2.0000           -0.4183213             -11.3831
        92        2.0000           -0.4176240             -11.3641
        93        2.0000           -0.4166812             -11.3385
        94        2.0000           -0.4065901             -11.0639
        95        2.0000           -0.4040811             -10.9956
        96        2.0000           -0.4025219             -10.9532
        97        2.0000           -0.3926151             -10.6836
        98        2.0000           -0.3786092             -10.3025
        99        2.0000           -0.3762946             -10.2395
       100        2.0000           -0.3651844              -9.9372
       101        2.0000           -0.3636474              -9.8953 (HOMO)
       102                         -0.2900572              -7.8929 (LUMO)
       103                         -0.2671478              -7.2695
       104                         -0.2494420              -6.7877
       105                         -0.2484293              -6.7601
       106                         -0.2432351              -6.6188
       107                         -0.2414929              -6.5714
       108                         -0.2219102              -6.0385
       109                         -0.2198963              -5.9837
       110                         -0.2011522              -5.4736
       111                         -0.1927974              -5.2463
       112                         -0.1921411              -5.2284
       ...                                ...                  ...
       196                          0.7481494              20.3582
      -------------------------------------------------------------
                  HL-Gap            0.0735902 Eh            2.0025 eV

     #   Z          covCN         q      C6AA      α(0)
     1   6 C        2.917    -0.030    28.758     8.794
     2   6 C        2.918    -0.022    28.563     8.764
     3   6 C        2.924    -0.040    28.984     8.829
     4   6 C        2.913     0.069    26.449     8.433
     5   7 N        2.803    -0.044    22.081     6.979
     6   6 C        3.075     0.058    26.614     8.458
     7   6 C        2.910    -0.046    29.135     8.851
     8   6 C        2.924    -0.034    28.835     8.806
     9   6 C        2.920    -0.041    29.013     8.833
    10   6 C        2.913    -0.033    28.828     8.804
    11   6 C        3.069    -0.014    28.283     8.720
    12   6 C        3.067    -0.014    28.299     8.723
    13   6 C        2.913    -0.034    28.837     8.806
    14   6 C        2.920    -0.042    29.046     8.838
    15   6 C        2.924    -0.035    28.869     8.811
    16   6 C        2.910    -0.052    29.298     8.876
    17   6 C        3.076     0.049    26.811     8.489
    18   6 C        2.971    -0.022    28.552     8.765
    19   6 C        3.159     0.225    23.011     7.842
    20   7 N        2.047    -0.209    26.275     7.603
    21   7 N        2.044    -0.213    26.379     7.618
    22   6 C        3.162     0.230    22.915     7.825
    23   6 C        2.973    -0.022    28.546     8.764
    24   6 C        2.926    -0.028    28.697     8.785
    25   6 C        2.917    -0.031    28.762     8.794
    26   6 C        2.918    -0.022    28.566     8.765
    27   6 C        2.923    -0.040    28.999     8.831
    28   6 C        2.914     0.070    26.441     8.432
    29   7 N        2.803    -0.044    22.092     6.981
    30   6 C        3.075     0.051    26.777     8.484
    31   6 C        2.910    -0.051    29.273     8.872
    32   6 C        2.924    -0.034    28.846     8.808
    33   6 C        2.920    -0.041    29.031     8.836
    34   6 C        2.913    -0.033    28.827     8.804
    35   6 C        3.068    -0.014    28.300     8.723
    36   6 C        3.068    -0.014    28.285     8.721
    37   6 C        2.913    -0.033    28.824     8.804
    38   6 C        2.920    -0.041    29.010     8.833
    39   6 C        2.924    -0.034    28.858     8.809
    40   6 C        2.910    -0.050    29.252     8.869
    41   6 C        3.075     0.056    26.675     8.468
    42   8 O        1.722    -0.241    17.984     5.726
    43   6 C        2.927    -0.028    28.711     8.787
    44   1 H        0.926     0.055     2.257     2.349
    45   1 H        0.926     0.059     2.213     2.327
    46   1 H        0.926     0.057     2.237     2.339
    47   1 H        0.926     0.010     2.885     2.656
    48   1 H        0.926     0.031     2.576     2.510
    49   1 H        0.926     0.033     2.549     2.497
    50   1 H        0.926     0.036     2.496     2.471
    51   1 H        0.926     0.035     2.517     2.481
    52   1 H        0.926     0.032     2.556     2.500
    53   1 H        0.926     0.033     2.539     2.492
    54   1 H        0.926     0.027     2.623     2.533
    55   1 H        0.926     0.048     2.342     2.393
    56   1 H        0.926     0.056     2.252     2.347
    57   1 H        0.926     0.059     2.210     2.325
    58   1 H        0.926     0.057     2.229     2.335
    59   1 H        0.926     0.030     2.591     2.517
    60   1 H        0.926     0.035     2.522     2.483
    61   1 H        0.926     0.033     2.543     2.494
    62   1 H        0.926     0.035     2.512     2.479
    63   1 H        0.926     0.037     2.488     2.466
    64   1 H        0.926     0.032     2.552     2.498
    65   1 H        0.926     0.027     2.624     2.533
    66   1 H        0.925     0.009     2.903     2.664
    67   1 H        0.926     0.050     2.317     2.380

molecular dipole:
                 x           y           z       tot (Debye)
 q only:        0.036      -1.522      -0.053
   full:        0.056      -2.318      -0.237       5.924

 projected vibrational frequencies (cm⁻¹)
eigval :       -0.00    -0.00    -0.00    -0.00    -0.00     0.00
eigval :       10.78    14.24    20.72    30.72    36.76    54.28
eigval :       62.91    67.07    71.67    86.74    94.03    99.52
eigval :      105.19   120.62   139.74   143.56   147.94   171.88
eigval :      178.18   186.76   219.19   245.21   266.64   269.47
eigval :      270.72   274.18   296.83   304.27   331.78   360.39
eigval :      392.87   394.81   399.98   419.57   423.10   429.97
eigval :      431.99   442.78   445.82   447.46   463.49   493.14
eigval :      502.67   517.75   517.97   519.36   538.82   540.49
eigval :      540.97   548.76   581.85   583.29   598.99   601.54
eigval :      606.92   607.72   648.05   670.83   672.20   673.39
eigval :      683.50   691.24   705.93   706.54   721.10   723.01
eigval :      728.67   732.15   756.49   756.89   766.89   768.74
eigval :      778.09   779.61   784.18   786.36   867.23   868.15
eigval :      869.53   870.95   884.43   885.35   896.24   896.79
eigval :      898.71   899.82   901.04   901.37   916.85   918.51
eigval :      919.24   920.20   920.35   920.87   921.77   922.57
eigval :      927.84   929.74   967.32   970.58  1011.23  1011.72
eigval :     1040.41  1059.34  1068.45  1068.91  1072.30  1072.72
eigval :     1091.96  1094.19  1111.81  1114.89  1145.45  1146.24
eigval :     1150.20  1150.67  1173.88  1175.22  1175.61  1175.78
eigval :     1178.71  1179.82  1180.30  1192.98  1193.88  1234.77
eigval :     1235.23  1240.03  1242.48  1245.40  1247.49  1263.65
eigval :     1289.60  1297.20  1297.69  1301.46  1301.78  1316.88
eigval :     1322.00  1354.42  1355.16  1360.39  1361.65  1361.82
eigval :     1362.00  1412.35  1414.41  1428.00  1428.09  1428.74
eigval :     1429.93  1471.53  1472.86  1474.01  1474.73  1486.13
eigval :     1486.55  1532.34  1537.87  1561.21  1563.41  1574.90
eigval :     1575.08  1582.83  1583.13  1590.34  1590.84  1598.14
eigval :     1598.34  1613.17  1613.60  3055.91  3062.77  3069.84
eigval :     3071.87  3073.57  3076.35  3077.00  3078.64  3079.59
eigval :     3083.82  3085.47  3085.64  3086.34  3088.06  3089.74
eigval :     3090.66  3091.22  3092.34  3094.25  3096.13  3097.37
eigval :     3097.80  3105.43  3105.76

   temp. (K)  partition function   enthalpy   heat capacity  entropy
                                   cal/mol     cal/K/mol   cal/K/mol   J/K/mol
 298.15  VIB  0.118E+15            18682.278    121.275    115.503
         ROT  0.425E+08              888.752      2.981     37.887
         INT  0.499E+22            19571.031    124.256    153.389
         TR   0.126E+29             1481.254      4.968     44.793
         TOT                       21052.2846   129.2237   198.1828   829.1969

       T/K    H(0)-H(T)+PV         H(T)/Eh          T*S/Eh         G(T)/Eh
   ------------------------------------------------------------------------
    298.15    0.335490E-01    0.538366E+00    0.941630E-01    0.444203E+00
   ------------------------------------------------------------------------

         :::::::::::::::::::::::::::::::::::::::::::::::::::::
         ::                  THERMODYNAMIC                  ::
         :::::::::::::::::::::::::::::::::::::::::::::::::::::
         :: total free energy        -109.038420688284 Eh   ::
         ::.................................................::
         :: total energy             -109.482624110222 Eh   ::
         :: zero point energy           0.504817519407 Eh   ::
         :: G(RRHO) w/o ZPVE           -0.060614097469 Eh   ::
         :: G(RRHO) contrib.            0.444203421938 Eh   ::
         :::::::::::::::::::::::::::::::::::::::::::::::::::::

           -------------------------------------------------
          | TOTAL ENERGY             -109.482624110222 Eh   |
          | TOTAL ENTHALPY           -108.944257639884 Eh   |
          | TOTAL FREE ENERGY        -109.038420688284 Eh   |
          | GRADIENT NORM               0.000072462208 Eh/α |
          | HOMO-LUMO GAP               2.002491158792 eV   |
           -------------------------------------------------

 * finished run on 2025/08/25 at 08:44:04.500
