   * xtb version 6.7.1 (edcfbbe) compiled by 'albert@albert-system' on 2024-07-22

   ID    Z sym.   atoms
    1    6 C      1-4, 6-19, 22-28, 30-41, 43
    2    7 N      5, 20, 21, 29
    3    8 O      42
    4    1 H      44-67

          program call               : xtb data2507/toluene/o-CzOXD/o-CzOXD_toluene_S0_finalOpt.xtbopt.xyz --gfn 2 --uhf 2 --gbsa toluene --ohess vtight --parallel 40 --molden --ceasefiles --namespace data2507/toluene/o-CzOXD/o-CzOXD_toluene_T1_preOpt
      * Solvation model:               GBSA
        Solvent                        toluene
        Solvent mass                       9.2140E+01 g/mol
          :  Hamiltonian                  GFN2-xTB          :
 * total energy  :  -109.3923121 Eh     change       -0.3276421E-07 Eh
 * total energy  :  -109.3968999 Eh     change       -0.4587805E-02 Eh
 * total energy  :  -109.3988091 Eh     change       -0.1909240E-02 Eh
 * total energy  :  -109.3989902 Eh     change       -0.1810626E-03 Eh
 * total energy  :  -109.3991866 Eh     change       -0.1964382E-03 Eh
 * total energy  :  -109.3992630 Eh     change       -0.7640132E-04 Eh
 * total energy  :  -109.3993712 Eh     change       -0.1081451E-03 Eh
 * total energy  :  -109.3994301 Eh     change       -0.5895702E-04 Eh
 * total energy  :  -109.3994658 Eh     change       -0.3562042E-04 Eh
 * total energy  :  -109.3994919 Eh     change       -0.2618708E-04 Eh
 * total energy  :  -109.4001443 Eh     change       -0.3407444E-06 Eh
 * total energy  :  -109.4001445 Eh     change       -0.1970683E-06 Eh
 * total energy  :  -109.4001446 Eh     change       -0.1648822E-06 Eh
 * total energy  :  -109.4001448 Eh     change       -0.1712661E-06 Eh
 * total energy  :  -109.4001450 Eh     change       -0.2077971E-06 Eh
 * total energy  :  -109.4001452 Eh     change       -0.2132437E-06 Eh
 * total energy  :  -109.4001454 Eh     change       -0.1628482E-06 Eh
 * total energy  :  -109.4001455 Eh     change       -0.1017879E-06 Eh
 * total energy  :  -109.4001455 Eh     change       -0.6107837E-07 Eh
   *** GEOMETRY OPTIMIZATION CONVERGED AFTER 88 ITERATIONS ***

 final structure:
================
67
 xtb: 6.7.1 (edcfbbe)
C           -3.17910824794627        4.31261109473542        1.45017312663172
C           -4.43820152009411        3.72296799728993        1.27513307893339
C           -4.52674270008610        2.42964124454543        0.79112167702241
C           -3.38691215850054        1.70327218413663        0.48429116236746
N           -3.51612147734386        0.42605161140254       -0.07253918488591
C           -4.19070268112851       -0.63653877938742        0.48902354417644
C           -4.85447982304148       -0.71199086222717        1.70619282023846
C           -5.42820779759669       -1.92192105197746        2.05265045046623
C           -5.33910582194496       -3.03247842150478        1.21648069005004
C           -4.66196316922719       -2.96752894630095        0.01032153859895
C           -4.08063461971286       -1.76455694269564       -0.35988210451317
C           -3.30655494967897       -1.34170263868579       -1.49832255960345
C           -2.88213061588977       -1.97352160600331       -2.65725398833612
C           -2.15243242730397       -1.24358018878691       -3.57966972247349
C           -1.86050714920020        0.10185061492168       -3.36412481201471
C           -2.27260820172605        0.75323442651263       -2.21680651518145
C           -2.98143535702029        0.01793728300006       -1.27548601286468
C           -2.09552403804081        2.26647832842259        0.72724863950779
C           -0.90262042539286        1.53015410609027        0.63204751739315
N            0.33135764693006        2.02030445619778        0.79992721915629
N            1.18498394997607        1.05234800857938        0.63388569065930
C            0.51082040231981       -0.06737821623447        0.36249973860475
C            1.00245549181578       -1.35950554565926        0.12161922861756
C            0.09622397609599       -2.44514055426964        0.01400156252899
C            0.54238776425410       -3.73748860974925       -0.02984954683282
C            1.91332656794825       -4.01850910762759        0.02312235719345
C            2.82423108120527       -2.97669517788315        0.07798915235888
C            2.40161264841907       -1.65697858012232        0.09175540302171
N            3.34797144721491       -0.63141961368819        0.05623056550977
C            4.38424950246111       -0.45912959863487        0.94506911430269
C            4.69746587935997       -1.19032324674362        2.08450568596873
C            5.79267457455251       -0.78816291274434        2.82720389724546
C            6.55441931521450        0.31672035636028        2.45441333876421
C            6.23504523517143        1.06068777721547        1.32920084460349
C            5.14394131455260        0.67546079002948        0.56811525064627
C            4.52730965532870        1.19656911801087       -0.62576869021796
C            4.82363341697905        2.25281191934420       -1.47202392622551
C            4.02340924889841        2.45331638673684       -2.58479004873751
C            2.95456837675234        1.60556561605683       -2.86414937916209
C            2.64287324482314        0.54431755524709       -2.03455565520860
C            3.42127750162593        0.35965818245385       -0.90045867701727
O           -0.84978739424574        0.18091152880217        0.36230732422476
C           -2.03795013488799        3.60836745873819        1.18143625089365
H           -3.11298837195003        5.33047200964018        1.80443826567926
H           -5.33507203951097        4.28327827682232        1.48697285133400
H           -5.49303341945664        1.98130705373777        0.60808751794565
H           -4.91346594450019        0.14352780923638        2.36192680580270
H           -5.95258310678768       -2.00780380067376        2.99271431081721
H           -5.80119834692296       -3.95994544771945        1.52026867268759
H           -4.58315249292561       -3.83482711081376       -0.62755154871809
H           -3.11738584377560       -3.01194255711225       -2.83502965444242
H           -1.80793522878179       -1.71904953117893       -4.48600173048840
H           -1.30108135503380        0.64835601546148       -4.10919900865116
H           -2.04550712045959        1.79686285024664       -2.05335838722830
H           -0.95972006854302       -2.22180856921556       -0.01288664866527
H           -0.16684515176032       -4.54857966229441       -0.10211878826611
H            2.26057348783103       -5.03882583267448       -0.01338141121891
H            3.88504683264788       -3.18207365604393        0.06472211888988
H            4.09987302120470       -2.03805734877948        2.38344258908620
H            6.06011438427321       -1.33975981132925        3.71613593894312
H            7.40301389475986        0.60061887005085        3.05877459873319
H            6.82006225968947        1.92482019753568        1.05408979949968
H            5.66205313253223        2.90186538273839       -1.27042673123982
H            4.23399366929730        3.27449229630577       -3.25365757252449
H            2.35966794768476        1.77825019409829       -3.74897459685640
H            1.81913378276118       -0.11752393465909       -2.25674616615110
H           -1.05941765973258        4.03863093457834        1.32638029667996

          :  Hamiltonian                  GFN2-xTB          :
         :: gradient norm              0.000032759083 Eh/a0 ::
         :: HOMO-LUMO gap              0.652180465813 eV    ::
         :: SCC energy              -111.330549899434 Eh    ::
         :: -> dispersion             -0.100099802500 Eh    ::
         :: -> Gsolv                  -0.044654130595 Eh    ::
         :: repulsion energy           1.930404360094 Eh    ::

    * Orbital Energies and Occupations

         #    Occupation            Energy/Eh            Energy/eV
      -------------------------------------------------------------
         1        2.0000           -0.7356944             -20.0193
       ...           ...                  ...                  ...
        90        2.0000           -0.4163060             -11.3283
        91        2.0000           -0.4146161             -11.2823
        92        2.0000           -0.4138313             -11.2609
        93        2.0000           -0.4132042             -11.2439
        94        2.0000           -0.4118409             -11.2068
        95        2.0000           -0.4091430             -11.1333
        96        2.0000           -0.3891533             -10.5894
        97        2.0000           -0.3870941             -10.5334
        98        2.0000           -0.3805615             -10.3556
        99        1.9958           -0.3745478             -10.1920
       100        1.9142           -0.3716003             -10.1118
       101        1.0901           -0.3671556              -9.9908
       102        1.0000           -0.2808061              -7.6411 (HOMO)
       103        0.0000           -0.2568389              -6.9889 (LUMO)
       104        0.0000           -0.2544747              -6.9246
       105                         -0.2505974              -6.8191
       106                         -0.2328640              -6.3366
       107                         -0.2320843              -6.3153
       108                         -0.2310563              -6.2874
       109                         -0.2304783              -6.2716
       110                         -0.2013860              -5.4800
       111                         -0.1995407              -5.4298
       112                         -0.1966162              -5.3502
       113                         -0.1941547              -5.2832
       ...                                ...                  ...
       196                          0.7378684              20.0784
      -------------------------------------------------------------
                  HL-Gap            0.0239672 Eh            0.6522 eV

     #   Z          covCN         q      C6AA      α(0)
     1   6 C        2.913    -0.030    28.751     8.793
     2   6 C        2.916    -0.042    29.044     8.837
     3   6 C        2.917    -0.043    29.061     8.840
     4   6 C        2.910     0.049    26.911     8.506
     5   7 N        2.802    -0.017    21.576     6.899
     6   6 C        3.077     0.052    26.765     8.482
     7   6 C        2.909    -0.043    29.069     8.841
     8   6 C        2.923    -0.032    28.796     8.800
     9   6 C        2.920    -0.035    28.863     8.810
    10   6 C        2.912    -0.030    28.761     8.794
    11   6 C        3.065    -0.012    28.246     8.715
    12   6 C        3.065    -0.012    28.244     8.715
    13   6 C        2.912    -0.030    28.757     8.793
    14   6 C        2.920    -0.035    28.880     8.813
    15   6 C        2.923    -0.032    28.803     8.801
    16   6 C        2.909    -0.038    28.947     8.822
    17   6 C        3.078     0.059    26.593     8.455
    18   6 C        2.967    -0.027    28.661     8.781
    19   6 C        3.098     0.200    23.649     7.970
    20   7 N        2.030    -0.218    26.499     7.635
    21   7 N        2.028    -0.209    26.309     7.608
    22   6 C        3.098     0.197    23.718     7.981
    23   6 C        2.966    -0.026    28.657     8.781
    24   6 C        2.922    -0.039    28.970     8.826
    25   6 C        2.913    -0.030    28.751     8.793
    26   6 C        2.916    -0.043    29.058     8.839
    27   6 C        2.917    -0.042    29.051     8.839
    28   6 C        2.911     0.049    26.900     8.505
    29   7 N        2.803    -0.005    21.357     6.864
    30   6 C        3.077     0.052    26.748     8.479
    31   6 C        2.909    -0.041    29.012     8.832
    32   6 C        2.922    -0.031    28.775     8.797
    33   6 C        2.920    -0.032    28.796     8.800
    34   6 C        2.912    -0.028    28.706     8.786
    35   6 C        3.066    -0.007    28.127     8.697
    36   6 C        3.065    -0.007    28.138     8.698
    37   6 C        2.912    -0.028    28.705     8.785
    38   6 C        2.920    -0.033    28.818     8.803
    39   6 C        2.923    -0.030    28.759     8.794
    40   6 C        2.910    -0.036    28.893     8.814
    41   6 C        3.078     0.059    26.585     8.453
    42   8 O        1.713    -0.287    18.760     5.848
    43   6 C        2.923    -0.041    29.023     8.835
    44   1 H        0.926     0.040     2.445     2.445
    45   1 H        0.926     0.040     2.454     2.450
    46   1 H        0.926     0.040     2.452     2.449
    47   1 H        0.926     0.037     2.493     2.469
    48   1 H        0.926     0.040     2.451     2.448
    49   1 H        0.926     0.040     2.448     2.446
    50   1 H        0.926     0.042     2.428     2.437
    51   1 H        0.926     0.042     2.426     2.436
    52   1 H        0.926     0.039     2.467     2.456
    53   1 H        0.926     0.035     2.510     2.477
    54   1 H        0.926     0.026     2.641     2.541
    55   1 H        0.926     0.035     2.514     2.479
    56   1 H        0.926     0.039     2.462     2.453
    57   1 H        0.926     0.041     2.436     2.441
    58   1 H        0.926     0.043     2.408     2.427
    59   1 H        0.926     0.040     2.447     2.446
    60   1 H        0.926     0.044     2.398     2.422
    61   1 H        0.926     0.045     2.387     2.416
    62   1 H        0.926     0.047     2.361     2.403
    63   1 H        0.926     0.047     2.360     2.403
    64   1 H        0.926     0.043     2.408     2.427
    65   1 H        0.926     0.039     2.466     2.456
    66   1 H        0.926     0.027     2.634     2.538
    67   1 H        0.926     0.047     2.363     2.404

molecular dipole:
                 x           y           z       tot (Debye)
 q only:        0.412      -0.858      -0.380
   full:       -0.119      -1.119      -0.404       3.040

 projected vibrational frequencies (cm⁻¹)
eigval :       -0.00    -0.00    -0.00     0.00     0.00     0.00
eigval :       15.56    19.84    23.42    26.46    34.97    48.83
eigval :       63.23    64.40    71.73    92.03    97.55   103.30
eigval :      109.76   122.68   137.78   141.45   153.96   159.86
eigval :      178.91   200.54   215.10   219.68   263.20   268.28
eigval :      269.80   270.93   284.76   312.60   330.16   348.54
eigval :      386.32   391.08   398.09   414.85   418.69   419.45
eigval :      422.89   426.42   434.71   441.73   462.37   465.98
eigval :      476.66   512.90   514.15   516.54   534.47   535.29
eigval :      546.99   552.58   567.25   580.09   581.17   594.22
eigval :      594.68   602.68   605.08   635.20   650.62   670.12
eigval :      673.38   673.64   676.39   681.74   707.05   708.89
eigval :      719.08   730.28   748.50   751.82   754.59   754.96
eigval :      764.99   767.45   773.39   776.20   847.35   851.16
eigval :      865.22   867.06   867.28   867.71   890.51   891.05
eigval :      895.36   898.11   898.66   899.07   902.85   903.77
eigval :      904.21   904.69   908.19   911.92   912.99   916.68
eigval :      917.28   918.14   920.76   922.82  1009.22  1009.78
eigval :     1011.86  1027.85  1064.53  1065.32  1065.98  1067.80
eigval :     1068.51  1074.13  1092.35  1098.89  1133.80  1136.48
eigval :     1140.52  1144.06  1163.99  1171.62  1172.28  1172.65
eigval :     1176.26  1176.74  1182.00  1185.34  1197.79  1211.20
eigval :     1224.19  1226.38  1228.59  1229.05  1238.47  1246.03
eigval :     1273.46  1280.78  1283.13  1286.48  1289.21  1321.20
eigval :     1326.74  1327.82  1337.18  1351.73  1355.80  1359.71
eigval :     1361.50  1364.51  1387.11  1392.17  1406.46  1409.85
eigval :     1410.94  1415.00  1422.73  1425.05  1457.37  1459.03
eigval :     1478.59  1479.67  1482.54  1483.12  1521.43  1548.57
eigval :     1562.67  1563.09  1566.77  1571.93  1576.11  1578.29
eigval :     1578.86  1595.27  1598.37  3073.60  3075.28  3076.98
eigval :     3078.31  3078.45  3079.39  3080.46  3080.67  3082.61
eigval :     3082.69  3083.50  3085.60  3086.49  3088.99  3090.21
eigval :     3092.81  3093.45  3095.33  3096.26  3096.75  3098.37
eigval :     3098.80  3102.60  3105.01

   temp. (K)  partition function   enthalpy   heat capacity  entropy
                                   cal/mol     cal/K/mol   cal/K/mol   J/K/mol
 298.15  VIB  0.837E+14            18948.834    123.205    116.126
         ROT  0.417E+08              888.752      2.981     37.849
         INT  0.349E+22            19837.587    126.186    153.976
         TR   0.126E+29             1481.254      4.968     44.793
         TOT                       21318.8408   131.1543   198.7690   831.6495

       T/K    H(0)-H(T)+PV         H(T)/Eh          T*S/Eh         G(T)/Eh
   ------------------------------------------------------------------------
    298.15    0.339737E-01    0.534155E+00    0.944416E-01    0.439714E+00
   ------------------------------------------------------------------------

         :::::::::::::::::::::::::::::::::::::::::::::::::::::
         ::                  THERMODYNAMIC                  ::
         :::::::::::::::::::::::::::::::::::::::::::::::::::::
         :: total free energy        -108.960431835937 Eh   ::
         ::.................................................::
         :: total energy             -109.400145540607 Eh   ::
         :: zero point energy           0.500181530245 Eh   ::
         :: G(RRHO) w/o ZPVE           -0.060467825575 Eh   ::
         :: G(RRHO) contrib.            0.439713704671 Eh   ::
         :::::::::::::::::::::::::::::::::::::::::::::::::::::

           -------------------------------------------------
          | TOTAL ENERGY             -109.400145540607 Eh   |
          | TOTAL ENTHALPY           -108.865990275081 Eh   |
          | TOTAL FREE ENERGY        -108.960431835937 Eh   |
          | GRADIENT NORM               0.000033064446 Eh/α |
          | HOMO-LUMO GAP               0.652180503877 eV   |
           -------------------------------------------------

 * finished run on 2025/08/25 at 08:47:25.776
