   * xtb version 6.7.1 (edcfbbe) compiled by 'albert@albert-system' on 2024-07-22

   ID    Z sym.   atoms
    1    6 C      1-4, 6-19, 22-28, 30-41, 43
    2    7 N      5, 20, 21, 29
    3    8 O      42
    4    1 H      44-67

          program call               : xtb data2507/toluene/o-CzOXD/o-CzOXD_toluene_S0_crest.xyz --gfn 2 --gbsa toluene --ohess vtight --parallel 40 --molden --ceasefiles --namespace data2507/toluene/o-CzOXD/o-CzOXD_toluene_S0_finalOpt
      * Solvation model:               GBSA
        Solvent                        toluene
        Solvent mass                       9.2140E+01 g/mol
          :  Hamiltonian                  GFN2-xTB          :
 * total energy  :  -109.4863567 Eh     change       -0.3235925E-08 Eh
 * total energy  :  -109.4864211 Eh     change       -0.6436377E-04 Eh
 * total energy  :  -109.4864826 Eh     change       -0.6158788E-04 Eh
 * total energy  :  -109.4865246 Eh     change       -0.4195906E-04 Eh
 * total energy  :  -109.4865525 Eh     change       -0.2786968E-04 Eh
 * total energy  :  -109.4865837 Eh     change       -0.3126425E-04 Eh
 * total energy  :  -109.4866050 Eh     change       -0.2123210E-04 Eh
 * total energy  :  -109.4866196 Eh     change       -0.1462254E-04 Eh
 * total energy  :  -109.4866375 Eh     change       -0.1791415E-04 Eh
 * total energy  :  -109.4866492 Eh     change       -0.1164766E-04 Eh
 * total energy  :  -109.4867067 Eh     change       -0.1087762E-05 Eh
 * total energy  :  -109.4867078 Eh     change       -0.1094446E-05 Eh
 * total energy  :  -109.4867086 Eh     change       -0.7583089E-06 Eh
 * total energy  :  -109.4867092 Eh     change       -0.6161513E-06 Eh
 * total energy  :  -109.4867098 Eh     change       -0.6244031E-06 Eh
 * total energy  :  -109.4867103 Eh     change       -0.4502787E-06 Eh
 * total energy  :  -109.4867106 Eh     change       -0.2605092E-06 Eh
 * total energy  :  -109.4867107 Eh     change       -0.1579373E-06 Eh
 * total energy  :  -109.4867108 Eh     change       -0.5530022E-07 Eh
   *** GEOMETRY OPTIMIZATION CONVERGED AFTER 38 ITERATIONS ***

 final structure:
================
67
 xtb: 6.7.1 (edcfbbe)
C           -3.35478442126436        4.28018559382514        1.55448998165756
C           -4.55728486548001        3.70519876555806        1.16708751439498
C           -4.57447296462396        2.43656610342914        0.61779680052174
C           -3.39455470990913        1.71640057241917        0.46159867897458
N           -3.43867115146647        0.44641745701037       -0.13414298788690
C           -4.12410301030476       -0.64854837441763        0.35489462243720
C           -4.92095920846737       -0.75460769792272        1.48521674616380
C           -5.47981206853531       -1.98789435004104        1.76420716319983
C           -5.24771136587852       -3.09300232891225        0.94737198647988
C           -4.44165347084716       -2.99556098541523       -0.16991213765915
C           -3.87113676742337       -1.76569727857448       -0.47365112509886
C           -2.99381918950407       -1.31034920819967       -1.51704975889904
C           -2.40556098870948       -1.92884350529431       -2.61283191469250
C           -1.59867310672218       -1.17613866689196       -3.44298715227868
C           -1.38563632139825        0.17968995768870       -3.20063850798895
C           -1.95830451060822        0.81778297736400       -2.11671532248898
C           -2.75336032907848        0.06027811164628       -1.26868988849930
C           -2.18259707047530        2.27978089888501        0.89204720456975
C           -0.93051920073465        1.55687932910340        0.84313490822800
N            0.25599809628199        2.06355437201457        1.03067058969739
N            1.13911093569749        1.06163347116786        0.91800217091118
C            0.46428012287701       -0.02290940730994        0.66719637573520
C            0.94086704596287       -1.37492171059379        0.48147806041757
C            0.02562507486259       -2.42495310813633        0.57982922643745
C            0.44423536669953       -3.73641293215877        0.48613891338868
C            1.78895573212717       -4.01863003251885        0.29362200850769
C            2.70250059377880       -2.98911758368823        0.16522597328448
C            2.29497594159127       -1.65983949550525        0.24318800563185
N            3.23499791084331       -0.64335855664826        0.05567752777702
C            4.40404877940577       -0.48787227593517        0.77608311128785
C            4.88937239960757       -1.23241339173569        1.84077568757438
C            6.09341436676758       -0.84766627061887        2.40123096074047
C            6.79772417643393        0.25503443580067        1.92310033898222
C            6.30886448382042        1.01045292865394        0.87488808289635
C            5.10191163619538        0.64244134788898        0.29463070861614
C            4.31064079269188        1.18487288937695       -0.77555406391645
C            4.48016680592131        2.25992094717965       -1.63783615367014
C            3.51645989175707        2.49603910890710       -2.59823361048715
C            2.40432115959776        1.66571342301911       -2.71527374345485
C            2.21560074351085        0.58832951178288       -1.87057835629269
C            3.16534566408398        0.36471895188822       -0.88502848195624
O           -0.86411986604398        0.22702859399399        0.62195960131941
C           -2.17761120892436        3.57265577007220        1.41982255550203
H           -3.33828158148455        5.27651660946790        1.96791005135484
H           -5.48139578479794        4.25114073064053        1.28007287809343
H           -5.50228924867200        1.99180540571855        0.28968285239831
H           -5.09545054803150        0.09548403622113        2.12791241345598
H           -6.10792034701541       -2.09764412652282        2.63607736736359
H           -5.70306164991672       -4.03945311556598        1.19898914451916
H           -4.25348852692041       -3.85484282624456       -0.79598026679329
H           -2.57676716397048       -2.97680506259253       -2.80753220494593
H           -1.12595885483311       -1.63847374029329       -4.29709582963058
H           -0.75883240369638        0.74463731829141       -3.87492736017133
H           -1.78471066300483        1.86940387891141       -1.93390708309475
H           -1.01675405112203       -2.19568309627445        0.74337163211870
H           -0.27514551482370       -4.53615906497267        0.56876870916075
H            2.12388108006562       -5.04253659705874        0.22699014874278
H            3.74508767198793       -3.20219147022517       -0.01774858799496
H            4.34308571645251       -2.08025424444818        2.22640477822947
H            6.49507974057515       -1.41314246026141        3.22943627044476
H            7.73560470452046        0.52379381530017        2.38664539759153
H            6.84897743844792        1.87279528637218        0.51390224203161
H            5.34981086855723        2.89481464918889       -1.55795337066338
H            3.62500273126829        3.33013724311423       -3.27601196467210
H            1.67501484640300        1.86818300995692       -3.48623105765110
H            1.35253801899757       -0.05456718177387       -1.97758491475349
H           -1.23140922860517        3.98917691429112        1.72746369460303

          :  Hamiltonian                  GFN2-xTB          :
         :: gradient norm              0.000082429752 Eh/a0 ::
         :: HOMO-LUMO gap              2.038925122993 eV    ::
         :: SCC energy              -111.435583692570 Eh    ::
         :: -> dispersion             -0.102356762140 Eh    ::
         :: -> Gsolv                  -0.043766079911 Eh    ::
         :: repulsion energy           1.948872925156 Eh    ::

    * Orbital Energies and Occupations

         #    Occupation            Energy/Eh            Energy/eV
      -------------------------------------------------------------
         1        2.0000           -0.7744463             -21.0738
       ...           ...                  ...                  ...
        89        2.0000           -0.4236617             -11.5284
        90        2.0000           -0.4228834             -11.5072
        91        2.0000           -0.4207536             -11.4493
        92        2.0000           -0.4182731             -11.3818
        93        2.0000           -0.4173372             -11.3563
        94        2.0000           -0.4116179             -11.2007
        95        2.0000           -0.4056154             -11.0374
        96        2.0000           -0.4018487             -10.9349
        97        2.0000           -0.3936305             -10.7112
        98        2.0000           -0.3852501             -10.4832
        99        2.0000           -0.3772706             -10.2661
       100        2.0000           -0.3712171             -10.1013
       101        2.0000           -0.3640339              -9.9059 (HOMO)
       102                         -0.2891048              -7.8669 (LUMO)
       103                         -0.2668055              -7.2601
       104                         -0.2527273              -6.8771
       105                         -0.2472853              -6.7290
       106                         -0.2464113              -6.7052
       107                         -0.2415537              -6.5730
       108                         -0.2284186              -6.2156
       109                         -0.2207147              -6.0060
       110                         -0.1995514              -5.4301
       111                         -0.1978616              -5.3841
       112                         -0.1930879              -5.2542
       ...                                ...                  ...
       196                          0.7472254              20.3330
      -------------------------------------------------------------
                  HL-Gap            0.0749292 Eh            2.0389 eV

     #   Z          covCN         q      C6AA      α(0)
     1   6 C        2.917    -0.026    28.658     8.779
     2   6 C        2.918    -0.022    28.550     8.762
     3   6 C        2.922    -0.040    28.983     8.828
     4   6 C        2.912     0.068    26.487     8.439
     5   7 N        2.802    -0.050    22.199     6.998
     6   6 C        3.075     0.049    26.816     8.490
     7   6 C        2.909    -0.052    29.295     8.875
     8   6 C        2.924    -0.034    28.837     8.806
     9   6 C        2.920    -0.042    29.033     8.836
    10   6 C        2.912    -0.034    28.853     8.808
    11   6 C        3.067    -0.018    28.378     8.735
    12   6 C        3.067    -0.017    28.369     8.734
    13   6 C        2.912    -0.035    28.868     8.810
    14   6 C        2.920    -0.043    29.062     8.840
    15   6 C        2.924    -0.034    28.848     8.808
    16   6 C        2.909    -0.050    29.232     8.866
    17   6 C        3.076     0.054    26.713     8.474
    18   6 C        2.974    -0.021    28.515     8.759
    19   6 C        3.169     0.227    22.948     7.827
    20   7 N        2.048    -0.222    26.582     7.648
    21   7 N        2.045    -0.211    26.323     7.610
    22   6 C        3.170     0.227    22.934     7.824
    23   6 C        2.973    -0.022    28.554     8.765
    24   6 C        2.926    -0.026    28.661     8.780
    25   6 C        2.917    -0.030    28.740     8.791
    26   6 C        2.918    -0.022    28.565     8.764
    27   6 C        2.923    -0.040    29.006     8.832
    28   6 C        2.913     0.069    26.451     8.433
    29   7 N        2.803    -0.044    22.082     6.979
    30   6 C        3.076     0.050    26.789     8.486
    31   6 C        2.910    -0.052    29.287     8.874
    32   6 C        2.924    -0.034    28.857     8.809
    33   6 C        2.920    -0.042    29.042     8.837
    34   6 C        2.913    -0.034    28.835     8.805
    35   6 C        3.067    -0.014    28.301     8.723
    36   6 C        3.069    -0.013    28.273     8.719
    37   6 C        2.913    -0.033    28.833     8.805
    38   6 C        2.920    -0.042    29.039     8.837
    39   6 C        2.924    -0.034    28.847     8.808
    40   6 C        2.910    -0.046    29.150     8.853
    41   6 C        3.075     0.058    26.621     8.459
    42   8 O        1.723    -0.223    17.699     5.680
    43   6 C        2.927    -0.028    28.705     8.786
    44   1 H        0.926     0.059     2.212     2.326
    45   1 H        0.926     0.060     2.203     2.321
    46   1 H        0.926     0.056     2.248     2.345
    47   1 H        0.926     0.029     2.605     2.524
    48   1 H        0.926     0.034     2.537     2.491
    49   1 H        0.926     0.032     2.555     2.500
    50   1 H        0.926     0.034     2.524     2.484
    51   1 H        0.926     0.035     2.511     2.478
    52   1 H        0.926     0.030     2.579     2.512
    53   1 H        0.926     0.028     2.613     2.528
    54   1 H        0.925     0.015     2.810     2.621
    55   1 H        0.926     0.048     2.348     2.396
    56   1 H        0.926     0.055     2.260     2.351
    57   1 H        0.926     0.059     2.215     2.328
    58   1 H        0.926     0.057     2.234     2.337
    59   1 H        0.926     0.029     2.601     2.522
    60   1 H        0.926     0.034     2.532     2.489
    61   1 H        0.926     0.032     2.553     2.499
    62   1 H        0.926     0.035     2.517     2.481
    63   1 H        0.926     0.037     2.496     2.470
    64   1 H        0.926     0.032     2.559     2.502
    65   1 H        0.926     0.027     2.634     2.538
    66   1 H        0.925     0.010     2.896     2.661
    67   1 H        0.926     0.062     2.179     2.308

molecular dipole:
                 x           y           z       tot (Debye)
 q only:       -1.007      -0.606       0.238
   full:       -1.547      -0.887       0.165       4.552

 projected vibrational frequencies (cm⁻¹)
eigval :        0.00     0.00     0.00     0.00     0.00     0.00
eigval :       14.83    15.07    17.71    25.85    33.40    49.70
eigval :       60.40    66.43    70.19    90.01    94.88   103.69
eigval :      105.27   121.88   142.30   145.83   153.97   175.18
eigval :      185.47   201.54   221.12   225.62   267.70   271.91
eigval :      274.22   277.07   289.86   330.30   333.27   344.69
eigval :      390.89   395.35   399.53   418.88   424.59   428.89
eigval :      434.16   442.94   444.25   449.86   477.24   478.52
eigval :      507.53   517.99   518.24   518.91   541.61   541.75
eigval :      542.59   548.08   581.89   583.38   599.80   600.55
eigval :      607.60   608.24   649.98   672.37   673.80   675.70
eigval :      682.27   689.13   706.71   708.43   721.33   722.13
eigval :      728.73   732.19   756.15   756.90   766.26   768.08
eigval :      777.90   779.67   785.23   789.74   863.35   868.69
eigval :      870.77   874.15   883.96   890.08   895.99   897.04
eigval :      897.64   900.78   901.14   902.47   917.94   920.23
eigval :      920.77   921.12   921.49   922.00   923.27   925.44
eigval :      928.64   934.48   972.07   975.14  1010.65  1011.30
eigval :     1050.06  1066.59  1067.53  1068.94  1071.25  1073.61
eigval :     1086.31  1093.36  1112.75  1117.26  1139.48  1147.17
eigval :     1148.90  1150.08  1172.11  1174.47  1174.94  1176.13
eigval :     1178.32  1178.90  1180.02  1192.13  1193.63  1229.94
eigval :     1234.15  1234.51  1242.35  1243.46  1247.59  1271.62
eigval :     1296.46  1297.21  1300.93  1301.29  1304.67  1313.90
eigval :     1321.96  1352.61  1354.72  1358.41  1360.14  1360.57
eigval :     1361.48  1413.91  1419.91  1426.26  1427.60  1428.84
eigval :     1430.05  1459.23  1472.91  1473.36  1474.35  1486.13
eigval :     1486.32  1524.33  1537.76  1560.69  1562.97  1572.88
eigval :     1574.66  1583.11  1583.93  1588.58  1590.11  1597.28
eigval :     1597.72  1612.50  1613.09  3058.56  3063.51  3071.80
eigval :     3072.12  3074.21  3075.08  3076.78  3078.62  3080.01
eigval :     3083.87  3084.26  3085.40  3087.26  3087.65  3089.84
eigval :     3090.61  3092.41  3092.71  3094.70  3095.02  3097.23
eigval :     3102.74  3105.45  3112.82

   temp. (K)  partition function   enthalpy   heat capacity  entropy
                                   cal/mol     cal/K/mol   cal/K/mol   J/K/mol
 298.15  VIB  0.114E+15            18646.153    120.917    114.892
         ROT  0.396E+08              888.752      2.981     37.748
         INT  0.451E+22            19534.905    123.898    152.640
         TR   0.126E+29             1481.254      4.968     44.793
         TOT                       21016.1593   128.8657   197.4336   826.0620

       T/K    H(0)-H(T)+PV         H(T)/Eh          T*S/Eh         G(T)/Eh
   ------------------------------------------------------------------------
    298.15    0.334914E-01    0.538468E+00    0.938071E-01    0.444661E+00
   ------------------------------------------------------------------------

         :::::::::::::::::::::::::::::::::::::::::::::::::::::
         ::                  THERMODYNAMIC                  ::
         :::::::::::::::::::::::::::::::::::::::::::::::::::::
         :: total free energy        -109.042049989707 Eh   ::
         ::.................................................::
         :: total energy             -109.486710772020 Eh   ::
         :: zero point energy           0.504976458414 Eh   ::
         :: G(RRHO) w/o ZPVE           -0.060315676101 Eh   ::
         :: G(RRHO) contrib.            0.444660782313 Eh   ::
         :::::::::::::::::::::::::::::::::::::::::::::::::::::

           -------------------------------------------------
          | TOTAL ENERGY             -109.486710772020 Eh   |
          | TOTAL ENTHALPY           -108.948242931898 Eh   |
          | TOTAL FREE ENERGY        -109.042049989707 Eh   |
          | GRADIENT NORM               0.000082413087 Eh/α |
          | HOMO-LUMO GAP               2.038926143033 eV   |
           -------------------------------------------------

 * finished run on 2025/08/25 at 08:47:16.746
