   * xtb version 6.7.1 (edcfbbe) compiled by 'albert@albert-system' on 2024-07-22

   ID    Z sym.   atoms
    1    6 C      1-4, 6-19, 22-28, 30-41, 43
    2    7 N      5, 20, 21, 29
    3    8 O      42
    4    1 H      44-67

          program call               : xtb data2507/toluene/o-CzOXD/o-CzOXD_toluene_T1_crest.xyz --gfn 2 --uhf 2 --gbsa toluene --ohess vtight --parallel 40 --molden --ceasefiles --namespace data2507/toluene/o-CzOXD/o-CzOXD_toluene_T1_finalOpt
      * Solvation model:               GBSA
        Solvent                        toluene
        Solvent mass                       9.2140E+01 g/mol
          :  Hamiltonian                  GFN2-xTB          :
 * total energy  :  -109.3992454 Eh     change       -0.1118030E-07 Eh
 * total energy  :  -109.3993431 Eh     change       -0.9772040E-04 Eh
 * total energy  :  -109.3994231 Eh     change       -0.7999874E-04 Eh
 * total energy  :  -109.3994608 Eh     change       -0.3766163E-04 Eh
 * total energy  :  -109.3995045 Eh     change       -0.4371073E-04 Eh
 * total energy  :  -109.3995443 Eh     change       -0.3980330E-04 Eh
 * total energy  :  -109.3995710 Eh     change       -0.2675498E-04 Eh
 * total energy  :  -109.3996001 Eh     change       -0.2903214E-04 Eh
 * total energy  :  -109.3996232 Eh     change       -0.2310068E-04 Eh
 * total energy  :  -109.3996500 Eh     change       -0.2677692E-04 Eh
 * total energy  :  -109.4001088 Eh     change       -0.4006406E-06 Eh
 * total energy  :  -109.4001093 Eh     change       -0.4275017E-06 Eh
 * total energy  :  -109.4001097 Eh     change       -0.4287192E-06 Eh
 * total energy  :  -109.4001100 Eh     change       -0.2805101E-06 Eh
 * total energy  :  -109.4001102 Eh     change       -0.2760293E-06 Eh
 * total energy  :  -109.4001105 Eh     change       -0.2493796E-06 Eh
 * total energy  :  -109.4001107 Eh     change       -0.1997373E-06 Eh
 * total energy  :  -109.4001108 Eh     change       -0.1355423E-06 Eh
 * total energy  :  -109.4001109 Eh     change       -0.6884268E-07 Eh
   *** GEOMETRY OPTIMIZATION CONVERGED AFTER 65 ITERATIONS ***

 final structure:
================
67
 xtb: 6.7.1 (edcfbbe)
C           -3.09229071016903        4.43787484392462        1.25736534499089
C           -4.36292233969220        3.86331731217446        1.11828782070406
C           -4.47800232853989        2.55101058495749        0.69484016482612
C           -3.35338329487256        1.79024624096833        0.41606184758532
N           -3.50887104376469        0.49224356448154       -0.08238222272986
C           -4.20731686070876       -0.52934744182106        0.52452807383295
C           -4.87332269856213       -0.53652426994851        1.74281902753790
C           -5.47417919692345       -1.71695534037771        2.14117716278026
C           -5.40893511597580       -2.86513215999022        1.35512908906473
C           -4.73001241101686       -2.86827543072953        0.14822801318170
C           -4.12259710155704       -1.69570600799394       -0.27400868180020
C           -3.34007465742520       -1.34043663735811       -1.42962849426817
C           -2.93241177096029       -2.03128667313753       -2.56056487432355
C           -2.18769626467665       -1.35893619582095       -3.51418046603324
C           -1.86448025365826       -0.01259957733454       -3.35706259325611
C           -2.26018103258321        0.69723788948980       -2.23901091254724
C           -2.98419206307695        0.01992533717354       -1.26626420380641
C           -2.05060415643525        2.34005286943843        0.62753510738798
C           -0.87211175263025        1.57788405913295        0.56470338175126
N            0.37106187623340        2.05264715326643        0.70765233076395
N            1.20649922505533        1.06262301320711        0.58492108380399
C            0.51132919619561       -0.05582999618905        0.36644248314672
C            0.97890458146287       -1.36613536753979        0.18262120943821
C            0.05302681715755       -2.43893181410899        0.12567171209939
C            0.47588908909566       -3.73979052588137        0.13704674683071
C            1.84175693079413       -4.04288482185383        0.19816325285847
C            2.77127900422139       -3.01625134850348        0.20481155086355
C            2.37225907146234       -1.68980501869024        0.16201188684445
N            3.33699174420609       -0.68433832816180        0.07950904898918
C            4.37876149842495       -0.49377696723759        0.95807533479355
C            4.68009198697734       -1.18069418462780        2.12783182883901
C            5.78440443691106       -0.76795320898249        2.85090030435099
C            6.56669237179781        0.30445939057270        2.42905239641340
C            6.25927027047971        1.00502959294588        1.27307492269821
C            5.15933081361070        0.60825991029438        0.53082288135956
C            4.54984972237770        1.08862457217556       -0.68363602557797
C            4.86539963800204        2.10021535994867       -1.57623590502963
C            4.06647958094789        2.26778106481864       -2.69533242804773
C            2.97994258858997        1.43042800898497       -2.93508945614976
C            2.64896301056614        0.41319137248449       -2.05909961076823
C            3.42681097015364        0.26251580536824       -0.91957795399782
O           -0.84456889766161        0.21688457226704        0.35763481952935
C           -1.96574369712660        3.70109597633760        1.01608539169536
H           -3.00590990236742        5.47013386834808        1.56210854195849
H           -5.24807861028185        4.44925870500476        1.30904592949117
H           -5.45341635909128        2.11301221023183        0.53696075807648
H           -4.91384525209284        0.34796766148989        2.36039081404879
H           -6.00147769929303       -1.74953688553762        3.08298492665233
H           -5.89127740948303       -3.76800192793543        1.69896976830773
H           -4.67020044190514       -3.76423019588335       -0.45088499324114
H           -3.19209315941461       -3.07060598945849       -2.69343680752965
H           -1.85629100028428       -1.88082143744353       -4.39962111476531
H           -1.29386876285429        0.48826187152726       -4.12541493390095
H           -2.00927642478090        1.74156984460711       -2.12136985947391
H           -0.99888338510747       -2.19804590349394        0.09216571569877
H           -0.24786485534972       -4.54047797828886        0.10247002857393
H            2.17054939017281       -5.06994380931389        0.20506838287159
H            3.82824258384500       -3.24088066661762        0.19777813046545
H            4.06644734662430       -2.00249012204855        2.46425294452407
H            6.04286201950491       -1.28528856314528        3.76274971300364
H            7.42217810409981        0.59758494905247        3.01909111744424
H            6.86056812208744        1.84468900121554        0.95998621596867
H            5.71742731408968        2.74017480499585       -1.40480051430420
H            4.29156449230408        3.05467880335529       -3.39976440512659
H            2.38594732199352        1.57648009899883       -3.82528451996798
H            1.81093813080492       -0.24040735997907       -2.25055463618444
H           -0.97851029233852        4.11960538539119        1.13429808649278

          :  Hamiltonian                  GFN2-xTB          :
         :: gradient norm              0.000036423993 Eh/a0 ::
         :: HOMO-LUMO gap              0.652430105855 eV    ::
         :: SCC energy              -111.330524440695 Eh    ::
         :: -> dispersion             -0.100082821482 Eh    ::
         :: -> Gsolv                  -0.044619239172 Eh    ::
         :: repulsion energy           1.930413542284 Eh    ::

    * Orbital Energies and Occupations

         #    Occupation            Energy/Eh            Energy/eV
      -------------------------------------------------------------
         1        2.0000           -0.7357304             -20.0202
       ...           ...                  ...                  ...
        90        2.0000           -0.4163131             -11.3285
        91        2.0000           -0.4146217             -11.2824
        92        2.0000           -0.4138525             -11.2615
        93        2.0000           -0.4132242             -11.2444
        94        2.0000           -0.4118623             -11.2073
        95        2.0000           -0.4091246             -11.1328
        96        2.0000           -0.3891837             -10.5902
        97        2.0000           -0.3870674             -10.5326
        98        2.0000           -0.3806093             -10.3569
        99        1.9958           -0.3745288             -10.1914
       100        1.9155           -0.3715973             -10.1117
       101        1.0887           -0.3671197              -9.9898
       102        1.0000           -0.2808453              -7.6422 (HOMO)
       103        0.0000           -0.2568689              -6.9898 (LUMO)
       104        0.0000           -0.2544905              -6.9250
       105                         -0.2505787              -6.8186
       106                         -0.2328994              -6.3375
       107                         -0.2320989              -6.3157
       108                         -0.2310825              -6.2881
       109                         -0.2304585              -6.2711
       110                         -0.2013530              -5.4791
       111                         -0.1995164              -5.4291
       112                         -0.1966432              -5.3509
       113                         -0.1941286              -5.2825
       ...                                ...                  ...
       196                          0.7379084              20.0795
      -------------------------------------------------------------
                  HL-Gap            0.0239764 Eh            0.6524 eV

     #   Z          covCN         q      C6AA      α(0)
     1   6 C        2.913    -0.030    28.751     8.793
     2   6 C        2.916    -0.042    29.045     8.838
     3   6 C        2.917    -0.043    29.063     8.840
     4   6 C        2.910     0.049    26.911     8.506
     5   7 N        2.802    -0.017    21.573     6.898
     6   6 C        3.076     0.051    26.767     8.482
     7   6 C        2.909    -0.043    29.069     8.841
     8   6 C        2.923    -0.032    28.796     8.800
     9   6 C        2.920    -0.035    28.862     8.810
    10   6 C        2.912    -0.030    28.761     8.794
    11   6 C        3.065    -0.012    28.246     8.715
    12   6 C        3.065    -0.012    28.244     8.715
    13   6 C        2.912    -0.030    28.757     8.793
    14   6 C        2.920    -0.035    28.879     8.813
    15   6 C        2.923    -0.032    28.803     8.801
    16   6 C        2.909    -0.038    28.945     8.822
    17   6 C        3.078     0.059    26.594     8.455
    18   6 C        2.967    -0.027    28.661     8.781
    19   6 C        3.098     0.200    23.648     7.969
    20   7 N        2.030    -0.218    26.501     7.636
    21   7 N        2.028    -0.209    26.309     7.608
    22   6 C        3.099     0.197    23.717     7.981
    23   6 C        2.966    -0.026    28.657     8.781
    24   6 C        2.922    -0.039    28.969     8.826
    25   6 C        2.913    -0.030    28.751     8.793
    26   6 C        2.916    -0.043    29.056     8.839
    27   6 C        2.917    -0.042    29.051     8.839
    28   6 C        2.911     0.049    26.899     8.505
    29   7 N        2.803    -0.005    21.359     6.864
    30   6 C        3.077     0.052    26.749     8.479
    31   6 C        2.909    -0.041    29.013     8.832
    32   6 C        2.922    -0.031    28.775     8.797
    33   6 C        2.920    -0.032    28.797     8.800
    34   6 C        2.912    -0.028    28.707     8.786
    35   6 C        3.065    -0.007    28.128     8.697
    36   6 C        3.066    -0.007    28.139     8.698
    37   6 C        2.912    -0.028    28.705     8.786
    38   6 C        2.920    -0.033    28.818     8.803
    39   6 C        2.923    -0.030    28.759     8.794
    40   6 C        2.910    -0.036    28.892     8.814
    41   6 C        3.078     0.060    26.585     8.453
    42   8 O        1.713    -0.287    18.760     5.848
    43   6 C        2.923    -0.041    29.024     8.835
    44   1 H        0.926     0.040     2.445     2.445
    45   1 H        0.926     0.040     2.454     2.450
    46   1 H        0.926     0.040     2.451     2.448
    47   1 H        0.926     0.037     2.491     2.468
    48   1 H        0.926     0.040     2.451     2.448
    49   1 H        0.926     0.040     2.447     2.446
    50   1 H        0.926     0.042     2.428     2.437
    51   1 H        0.926     0.042     2.426     2.436
    52   1 H        0.926     0.039     2.467     2.456
    53   1 H        0.926     0.035     2.510     2.478
    54   1 H        0.926     0.026     2.641     2.541
    55   1 H        0.926     0.035     2.514     2.479
    56   1 H        0.926     0.039     2.461     2.453
    57   1 H        0.926     0.041     2.435     2.440
    58   1 H        0.926     0.043     2.408     2.426
    59   1 H        0.926     0.040     2.448     2.446
    60   1 H        0.926     0.044     2.399     2.422
    61   1 H        0.926     0.045     2.387     2.416
    62   1 H        0.926     0.047     2.362     2.403
    63   1 H        0.926     0.047     2.361     2.403
    64   1 H        0.926     0.043     2.408     2.427
    65   1 H        0.926     0.039     2.466     2.456
    66   1 H        0.926     0.027     2.635     2.539
    67   1 H        0.926     0.047     2.363     2.404

molecular dipole:
                 x           y           z       tot (Debye)
 q only:        0.386      -0.883      -0.342
   full:       -0.150      -1.136      -0.354       3.048

 projected vibrational frequencies (cm⁻¹)
eigval :       -0.00    -0.00     0.00     0.00     0.00     0.00
eigval :       14.22    20.03    22.18    26.59    34.06    47.81
eigval :       64.53    65.51    70.76    90.54    97.53   103.10
eigval :      109.31   122.58   138.23   141.37   153.92   160.31
eigval :      178.92   200.99   214.61   220.83   262.83   267.92
eigval :      269.22   271.39   284.63   310.75   330.24   348.51
eigval :      386.05   391.07   397.51   414.09   418.05   418.82
eigval :      422.20   426.37   434.56   441.92   461.84   465.71
eigval :      476.25   512.87   514.15   516.52   534.32   535.59
eigval :      546.91   552.48   567.13   580.15   581.27   594.05
eigval :      594.55   602.43   604.82   635.01   650.01   669.38
eigval :      673.24   673.45   676.10   680.95   706.91   708.15
eigval :      718.94   730.29   751.97   754.76   755.06   756.49
eigval :      765.18   765.64   774.19   774.55   848.88   855.48
eigval :      862.36   865.77   868.49   868.62   890.48   890.99
eigval :      895.64   897.17   897.96   898.93   899.23   903.88
eigval :      905.14   905.37   911.55   912.84   916.84   917.09
eigval :      917.98   920.58   921.00   921.85  1009.21  1009.84
eigval :     1011.90  1027.62  1064.55  1065.06  1066.19  1068.23
eigval :     1068.95  1074.30  1092.41  1098.69  1132.82  1136.17
eigval :     1140.08  1143.80  1161.62  1170.10  1171.55  1172.42
eigval :     1174.85  1175.62  1181.62  1185.95  1197.74  1210.58
eigval :     1224.51  1226.14  1228.70  1229.08  1238.30  1246.06
eigval :     1273.30  1280.82  1282.57  1286.20  1289.33  1321.20
eigval :     1326.68  1327.88  1337.17  1351.32  1355.80  1359.68
eigval :     1361.46  1364.41  1386.71  1391.96  1406.31  1409.67
eigval :     1410.88  1415.05  1422.69  1424.94  1457.17  1459.05
eigval :     1478.37  1479.68  1482.38  1483.20  1521.52  1548.27
eigval :     1562.66  1563.15  1566.53  1572.04  1575.98  1578.16
eigval :     1578.74  1595.14  1598.28  3074.92  3075.12  3076.44
eigval :     3078.32  3078.83  3079.87  3080.27  3080.39  3081.26
eigval :     3082.61  3083.87  3086.21  3086.76  3088.74  3090.54
eigval :     3092.85  3093.49  3094.97  3096.24  3097.20  3098.56
eigval :     3099.02  3102.29  3105.41

   temp. (K)  partition function   enthalpy   heat capacity  entropy
                                   cal/mol     cal/K/mol   cal/K/mol   J/K/mol
 298.15  VIB  0.988E+14            18957.551    123.180    116.277
         ROT  0.417E+08              888.752      2.981     37.851
         INT  0.412E+22            19846.304    126.161    154.129
         TR   0.126E+29             1481.254      4.968     44.793
         TOT                       21327.5575   131.1293   198.9219   832.2892

       T/K    H(0)-H(T)+PV         H(T)/Eh          T*S/Eh         G(T)/Eh
   ------------------------------------------------------------------------
    298.15    0.339876E-01    0.534147E+00    0.945142E-01    0.439633E+00
   ------------------------------------------------------------------------

         :::::::::::::::::::::::::::::::::::::::::::::::::::::
         ::                  THERMODYNAMIC                  ::
         :::::::::::::::::::::::::::::::::::::::::::::::::::::
         :: total free energy        -108.960477793813 Eh   ::
         ::.................................................::
         :: total energy             -109.400110902518 Eh   ::
         :: zero point energy           0.500159692733 Eh   ::
         :: G(RRHO) w/o ZPVE           -0.060526584028 Eh   ::
         :: G(RRHO) contrib.            0.439633108705 Eh   ::
         :::::::::::::::::::::::::::::::::::::::::::::::::::::

           -------------------------------------------------
          | TOTAL ENERGY             -109.400110902518 Eh   |
          | TOTAL ENTHALPY           -108.865963583568 Eh   |
          | TOTAL FREE ENERGY        -108.960477793813 Eh   |
          | GRADIENT NORM               0.000036745787 Eh/α |
          | HOMO-LUMO GAP               0.652431148324 eV   |
           -------------------------------------------------

 * finished run on 2025/08/25 at 08:51:39.984
