   * xtb version 6.7.1 (edcfbbe) compiled by 'albert@albert-system' on 2024-07-22

   ID    Z sym.   atoms
    1    7 N      1, 12, 21
    2    6 C      2-7, 9-11, 13-15, 17-20, 22-49
    3    8 O      8, 50
    4    5 B      16
    5    1 H      51-78

          program call               : xtb data2507/gas/BO3N/BO3N_gas_S0_crest.xyz --gfn 2 --ohess vtight --parallel 40 --molden --ceasefiles --namespace data2507/gas/BO3N/BO3N_gas_S0_finalOpt
          :  Hamiltonian                  GFN2-xTB          :
 * total energy  :  -126.7280126 Eh     change       -0.3329575E-08 Eh
 * total energy  :  -126.7280139 Eh     change       -0.1265128E-05 Eh
 * total energy  :  -126.7280153 Eh     change       -0.1386097E-05 Eh
 * total energy  :  -126.7280184 Eh     change       -0.3157008E-05 Eh
 * total energy  :  -126.7280215 Eh     change       -0.3029275E-05 Eh
 * total energy  :  -126.7280224 Eh     change       -0.9397030E-06 Eh
 * total energy  :  -126.7280229 Eh     change       -0.5408656E-06 Eh
 * total energy  :  -126.7280236 Eh     change       -0.6991606E-06 Eh
 * total energy  :  -126.7280244 Eh     change       -0.7473950E-06 Eh
 * total energy  :  -126.7280248 Eh     change       -0.4516095E-06 Eh
 * total energy  :  -126.7280263 Eh     change       -0.3110306E-06 Eh
 * total energy  :  -126.7280265 Eh     change       -0.2193049E-06 Eh
 * total energy  :  -126.7280267 Eh     change       -0.1958146E-06 Eh
 * total energy  :  -126.7280269 Eh     change       -0.2125334E-06 Eh
 * total energy  :  -126.7280272 Eh     change       -0.2665433E-06 Eh
 * total energy  :  -126.7280275 Eh     change       -0.3208195E-06 Eh
 * total energy  :  -126.7280278 Eh     change       -0.2687808E-06 Eh
 * total energy  :  -126.7280280 Eh     change       -0.2152974E-06 Eh
 * total energy  :  -126.7280280 Eh     change       -0.1285814E-07 Eh
   *** GEOMETRY OPTIMIZATION CONVERGED AFTER 22 ITERATIONS ***

 final structure:
================
78
 xtb: 6.7.1 (edcfbbe)
N           -6.83982904945064       -3.03042231789569       -0.26171657308132
C           -5.53962217355983       -2.71392043912090        0.06833247227355
C           -4.50749757230593       -3.64036500405730       -0.12836093515816
C           -3.20547514257830       -3.28857885111581        0.12677507389076
C           -2.83182098667661       -2.01488103339335        0.58006263096259
C           -3.88824363204465       -1.10683003508115        0.79278447481931
C           -5.21304300889033       -1.45383561229926        0.54409501682903
O           -3.73274777056498        0.16556013547997        1.25228985361196
C           -2.52099517363439        0.65021146987028        1.61334556502120
C           -2.48028572549121        1.94587976560385        2.10335702407536
C           -1.26332553598364        2.50061124063222        2.49575056747205
N           -1.20054803195299        3.81842586756788        2.89371036922085
C           -0.09777859287789        1.73867314997799        2.41701140059129
C           -0.15463974054861        0.44855512202487        1.91861161567086
C           -1.36047614101065       -0.12695557543623        1.49425035990096
B           -1.40227698018206       -1.51719460339768        0.87648136533085
C            0.00422216797116       -2.11121118608365        0.62162690518965
C            0.32401222023887       -3.23999497755953       -0.14624745452328
C            1.61727511468646       -3.60243015403696       -0.44574607244820
C            2.68965137790114       -2.85766667323590        0.05858141943498
N            3.98002095574406       -3.10874988208679       -0.38669689515586
C            5.04304970362691       -2.21622448891063       -0.35940263306944
C            6.32486768095020       -2.67048116002233       -0.13894841433003
C            7.39357318975884       -1.77433266986766       -0.00479459596210
C            7.18059694696827       -0.42445626213016       -0.01892487503248
C            5.88839473767583        0.08739159810640       -0.27014458855961
C            5.59540179796256        1.45822613999550       -0.22872070328729
C            4.31052249425607        1.93628316680298       -0.41429707369421
C            3.98777093397133        3.31443693622474       -0.18703228434547
C            2.71859367430592        3.75689834385369       -0.26694552435802
C            1.63703592646170        2.88870693892118       -0.63142630375890
C            0.33573996174060        3.34184202475444       -0.63007270537149
C           -0.74131307295481        2.51377176161912       -0.99372646452251
C           -2.06722012806654        2.94611862500680       -0.96469269322152
C           -3.11218291036726        2.11171789096200       -1.34343773619152
C           -4.46638851218173        2.53253888051756       -1.30694691737405
C           -5.46988558867494        1.69649381652699       -1.68703833011188
C           -5.18259440758842        0.38672602114274       -2.12884815294788
C           -3.89818855327707       -0.05842852126269       -2.17228077484183
C           -2.82259816879813        0.77903604337418       -1.78068123467100
C           -1.50390899525190        0.34154103525920       -1.79749620690360
C           -0.45449837439690        1.17433716943083       -1.40910293750094
C            0.87959091010177        0.72488053602170       -1.39044407163845
C            1.92304404984762        1.52998579480810       -0.99290244613030
C            3.28200177818494        1.04205997608910       -0.83547663257284
C            3.59782136372949       -0.29432238326880       -0.97627287919054
C            4.82944451152486       -0.81708095569088       -0.55737762776025
C            2.41277026199815       -1.82285539668979        0.94294242442980
C            1.10208973658118       -1.40408083357682        1.15031591514248
O            1.00935105035306       -0.24475414039376        1.86031264151632
H           -7.06596036322401       -4.01070622957427       -0.30624465605647
H           -7.55663919640774       -2.44911946808851        0.14118087490160
H           -4.74991925730003       -4.63353694997057       -0.48009068183764
H           -2.43634221382848       -4.03242869794518       -0.01167906833223
H           -5.98101015807172       -0.71580857832313        0.72131325327957
H           -3.39231435384181        2.51879971457659        2.16687361659124
H           -0.38471390498624        4.08698999025853        3.41908913739164
H           -2.06309481805705        4.23204835897633        3.20790527897659
H            0.85164949051921        2.15211626161475        2.71999808579108
H           -0.47984169157006       -3.81786550213841       -0.57485450443285
H            1.81341000737394       -4.43907609486383       -1.10205861062142
H            4.20717857890035       -4.06896660286793       -0.59942260553665
H            6.50521181367914       -3.73120032149462       -0.03035303672391
H            8.38501521936508       -2.16828303549309        0.16528466375297
H            7.99044039693977        0.26593523339858        0.16462954915908
H            6.39070802090161        2.15222375317166        0.00746872860477
H            4.79276671581826        3.98129850972468        0.08939962262732
H            2.47822701368784        4.78928594727153       -0.05302489923397
H            0.12740024810034        4.36049804431188       -0.33285956577651
H           -2.28363266314919        3.95339000272205       -0.63638035630953
H           -4.68136684640210        3.53616313304556       -0.96710820073858
H           -6.49883569866987        2.02564137526520       -1.65343341209706
H           -5.99523658381038       -0.26157685397823       -2.42234873674729
H           -3.67312171137113       -1.06518331349927       -2.49400946140881
H           -1.28660856658196       -0.67099503634554       -2.10862072062319
H            1.04909310367338       -0.29789012618922       -1.69048069149120
H            2.86972150269407       -0.97469475653416       -1.38046638790290
H            3.20611712278777       -1.26003476618987        1.40734434912505

          :  Hamiltonian                  GFN2-xTB          :
         :: gradient norm              0.000049433805 Eh/a0 ::
         :: HOMO-LUMO gap              1.792656705261 eV    ::
         :: SCC energy              -128.973269774308 Eh    ::
         :: -> dispersion             -0.135335190719 Eh    ::
         :: repulsion energy           2.245241756162 Eh    ::

    * Orbital Energies and Occupations

         #    Occupation            Energy/Eh            Energy/eV
      -------------------------------------------------------------
         1        2.0000           -0.7102192             -19.3260
       ...           ...                  ...                  ...
       105        2.0000           -0.3967274             -10.7955
       106        2.0000           -0.3959268             -10.7737
       107        2.0000           -0.3872792             -10.5384
       108        2.0000           -0.3807295             -10.3602
       109        2.0000           -0.3780685             -10.2878
       110        2.0000           -0.3771251             -10.2621
       111        2.0000           -0.3754436             -10.2163
       112        2.0000           -0.3674783              -9.9996
       113        2.0000           -0.3592401              -9.7754
       114        2.0000           -0.3548882              -9.6570
       115        2.0000           -0.3502136              -9.5298
       116        2.0000           -0.3447025              -9.3798
       117        2.0000           -0.3423232              -9.3151 (HOMO)
       118                         -0.2764443              -7.5224 (LUMO)
       119                         -0.2647639              -7.2046
       120                         -0.2449719              -6.6660
       121                         -0.2310023              -6.2859
       122                         -0.2195131              -5.9733
       123                         -0.2155628              -5.8658
       124                         -0.2082020              -5.6655
       125                         -0.2020755              -5.4988
       126                         -0.2004088              -5.4534
       127                         -0.1925914              -5.2407
       128                         -0.1874994              -5.1021
       ...                                ...                  ...
       228                          0.7529944              20.4900
      -------------------------------------------------------------
                  HL-Gap            0.0658789 Eh            1.7927 eV

     #   Z          covCN         q      C6AA      α(0)
     1   7 N        2.641    -0.275    27.104     7.732
     2   6 C        2.899     0.082    26.162     8.386
     3   6 C        2.919    -0.070    29.752     8.945
     4   6 C        2.924    -0.034    28.850     8.808
     5   6 C        2.883    -0.104    30.617     9.071
     6   6 C        2.876     0.139    24.961     8.190
     7   6 C        2.922    -0.086    30.165     9.007
     8   8 O        1.712    -0.230    17.804     5.697
     9   6 C        2.874     0.139    24.966     8.191
    10   6 C        2.919    -0.099    30.503     9.057
    11   6 C        2.902     0.084    26.135     8.382
    12   7 N        2.642    -0.272    27.029     7.721
    13   6 C        2.919    -0.099    30.483     9.054
    14   6 C        2.876     0.139    24.975     8.193
    15   6 C        2.889    -0.134    31.424     9.191
    16   5 B        2.724     0.207    18.287     7.165
    17   6 C        2.882    -0.100    30.523     9.057
    18   6 C        2.924    -0.035    28.860     8.810
    19   6 C        2.918    -0.069    29.729     8.941
    20   6 C        2.905     0.072    26.393     8.424
    21   7 N        2.697    -0.154    24.324     7.325
    22   6 C        2.901     0.064    26.563     8.451
    23   6 C        2.921    -0.063    29.558     8.916
    24   6 C        2.914    -0.031    28.783     8.797
    25   6 C        2.917    -0.048    29.193     8.860
    26   6 C        2.984     0.010    27.785     8.647
    27   6 C        2.923    -0.045    29.121     8.850
    28   6 C        2.982     0.012    27.749     8.641
    29   6 C        2.911    -0.036    28.903     8.816
    30   6 C        2.913    -0.035    28.876     8.812
    31   6 C        2.980     0.012    27.736     8.639
    32   6 C        2.923    -0.042    29.050     8.839
    33   6 C        2.980     0.010    27.796     8.648
    34   6 C        2.921    -0.042    29.053     8.839
    35   6 C        2.982     0.015    27.682     8.630
    36   6 C        2.917    -0.033    28.820     8.803
    37   6 C        2.915    -0.029    28.714     8.787
    38   6 C        2.914    -0.028    28.707     8.786
    39   6 C        2.917    -0.033    28.811     8.802
    40   6 C        2.983     0.014    27.705     8.634
    41   6 C        2.922    -0.044    29.081     8.843
    42   6 C        2.981     0.009    27.808     8.650
    43   6 C        2.922    -0.042    29.034     8.836
    44   6 C        2.975     0.008    27.827     8.653
    45   6 C        2.978     0.006    27.876     8.661
    46   6 C        2.924    -0.038    28.938     8.822
    47   6 C        2.987    -0.004    28.120     8.699
    48   6 C        2.921    -0.076    29.896     8.966
    49   6 C        2.879     0.140    24.955     8.189
    50   8 O        1.712    -0.233    17.865     5.707
    51   1 H        0.860     0.160     1.332     1.808
    52   1 H        0.860     0.160     1.334     1.810
    53   1 H        0.926     0.023     2.693     2.566
    54   1 H        0.926     0.033     2.544     2.494
    55   1 H        0.926     0.034     2.529     2.487
    56   1 H        0.926     0.037     2.483     2.464
    57   1 H        0.860     0.163     1.315     1.796
    58   1 H        0.860     0.163     1.317     1.797
    59   1 H        0.926     0.037     2.487     2.466
    60   1 H        0.926     0.034     2.526     2.486
    61   1 H        0.925     0.023     2.694     2.567
    62   1 H        0.860     0.158     1.350     1.820
    63   1 H        0.925     0.021     2.714     2.576
    64   1 H        0.926     0.027     2.623     2.533
    65   1 H        0.926     0.028     2.615     2.529
    66   1 H        0.925     0.030     2.586     2.515
    67   1 H        0.925     0.027     2.630     2.536
    68   1 H        0.925     0.027     2.626     2.534
    69   1 H        0.925     0.032     2.554     2.499
    70   1 H        0.925     0.032     2.560     2.502
    71   1 H        0.926     0.028     2.621     2.532
    72   1 H        0.926     0.026     2.649     2.545
    73   1 H        0.926     0.029     2.600     2.521
    74   1 H        0.926     0.029     2.606     2.524
    75   1 H        0.925     0.030     2.586     2.515
    76   1 H        0.926     0.030     2.591     2.517
    77   1 H        0.926     0.038     2.476     2.461
    78   1 H        0.926     0.043     2.414     2.430

molecular dipole:
                 x           y           z       tot (Debye)
 q only:       -0.788      -0.157       0.174
   full:       -0.881      -0.328       0.644       2.896

 projected vibrational frequencies (cm⁻¹)
eigval :       -0.00    -0.00    -0.00    -0.00     0.00     0.00
eigval :       13.59    25.85    27.18    44.04    47.11    60.95
eigval :       64.00    71.71    75.33    80.62    93.86   107.22
eigval :      110.93   122.85   149.79   162.50   178.91   184.29
eigval :      191.75   211.95   217.77   229.52   236.58   252.67
eigval :      257.03   269.46   276.24   281.39   287.70   296.46
eigval :      302.92   308.87   317.86   336.95   339.41   355.60
eigval :      363.13   369.96   372.91   375.36   382.21   388.87
eigval :      396.16   411.01   420.07   429.48   429.97   435.93
eigval :      446.68   458.09   469.77   489.33   492.57   499.19
eigval :      504.74   512.01   517.76   523.50   527.78   531.97
eigval :      538.78   548.70   560.23   565.49   574.05   581.97
eigval :      589.37   591.48   594.16   597.77   604.76   608.44
eigval :      614.73   630.57   640.27   658.47   677.20   683.93
eigval :      687.79   701.98   708.97   710.71   722.64   727.48
eigval :      734.33   750.28   754.30   763.21   770.81   781.82
eigval :      788.18   795.81   804.18   805.73   806.47   812.75
eigval :      818.73   830.16   837.07   844.85   853.19   853.32
eigval :      854.63   861.27   863.81   866.98   871.94   873.70
eigval :      877.25   891.15   895.75   897.79   901.81   902.46
eigval :      906.61   914.75   916.13   920.02   926.27   976.39
eigval :      988.00   993.99  1023.41  1027.55  1039.47  1069.57
eigval :     1071.13  1083.70  1088.78  1116.55  1133.18  1139.21
eigval :     1152.55  1156.71  1166.06  1170.54  1175.56  1179.18
eigval :     1180.41  1184.46  1187.79  1192.41  1195.52  1209.93
eigval :     1224.19  1228.22  1236.61  1242.54  1248.19  1255.27
eigval :     1259.04  1271.00  1277.16  1284.61  1290.49  1292.62
eigval :     1313.35  1316.19  1324.01  1328.01  1333.39  1340.01
eigval :     1341.74  1346.48  1352.08  1365.23  1370.45  1390.66
eigval :     1399.03  1406.23  1414.33  1415.11  1417.93  1424.89
eigval :     1426.82  1435.08  1449.95  1460.83  1462.94  1468.49
eigval :     1476.04  1481.73  1489.97  1508.89  1514.37  1523.41
eigval :     1531.24  1540.54  1544.39  1545.84  1556.43  1562.77
eigval :     1577.43  1581.64  1589.39  1593.82  1597.88  1613.62
eigval :     1614.35  1621.07  3058.76  3062.19  3063.51  3064.15
eigval :     3064.30  3065.21  3065.37  3067.07  3068.97  3072.22
eigval :     3074.51  3076.16  3076.93  3087.69  3088.46  3088.81
eigval :     3089.81  3095.31  3095.52  3096.61  3102.96  3113.43
eigval :     3136.94  3428.31  3458.54  3460.57  3513.43  3516.33

   temp. (K)  partition function   enthalpy   heat capacity  entropy
                                   cal/mol     cal/K/mol   cal/K/mol   J/K/mol
 298.15  VIB  0.285E+15            22107.675    149.957    131.459
         ROT  0.536E+08              888.752      2.981     38.349
         INT  0.153E+23            22996.428    152.938    169.808
         TR   0.157E+29             1481.254      4.968     45.238
         TOT                       24477.6815   157.9057   215.0460   899.7523

       T/K    H(0)-H(T)+PV         H(T)/Eh          T*S/Eh         G(T)/Eh
   ------------------------------------------------------------------------
    298.15    0.390077E-01    0.625952E+00    0.102175E+00    0.523777E+00
   ------------------------------------------------------------------------

         :::::::::::::::::::::::::::::::::::::::::::::::::::::
         ::                  THERMODYNAMIC                  ::
         :::::::::::::::::::::::::::::::::::::::::::::::::::::
         :: total free energy        -126.204251008208 Eh   ::
         ::.................................................::
         :: total energy             -126.728028018142 Eh   ::
         :: zero point energy           0.586944616113 Eh   ::
         :: G(RRHO) w/o ZPVE           -0.063167606179 Eh   ::
         :: G(RRHO) contrib.            0.523777009934 Eh   ::
         :::::::::::::::::::::::::::::::::::::::::::::::::::::

           -------------------------------------------------
          | TOTAL ENERGY             -126.728028018142 Eh   |
          | TOTAL ENTHALPY           -126.102075733555 Eh   |
          | TOTAL FREE ENERGY        -126.204251008208 Eh   |
          | GRADIENT NORM               0.000049402206 Eh/α |
          | HOMO-LUMO GAP               1.792656019471 eV   |
           -------------------------------------------------

 * finished run on 2025/09/12 at 01:07:09.920
