   * xtb version 6.7.1 (edcfbbe) compiled by 'albert@albert-system' on 2024-07-22

   ID    Z sym.   atoms
    1    7 N      1, 12, 21
    2    6 C      2-7, 9-11, 13-15, 17-20, 22-49
    3    8 O      8, 50
    4    5 B      16
    5    1 H      51-78

          program call               : xtb data2507/gas/BO3N/BO3N.xyz --gfn 2 --ohess vtight --parallel 40 --molden --ceasefiles --namespace data2507/gas/BO3N/BO3N_gas_S0_preOpt
          :  Hamiltonian                  GFN2-xTB          :
 * total energy  :  -126.5780842 Eh     change       -0.3293167E-08 Eh
 * total energy  :  -126.6368948 Eh     change       -0.5881066E-01 Eh
 * total energy  :  -126.6625579 Eh     change       -0.2566306E-01 Eh
 * total energy  :  -126.6768902 Eh     change       -0.1433234E-01 Eh
 * total energy  :  -126.6872765 Eh     change       -0.1038629E-01 Eh
 * total energy  :  -126.6947130 Eh     change       -0.7436470E-02 Eh
 * total energy  :  -126.6991051 Eh     change       -0.4392128E-02 Eh
 * total energy  :  -126.7038573 Eh     change       -0.4752182E-02 Eh
 * total energy  :  -126.7034141 Eh     change        0.4432061E-03 Eh
 * total energy  :  -126.7077633 Eh     change       -0.4349218E-02 Eh
 * total energy  :  -126.7156427 Eh     change       -0.3675289E-06 Eh
 * total energy  :  -126.7156430 Eh     change       -0.3844845E-06 Eh
 * total energy  :  -126.7156434 Eh     change       -0.3583621E-06 Eh
 * total energy  :  -126.7156438 Eh     change       -0.3662447E-06 Eh
 * total energy  :  -126.7156441 Eh     change       -0.3409885E-06 Eh
 * total energy  :  -126.7156445 Eh     change       -0.3404390E-06 Eh
 * total energy  :  -126.7156448 Eh     change       -0.3007245E-06 Eh
 * total energy  :  -126.7156451 Eh     change       -0.3061265E-06 Eh
 * total energy  :  -126.7156451 Eh     change       -0.2655071E-08 Eh
   *** GEOMETRY OPTIMIZATION CONVERGED AFTER 122 ITERATIONS ***

 final structure:
================
78
 xtb: 6.7.1 (edcfbbe)
N           -8.35956793897354        5.39738200727475       -1.70696527447286
C           -7.61892399722619        4.27687875509557       -1.40443767249666
C           -6.37676249096214        4.05549634252827       -2.01281560506966
C           -5.60869793438219        2.97864401191562       -1.64637783299967
C           -6.00312473901171        2.05299164162034       -0.66880221518858
C           -7.27114131917980        2.27643791808431       -0.09523018615203
C           -8.05569232641156        3.36990550548370       -0.45084556767360
O           -7.85294972488134        1.46477591472963        0.83290934095800
C           -7.26886845973019        0.31224620365294        1.24055627357222
C           -7.98400731238628       -0.47744064109694        2.12668674743590
C           -7.43818221737354       -1.67729533888555        2.58237302827041
N           -8.17285634567423       -2.50306314364355        3.40230196426594
C           -6.17099662592706       -2.06840751415679        2.14963635132275
C           -5.46539123720488       -1.26370432917691        1.27020207225362
C           -5.99170752761972       -0.05491083119557        0.79111232506652
B           -5.20967523560110        0.82409575713831       -0.17457843470254
C           -3.78207114524368        0.30044471775277       -0.46004803787087
C           -2.77541028277968        0.94493689205434       -1.19256658214563
C           -1.54328090299626        0.38483598729233       -1.42254640676287
C           -1.23793527388379       -0.88891487799280       -0.92345715248466
N            0.01551469424172       -1.41465984002362       -1.16236338315989
C            0.40001191067655       -2.74487049515186       -1.17663924723258
C           -0.49816173758052       -3.75308027586561       -1.45457201594831
C           -0.09146593896645       -5.09053605333403       -1.50739403051891
C            1.21584263140378       -5.43182553931557       -1.30818515714714
C            2.17539499750520       -4.43364087885131       -1.03597659941181
C            3.52623425145023       -4.74649361362542       -0.84248508741948
C            4.47268267755142       -3.78161706422265       -0.55788652322187
C            5.84871855324552       -4.14143607655306       -0.38142996302036
C            6.78314649419820       -3.21642447402912       -0.09876991331499
C            6.44505948959704       -1.83166912493935        0.04916107656872
C            7.42225878025738       -0.90599991889716        0.34244564411401
C            7.13286435338781        0.46074506409138        0.50138781105250
C            8.11430447434140        1.40807047220162        0.79441018494811
C            7.80208718645195        2.75353596574065        0.94855640526666
C            8.78959615615483        3.72879829541081        1.24489345523851
C            8.45672437472451        5.03961510862123        1.39080879386776
C            7.11487420991391        5.45712826416456        1.24984507858839
C            6.13798816549505        4.55399587658904        0.96611129332877
C            6.44112518470462        3.17699725500104        0.80523908601665
C            5.46220573762564        2.23393009893544        0.51385781559847
C            5.77231034033820        0.88283335668002        0.35596968768935
C            4.78727841417868       -0.07917463062933        0.05514821380444
C            5.07917252667719       -1.41525660626966       -0.10699100622448
C            4.07533436301138       -2.41726707232776       -0.43139656931916
C            2.74203191914741       -2.10598231841829       -0.63061277789332
C            1.77526940485711       -3.06972392019461       -0.94940579877497
C           -2.18523626506208       -1.53199366367214       -0.14093887429515
C           -3.42965345714484       -0.94926145560442        0.08721018774798
O           -4.23966548335223       -1.69809465794520        0.88672740794588
H           -8.15537990876024        5.85127229758695       -2.58197489671644
H           -9.33392362634409        5.37597264736998       -1.45478791725582
H           -6.03229450173288        4.74237370530213       -2.77319116704206
H           -4.66616902649440        2.82950419586321       -2.14845577143066
H           -9.01619589646825        3.49457382311383        0.02690122620915
H           -8.96293858644370       -0.16179067520023        2.45257355902843
H           -7.66163450594899       -3.20280670067674        3.91401861998311
H           -8.93837273108364       -2.08076095410094        3.90072701110721
H           -5.73500148085526       -2.99332842761156        2.49393055234451
H           -2.97119469764962        1.92969852686059       -1.58535978749010
H           -0.79899468769049        0.92071016070792       -1.99615967486630
H            0.70156667673316       -0.75151167564097       -1.49025446324171
H           -1.52678542845240       -3.50663488694449       -1.66589717700096
H           -0.82748400874379       -5.84960851460604       -1.72830703480589
H            1.53610542032833       -6.46173035501127       -1.36030908033990
H            3.83420904744456       -5.78028401578148       -0.92047388918805
H            6.11189852391580       -5.18445598685076       -0.48683374264809
H            7.81999601890741       -3.49431373167874        0.02840738780351
H            8.44636484446960       -1.23494559325553        0.45606236270454
H            9.14099403594693        1.08601687836634        0.90327634155408
H            9.81482325108454        3.40340304612535        1.35184201675451
H            9.21453310746179        5.77583158819990        1.61620446701050
H            6.87551045553061        6.50366111433033        1.37061744079518
H            5.10944484572854        4.86824647499327        0.85748129098442
H            4.43510749458167        2.55605944087403        0.40662265191204
H            3.77482296578471        0.28287771660219       -0.04136131489320
H            2.42450145595176       -1.08147582559460       -0.51770704151682
H           -1.97011442873835       -2.47853132931851        0.32857670025700

          :  Hamiltonian                  GFN2-xTB          :
         :: gradient norm              0.000030187200 Eh/a0 ::
         :: HOMO-LUMO gap              1.584331685195 eV    ::
         :: SCC energy              -128.961745050674 Eh    ::
         :: -> dispersion             -0.105995822913 Eh    ::
         :: repulsion energy           2.246099989879 Eh    ::

    * Orbital Energies and Occupations

         #    Occupation            Energy/Eh            Energy/eV
      -------------------------------------------------------------
         1        2.0000           -0.7127461             -19.3948
       ...           ...                  ...                  ...
       105        2.0000           -0.4039695             -10.9926
       106        2.0000           -0.3990728             -10.8593
       107        2.0000           -0.3966241             -10.7927
       108        2.0000           -0.3889251             -10.5832
       109        2.0000           -0.3790791             -10.3153
       110        2.0000           -0.3786588             -10.3038
       111        2.0000           -0.3767796             -10.2527
       112        2.0000           -0.3752794             -10.2119
       113        2.0000           -0.3651443              -9.9361
       114        2.0000           -0.3571391              -9.7182
       115        2.0000           -0.3539067              -9.6303
       116        2.0000           -0.3509851              -9.5508
       117        2.0000           -0.3436539              -9.3513 (HOMO)
       118                         -0.2854308              -7.7670 (LUMO)
       119                         -0.2684380              -7.3046
       120                         -0.2480918              -6.7509
       121                         -0.2384337              -6.4881
       122                         -0.2257295              -6.1424
       123                         -0.2170380              -5.9059
       124                         -0.2093695              -5.6972
       125                         -0.2077721              -5.6538
       126                         -0.2044394              -5.5631
       127                         -0.1937807              -5.2730
       128                         -0.1916108              -5.2140
       ...                                ...                  ...
       228                          0.7455115              20.2864
      -------------------------------------------------------------
                  HL-Gap            0.0582231 Eh            1.5843 eV

     #   Z          covCN         q      C6AA      α(0)
     1   7 N        2.641    -0.273    27.072     7.728
     2   6 C        2.899     0.082    26.162     8.386
     3   6 C        2.919    -0.070    29.746     8.944
     4   6 C        2.924    -0.034    28.852     8.809
     5   6 C        2.882    -0.104    30.615     9.071
     6   6 C        2.875     0.138    24.996     8.196
     7   6 C        2.922    -0.088    30.217     9.014
     8   8 O        1.712    -0.230    17.812     5.698
     9   6 C        2.873     0.138    24.986     8.194
    10   6 C        2.918    -0.101    30.539     9.062
    11   6 C        2.901     0.084    26.137     8.383
    12   7 N        2.642    -0.270    26.997     7.717
    13   6 C        2.918    -0.101    30.533     9.061
    14   6 C        2.873     0.138    24.993     8.195
    15   6 C        2.888    -0.133    31.399     9.187
    16   5 B        2.724     0.202    18.350     7.178
    17   6 C        2.882    -0.101    30.532     9.059
    18   6 C        2.924    -0.034    28.837     8.806
    19   6 C        2.921    -0.070    29.734     8.942
    20   6 C        2.903     0.071    26.418     8.428
    21   7 N        2.699    -0.149    24.216     7.309
    22   6 C        2.900     0.064    26.568     8.451
    23   6 C        2.919    -0.057    29.419     8.894
    24   6 C        2.914    -0.030    28.746     8.792
    25   6 C        2.918    -0.049    29.207     8.862
    26   6 C        2.984     0.012    27.752     8.641
    27   6 C        2.926    -0.044    29.081     8.844
    28   6 C        2.982     0.011    27.771     8.644
    29   6 C        2.913    -0.035    28.874     8.811
    30   6 C        2.913    -0.036    28.896     8.815
    31   6 C        2.981     0.012    27.748     8.641
    32   6 C        2.924    -0.043    29.077     8.843
    33   6 C        2.980     0.010    27.788     8.647
    34   6 C        2.921    -0.043    29.071     8.842
    35   6 C        2.982     0.012    27.737     8.639
    36   6 C        2.917    -0.035    28.873     8.811
    37   6 C        2.914    -0.030    28.743     8.791
    38   6 C        2.914    -0.030    28.744     8.791
    39   6 C        2.917    -0.035    28.874     8.812
    40   6 C        2.982     0.012    27.740     8.640
    41   6 C        2.922    -0.043    29.077     8.843
    42   6 C        2.980     0.009    27.800     8.649
    43   6 C        2.921    -0.043    29.080     8.843
    44   6 C        2.972     0.006    27.875     8.660
    45   6 C        2.974     0.003    27.951     8.672
    46   6 C        2.921    -0.045    29.107     8.847
    47   6 C        2.983    -0.010    28.252     8.719
    48   6 C        2.920    -0.080    30.004     8.983
    49   6 C        2.876     0.138    24.994     8.196
    50   8 O        1.712    -0.229    17.802     5.697
    51   1 H        0.860     0.161     1.330     1.807
    52   1 H        0.860     0.161     1.331     1.807
    53   1 H        0.926     0.022     2.696     2.568
    54   1 H        0.926     0.033     2.537     2.491
    55   1 H        0.926     0.035     2.515     2.480
    56   1 H        0.926     0.038     2.475     2.460
    57   1 H        0.860     0.164     1.313     1.795
    58   1 H        0.860     0.163     1.314     1.796
    59   1 H        0.926     0.039     2.467     2.456
    60   1 H        0.926     0.036     2.505     2.475
    61   1 H        0.925     0.020     2.734     2.586
    62   1 H        0.860     0.165     1.302     1.788
    63   1 H        0.926     0.038     2.475     2.460
    64   1 H        0.926     0.030     2.585     2.514
    65   1 H        0.926     0.028     2.609     2.526
    66   1 H        0.925     0.032     2.562     2.503
    67   1 H        0.926     0.029     2.600     2.522
    68   1 H        0.926     0.029     2.608     2.525
    69   1 H        0.925     0.030     2.580     2.512
    70   1 H        0.925     0.031     2.576     2.510
    71   1 H        0.926     0.030     2.592     2.518
    72   1 H        0.926     0.028     2.608     2.526
    73   1 H        0.926     0.028     2.608     2.525
    74   1 H        0.926     0.030     2.593     2.518
    75   1 H        0.925     0.029     2.597     2.520
    76   1 H        0.926     0.029     2.606     2.524
    77   1 H        0.926     0.028     2.610     2.527
    78   1 H        0.926     0.047     2.354     2.399

molecular dipole:
                 x           y           z       tot (Debye)
 q only:       -0.608       0.417      -0.050
   full:       -0.641       0.489      -0.021       2.049

 projected vibrational frequencies (cm⁻¹)
eigval :       -0.00    -0.00     0.00     0.00     0.00     0.00
eigval :        7.35     9.61    13.40    30.27    33.05    36.69
eigval :       46.47    62.00    65.94    73.54    78.70    96.92
eigval :      112.39   113.31   144.18   148.09   171.58   175.88
eigval :      189.56   191.64   209.48   216.78   226.87   250.54
eigval :      255.75   264.01   270.37   274.38   286.39   289.14
eigval :      294.85   301.32   316.25   323.71   334.07   359.88
eigval :      367.12   369.44   374.62   379.76   382.34   386.96
eigval :      396.26   414.93   424.22   426.07   427.97   434.84
eigval :      443.61   465.93   471.46   488.11   489.11   493.93
eigval :      505.98   506.76   510.44   513.36   516.42   526.97
eigval :      532.50   552.84   561.10   566.23   575.88   585.69
eigval :      589.91   592.31   594.76   597.04   602.06   604.02
eigval :      613.91   629.20   644.94   658.96   677.70   684.41
eigval :      687.71   702.05   709.88   711.13   722.46   733.74
eigval :      736.82   749.32   759.03   763.43   776.80   785.84
eigval :      787.78   803.66   804.76   806.62   807.03   812.04
eigval :      820.14   826.97   837.59   840.41   841.86   851.14
eigval :      854.63   860.08   862.50   865.62   869.50   873.26
eigval :      876.96   888.90   895.87   896.45   898.56   900.37
eigval :      905.14   915.91   920.37   925.69   926.04   975.02
eigval :      984.52   991.81  1020.20  1026.50  1036.82  1060.56
eigval :     1069.05  1085.37  1087.05  1123.57  1135.15  1140.49
eigval :     1152.79  1156.48  1166.10  1171.31  1177.98  1180.26
eigval :     1183.56  1184.74  1188.57  1194.67  1195.82  1210.65
eigval :     1224.40  1231.38  1234.82  1246.09  1255.51  1257.97
eigval :     1261.36  1270.98  1279.14  1287.51  1288.60  1296.51
eigval :     1307.42  1314.82  1323.43  1326.80  1335.60  1340.79
eigval :     1346.21  1351.72  1359.76  1363.58  1378.19  1387.30
eigval :     1404.08  1406.16  1412.12  1414.96  1420.36  1424.54
eigval :     1426.67  1436.06  1449.84  1459.67  1463.56  1469.82
eigval :     1475.81  1487.82  1495.12  1509.51  1514.90  1522.13
eigval :     1534.49  1539.87  1545.28  1546.39  1554.74  1564.18
eigval :     1577.15  1588.41  1592.82  1595.61  1598.39  1614.63
eigval :     1619.30  1621.12  3057.55  3061.32  3062.03  3064.06
eigval :     3066.26  3066.42  3067.61  3068.31  3070.59  3076.27
eigval :     3079.29  3079.63  3081.65  3085.97  3088.44  3089.23
eigval :     3095.60  3096.83  3097.80  3102.40  3104.73  3109.81
eigval :     3110.91  3432.44  3462.66  3466.32  3518.07  3522.44

   temp. (K)  partition function   enthalpy   heat capacity  entropy
                                   cal/mol     cal/K/mol   cal/K/mol   J/K/mol
 298.15  VIB  0.281E+17            22469.351    148.505    136.101
         ROT  0.153E+09              888.752      2.981     40.436
         INT  0.430E+25            23358.103    151.486    176.538
         TR   0.157E+29             1481.254      4.968     45.238
         TOT                       24839.3572   156.4544   221.7753   927.9079

       T/K    H(0)-H(T)+PV         H(T)/Eh          T*S/Eh         G(T)/Eh
   ------------------------------------------------------------------------
    298.15    0.395840E-01    0.626001E+00    0.105373E+00    0.520629E+00
   ------------------------------------------------------------------------

         :::::::::::::::::::::::::::::::::::::::::::::::::::::
         ::                  THERMODYNAMIC                  ::
         :::::::::::::::::::::::::::::::::::::::::::::::::::::
         :: total free energy        -126.195016171012 Eh   ::
         ::.................................................::
         :: total energy             -126.715645060795 Eh   ::
         :: zero point energy           0.586417460610 Eh   ::
         :: G(RRHO) w/o ZPVE           -0.065788570827 Eh   ::
         :: G(RRHO) contrib.            0.520628889783 Eh   ::
         :::::::::::::::::::::::::::::::::::::::::::::::::::::

           -------------------------------------------------
          | TOTAL ENERGY             -126.715645060795 Eh   |
          | TOTAL ENTHALPY           -126.089643564850 Eh   |
          | TOTAL FREE ENERGY        -126.195016171012 Eh   |
          | GRADIENT NORM               0.000030190883 Eh/α |
          | HOMO-LUMO GAP               1.584331115851 eV   |
           -------------------------------------------------

 * finished run on 2025/09/12 at 01:01:45.904
