   * xtb version 6.7.1 (edcfbbe) compiled by 'albert@albert-system' on 2024-07-22

   ID    Z sym.   atoms
    1    7 N      1, 12, 21
    2    6 C      2-7, 9-11, 13-15, 17-20, 22-49
    3    8 O      8, 50
    4    5 B      16
    5    1 H      51-78

          program call               : xtb data2507/gas/BO3N/BO3N_gas_T1_crest.xyz --gfn 2 --spinpol --tblite --uhf 2 --ohess vtight --parallel 40 --molden --ceasefiles --namespace data2507/gas/BO3N/BO3N_gas_T1_finalOpt
 * total energy  :  -126.6717578 Eh     change       -0.1408738E-07 Eh
 * total energy  :  -126.6717969 Eh     change       -0.3913825E-04 Eh
 * total energy  :  -126.6718088 Eh     change       -0.1189755E-04 Eh
 * total energy  :  -126.6718105 Eh     change       -0.1722183E-05 Eh
 * total energy  :  -126.6718122 Eh     change       -0.1650304E-05 Eh
 * total energy  :  -126.6718131 Eh     change       -0.9092353E-06 Eh
 * total energy  :  -126.6718140 Eh     change       -0.9392998E-06 Eh
 * total energy  :  -126.6718148 Eh     change       -0.7381285E-06 Eh
 * total energy  :  -126.6718151 Eh     change       -0.3325493E-06 Eh
 * total energy  :  -126.6718153 Eh     change       -0.2192976E-06 Eh
 * total energy  :  -126.6718156 Eh     change       -0.3126751E-06 Eh
 * total energy  :  -126.6718156 Eh     change        0.1125795E-07 Eh
 * total energy  :  -126.6718158 Eh     change       -0.1310209E-06 Eh
 * total energy  :  -126.6718158 Eh     change       -0.5114204E-07 Eh
   *** GEOMETRY OPTIMIZATION CONVERGED AFTER 14 ITERATIONS ***

 final structure:
================
78
 xtb: 6.7.1 (edcfbbe)
N           -6.87701997182747       -3.06235606691047       -0.26929168136409
C           -5.57847112656372       -2.73638567743118        0.05667259415240
C           -4.53949382374476       -3.65422540097453       -0.14442518907664
C           -3.23925507614664       -3.29257921676484        0.10695006940961
C           -2.87337422942815       -2.01664024422568        0.55998228041281
C           -3.93656449998134       -1.11638379130563        0.77551966275385
C           -5.25980030914919       -1.47382426096745        0.53160797986998
O           -3.79040301554138        0.15687600395580        1.23383848685931
C           -2.58004963783212        0.65566951511793        1.57916583959156
C           -2.54396147011881        1.96408218800462        2.03510020836447
C           -1.32865039367607        2.53301441254368        2.41621002484953
N           -1.29144026101415        3.81606211163281        2.91185308555433
C           -0.15948159558043        1.77647578784948        2.34884849342711
C           -0.21095884787446        0.47680593225770        1.87486023055473
C           -1.41465555839482       -0.11400812358521        1.46306684500399
B           -1.44650677971498       -1.50837000930716        0.85322468358163
C           -0.03562026701075       -2.09835313973713        0.60834289549119
C            0.29393376068789       -3.23929264374151       -0.13716209372637
C            1.59070964542918       -3.60379965037587       -0.41894333843687
C            2.65854465266655       -2.84949108078976        0.08205795511445
N            3.95285174030699       -3.11710138202949       -0.34040948285904
C            5.03094596613372       -2.24331114698625       -0.31201852940096
C            6.30056914215047       -2.71855869779824       -0.08108360933751
C            7.38790119956829       -1.83957024118388        0.05117247174455
C            7.20390183335681       -0.48795692148141        0.02202822976205
C            5.92254243908927        0.05246342774755       -0.24061124646532
C            5.66463485105282        1.42359958705228       -0.22655943187868
C            4.38599405915340        1.93339161203026       -0.43041127138696
C            4.08485467083135        3.30361344428052       -0.22678816839033
C            2.80373996074590        3.75969168075208       -0.32344846025686
C            1.73599563293795        2.89979445982814       -0.67464629488899
C            0.40000755549973        3.36335139413945       -0.67473793592365
C           -0.67289687223150        2.53709941329765       -0.99827896118312
C           -2.00712821799256        2.96671389905486       -0.95073414980161
C           -3.08253823414312        2.11966857271865       -1.31038663226118
C           -4.41177912576716        2.54337141962258       -1.26193416847621
C           -5.44693193564405        1.69202428091197       -1.63000733820819
C           -5.17198508277500        0.40548581431036       -2.05480397651924
C           -3.85760544484238       -0.04479908946181       -2.10529046479783
C           -2.80109267520944        0.78842512914583       -1.73627429355397
C           -1.45584489137523        0.34869570918883       -1.76041038509599
C           -0.39532782596633        1.18631731249973       -1.39711157637134
C            0.92586796162723        0.73632175803569       -1.39788563022182
C            2.00387367654070        1.55164039205355       -1.00752362671521
C            3.33892330401771        1.04772993716658       -0.84890707765788
C            3.63487386239013       -0.30346864925251       -0.96902520624595
C            4.84353312686304       -0.83869988010863       -0.52635055671212
C            2.37134633854761       -1.79693471186697        0.94159573923636
C            1.05768979427488       -1.37784916218132        1.12971622648378
O            0.95789736100571       -0.20487907560220        1.81461788437839
H           -7.09621941722952       -4.04414711221778       -0.31471927019560
H           -7.59704736348812       -2.48660385654684        0.13584155508855
H           -4.77504210768365       -4.64893378246370       -0.49635409946042
H           -2.46538310137507       -4.03062870441636       -0.03539929862701
H           -6.03263592926766       -0.74214501859048        0.71345363485616
H           -3.45919195210637        2.53237817287919        2.09158436763753
H           -0.39342500310534        4.27063233274979        2.90827986702932
H           -2.07357426873167        4.40804418710997        2.68654643230769
H            0.78864733351131        2.20004998253822        2.64120415696455
H           -0.50426081302763       -3.82853652696577       -0.56063798131170
H            1.79359597626519       -4.45267261332536       -1.05726948162790
H            4.16961733322204       -4.08279627972381       -0.53998741453213
H            6.46156904989302       -3.78086708076975        0.04107244367939
H            8.36944565445414       -2.25296686567259        0.23203558010051
H            8.02704625588327        0.18751603300339        0.20176359129443
H            6.47343746080256        2.10575335463019       -0.00252759342316
H            4.88757566529446        3.97200651189744        0.05085802888870
H            2.57881031397026        4.79794784748382       -0.12042889833215
H            0.21026318430655        4.39135639335746       -0.39681178406128
H           -2.22341278942298        3.98041250679813       -0.64326562901087
H           -4.63206796151228        3.54903816286411       -0.93211638037807
H           -6.46834194074599        2.04119029132827       -1.58267532233895
H           -5.97447847699598       -0.25847593741586       -2.33963645788125
H           -3.64535666170036       -1.05527351958760       -2.42300471608583
H           -1.24662233890144       -0.66634785251126       -2.06603579138521
H            1.09515955829140       -0.28605076852255       -1.69704198718857
H            2.89619969096577       -0.97469390308709       -1.36900568720712
H            3.15830305640228       -1.22353417055258        1.40360430421851

 projected vibrational frequencies (cm⁻¹)
eigval :       -0.00    -0.00     0.00     0.00     0.00     0.00
eigval :       15.60    26.51    28.62    44.26    46.89    61.32
eigval :       63.88    72.18    74.94    80.19    95.65   107.21
eigval :      110.40   122.73   146.42   159.05   179.00   182.53
eigval :      191.63   210.99   215.98   227.57   239.31   251.66
eigval :      256.29   269.42   273.99   276.45   285.84   293.50
eigval :      300.10   305.33   310.96   333.06   336.08   354.27
eigval :      360.32   370.06   373.64   380.41   384.60   389.86
eigval :      392.93   395.27   409.12   419.39   425.14   428.92
eigval :      434.81   455.39   469.06   486.14   491.23   493.56
eigval :      499.05   504.02   505.69   506.96   524.63   529.18
eigval :      533.11   546.37   555.81   560.33   572.32   574.06
eigval :      581.54   592.13   596.15   598.47   604.20   605.31
eigval :      610.49   628.82   639.07   657.89   670.13   677.13
eigval :      683.96   695.56   701.85   705.71   709.29   721.11
eigval :      725.65   741.83   746.94   753.94   761.96   770.42
eigval :      777.72   782.32   785.55   795.13   796.80   804.92
eigval :      805.50   806.03   812.08   814.74   821.34   836.40
eigval :      843.30   848.35   850.92   853.24   864.00   866.38
eigval :      871.96   888.34   889.26   895.13   897.37   899.92
eigval :      900.80   902.08   906.26   909.29   913.55   977.11
eigval :      988.54   994.24  1021.16  1027.86  1038.28  1070.73
eigval :     1083.28  1087.43  1089.43  1114.01  1117.08  1131.50
eigval :     1133.18  1142.17  1156.42  1169.96  1171.39  1179.17
eigval :     1180.05  1182.39  1189.27  1192.12  1194.67  1199.67
eigval :     1221.19  1224.49  1228.93  1235.95  1243.77  1247.37
eigval :     1255.04  1257.68  1257.93  1275.77  1282.66  1287.47
eigval :     1289.45  1304.79  1313.16  1314.68  1321.78  1333.77
eigval :     1337.27  1344.76  1346.48  1351.49  1366.09  1372.75
eigval :     1386.74  1390.94  1396.36  1400.88  1407.37  1415.00
eigval :     1417.93  1423.93  1427.66  1436.93  1452.90  1460.53
eigval :     1463.65  1474.06  1475.74  1481.06  1485.56  1500.80
eigval :     1507.00  1513.40  1522.31  1528.17  1531.58  1540.00
eigval :     1542.59  1550.99  1552.97  1567.36  1579.72  1593.57
eigval :     1595.70  1613.69  3056.88  3060.83  3063.59  3063.61
eigval :     3064.38  3065.25  3066.07  3067.49  3072.75  3075.40
eigval :     3076.07  3076.73  3079.63  3089.05  3089.19  3091.50
eigval :     3095.36  3096.11  3097.17  3098.24  3103.99  3114.93
eigval :     3137.56  3423.74  3458.27  3463.88  3513.04  3520.79

   temp. (K)  partition function   enthalpy   heat capacity  entropy
                                   cal/mol     cal/K/mol   cal/K/mol   J/K/mol
 298.15  VIB  0.288E+15            22314.661    151.478    132.446
         ROT  0.538E+08              888.752      2.981     38.357
         INT  0.155E+23            23203.413    154.459    170.803
         TR   0.157E+29             1481.254      4.968     45.238
         TOT                       24684.6674   159.4268   216.0408   903.9145

       T/K    H(0)-H(T)+PV         H(T)/Eh          T*S/Eh         G(T)/Eh
   ------------------------------------------------------------------------
    298.15    0.393375E-01    0.622785E+00    0.102648E+00    0.520137E+00
   ------------------------------------------------------------------------

         :::::::::::::::::::::::::::::::::::::::::::::::::::::
         ::                  THERMODYNAMIC                  ::
         :::::::::::::::::::::::::::::::::::::::::::::::::::::
         :: total free energy        -126.151678610142 Eh   ::
         ::.................................................::
         :: total energy             -126.671815821245 Eh   ::
         :: zero point energy           0.583447622931 Eh   ::
         :: G(RRHO) w/o ZPVE           -0.063310411828 Eh   ::
         :: G(RRHO) contrib.            0.520137211102 Eh   ::
         :::::::::::::::::::::::::::::::::::::::::::::::::::::

           -------------------------------------------------
          | TOTAL ENERGY             -126.671815821245 Eh   |
          | TOTAL ENTHALPY           -126.049030676894 Eh   |
          | TOTAL FREE ENERGY        -126.151678610142 Eh   |
          | GRADIENT NORM               0.000066746015 Eh/α |
           -------------------------------------------------

 * finished run on 2025/09/12 at 01:13:34.965
