   * xtb version 6.7.1 (edcfbbe) compiled by 'albert@albert-system' on 2024-07-22

   ID    Z sym.   atoms
    1    7 N      1, 12, 21
    2    6 C      2-7, 9-11, 13-15, 17-20, 22-49
    3    8 O      8, 50
    4    5 B      16
    5    1 H      51-78

          program call               : xtb data2507/gas/BO3N/BO3N_gas_S0_finalOpt.xtbopt.xyz --gfn 2 --spinpol --tblite --uhf 2 --ohess vtight --parallel 40 --molden --ceasefiles --namespace data2507/gas/BO3N/BO3N_gas_T1_preOpt
 * total energy  :  -126.6658156 Eh     change        0.1854517E-08 Eh
 * total energy  :  -126.6704427 Eh     change       -0.4627154E-02 Eh
 * total energy  :  -126.6716263 Eh     change       -0.1183569E-02 Eh
 * total energy  :  -126.6716910 Eh     change       -0.6474036E-04 Eh
 * total energy  :  -126.6717267 Eh     change       -0.3567424E-04 Eh
 * total energy  :  -126.6717406 Eh     change       -0.1394665E-04 Eh
 * total energy  :  -126.6717548 Eh     change       -0.1418969E-04 Eh
 * total energy  :  -126.6717703 Eh     change       -0.1543226E-04 Eh
 * total energy  :  -126.6717813 Eh     change       -0.1102895E-04 Eh
 * total energy  :  -126.6717908 Eh     change       -0.9498334E-05 Eh
 * total energy  :  -126.6718167 Eh     change       -0.1942327E-05 Eh
 * total energy  :  -126.6718185 Eh     change       -0.1830510E-05 Eh
 * total energy  :  -126.6718199 Eh     change       -0.1348516E-05 Eh
 * total energy  :  -126.6718204 Eh     change       -0.5001578E-06 Eh
 * total energy  :  -126.6718207 Eh     change       -0.2838987E-06 Eh
 * total energy  :  -126.6718208 Eh     change       -0.1654252E-06 Eh
 * total energy  :  -126.6718211 Eh     change       -0.2133578E-06 Eh
 * total energy  :  -126.6718212 Eh     change       -0.1428105E-06 Eh
 * total energy  :  -126.6718212 Eh     change       -0.5390721E-07 Eh
   *** GEOMETRY OPTIMIZATION CONVERGED AFTER 22 ITERATIONS ***

 final structure:
================
78
 xtb: 6.7.1 (edcfbbe)
N           -6.86301132711706       -3.04190083858567       -0.24856381447411
C           -5.56214207918951       -2.71737557688043        0.06955895535469
C           -4.52272817368468       -3.62878468722290       -0.15593468007333
C           -3.22104353300576       -3.26689269560473        0.08751228822906
C           -2.85394660679206       -1.99698010525705        0.55617041449067
C           -3.91751338939803       -1.10380775469873        0.79609833249211
C           -5.24212466401792       -1.46139085254151        0.56079558994398
O           -3.77073574276777        0.16292020901668        1.27294258836960
C           -2.55788242546368        0.66226781346765        1.60827933254160
C           -2.52313877593367        1.96037318658003        2.09360497537594
C           -1.30620985034743        2.52876757643638        2.46929747897440
N           -1.25248002901714        3.84651324001245        2.86515414198029
C           -0.13468794763470        1.77883340836026        2.37469894593856
C           -0.18530606301258        0.48837643289591        1.87451138010220
C           -1.39096105394329       -0.10064114436697        1.46696798168188
B           -1.42528205217178       -1.48811742321963        0.84075468401993
C           -0.01581233941209       -2.07548479138361        0.58386383620771
C            0.30992688746145       -3.21306052885976       -0.16858193868330
C            1.60498745978652       -3.57736550212302       -0.45784066206784
C            2.67578487967429       -2.82627209482455        0.04157456106011
N            3.96780429150707       -3.09137045040663       -0.38876784333575
C            5.04323501509777       -2.21359991817651       -0.36238927898615
C            6.31630302962204       -2.68147382082464       -0.13729675272791
C            7.39743309284984       -1.79469112900266       -0.00242990687638
C            7.20272481698071       -0.44446137221094       -0.01923749407273
C            5.91628753568779        0.08826814131526       -0.27381379682079
C            5.64356801861643        1.45603179589174       -0.23921056671253
C            4.35785454909573        1.95390272588430       -0.43002761768942
C            4.03865711877668        3.31436711850294       -0.19278653723269
C            2.74999967818999        3.75359425194880       -0.26981726227949
C            1.69342744987450        2.88823916715795       -0.63980742112424
C            0.35069638579796        3.33235105477419       -0.61903996867959
C           -0.71020573942943        2.50077209447109       -0.96603787690889
C           -2.04967705218200        2.91112724387410       -0.89937444373538
C           -3.11453264226360        2.06002019419114       -1.27967216665661
C           -4.44945039015759        2.46319325735307       -1.21114905051508
C           -5.47487076553764        1.60819941003309       -1.59733264586570
C           -5.18497328107853        0.33784186560945       -2.05932856862368
C           -3.86459809316764       -0.09204217863283       -2.13036676413970
C           -2.81743019002306        0.74556876855662       -1.74557857141181
C           -1.46595963925551        0.32543249076246       -1.78986964474587
C           -0.41541603325414        1.16708384256679       -1.40777140452058
C            0.91219610336863        0.73541713769072       -1.42455269965205
C            1.97938185786238        1.55425253348516       -1.01201868050679
C            3.32093685208467        1.06402087507236       -0.86505974078266
C            3.63182028006106       -0.28150757180106       -1.00622905901681
C            4.84554069921964       -0.80954928758601       -0.56857056745025
C            2.39280923065593       -1.77785145421060        0.90800647326851
C            1.08039730001975       -1.35868979059229        1.10410933112863
O            0.98440631551689       -0.19023758113033        1.79820890099265
H           -7.08065622447984       -4.02336909903868       -0.30633326844164
H           -7.58049880729705       -2.47311972433768        0.17057966509272
H           -4.75885582808409       -4.61860781840819       -0.52105746798028
H           -2.44676860029394       -4.00030180221243       -0.07483246527094
H           -6.01508805497503       -0.73454834161892        0.76064227678046
H           -3.44059249439561        2.52257937936136        2.17194009207497
H           -0.42967146114571        4.12875896972953        3.37182869695603
H           -2.11416620978944        4.25466301154159        3.18816157964410
H            0.81505328245646        2.20098099807969        2.66411429776249
H           -0.49040433488263       -3.79997298203097       -0.59116046512120
H            1.80421279472665       -4.42351239135691       -1.10097762630487
H            4.18451901413315       -4.05514919440166       -0.59703247877396
H            6.48540504394922       -3.74320529346077       -0.02110626309841
H            8.38273544188748       -2.20181278501769        0.17241258998090
H            8.02083798621708        0.23582924970430        0.16550374316958
H            6.44493222546058        2.14383637989848       -0.00575970874171
H            4.83330445568778        3.98704027187475        0.09776468390375
H            2.50959359780561        4.78160611744131       -0.03609067642430
H            0.14477332355460        4.34359325086947       -0.29797311092949
H           -2.27621096076519        3.90859789162602       -0.55149194878900
H           -4.68049667261333        3.45551536553140       -0.85024817827407
H           -6.50094235766728        1.94117080842887       -1.53421464732328
H           -5.98012899807687       -0.32947072606912       -2.35680060125533
H           -3.64064591915733       -1.09084862459418       -2.47591720282041
H           -1.24489104119373       -0.67787454112548       -2.12482504431045
H            1.09567180263924       -0.27514677006756       -1.75438780605799
H            2.90042715968383       -0.95544482074373       -1.41516959433207
H            3.18223849201584       -1.20807008205952        1.37028460426667

 projected vibrational frequencies (cm⁻¹)
eigval :       -0.00    -0.00     0.00     0.00     0.00     0.00
eigval :       15.79    26.57    29.56    44.60    47.64    62.27
eigval :       64.50    72.75    75.11    79.94    94.45   106.97
eigval :      110.36   122.65   146.20   158.60   179.08   183.42
eigval :      192.01   211.65   215.66   227.72   239.99   251.34
eigval :      256.05   269.18   274.02   276.31   285.86   294.09
eigval :      300.28   305.02   311.11   333.51   336.10   354.33
eigval :      359.99   370.49   373.11   377.54   385.04   390.32
eigval :      391.94   396.60   409.39   419.63   424.65   428.94
eigval :      435.23   455.54   469.24   486.12   491.81   496.83
eigval :      498.94   504.20   506.66   513.52   525.45   529.57
eigval :      534.79   546.23   555.79   560.35   572.60   573.94
eigval :      581.48   591.92   595.21   598.51   603.72   606.43
eigval :      610.53   628.73   638.96   657.77   670.10   676.79
eigval :      683.91   695.25   701.57   705.66   709.37   720.91
eigval :      725.53   741.57   746.33   753.84   762.14   770.48
eigval :      777.43   782.14   785.45   794.66   796.53   804.69
eigval :      805.19   805.78   812.11   814.26   821.90   836.22
eigval :      843.23   847.89   850.74   852.88   863.60   867.01
eigval :      872.02   887.83   889.67   895.39   897.28   899.78
eigval :      900.54   902.52   906.21   908.90   913.40   976.62
eigval :      987.99   993.65  1022.53  1027.35  1038.76  1070.62
eigval :     1083.07  1086.86  1089.54  1113.28  1115.88  1131.14
eigval :     1133.05  1141.61  1156.59  1169.63  1171.07  1179.24
eigval :     1180.20  1182.14  1189.17  1192.17  1195.08  1199.38
eigval :     1220.89  1224.50  1229.09  1235.68  1243.99  1247.23
eigval :     1255.04  1257.15  1257.53  1274.77  1282.89  1287.32
eigval :     1289.32  1304.52  1312.99  1314.64  1321.55  1333.38
eigval :     1337.51  1345.56  1347.24  1351.64  1365.00  1372.41
eigval :     1386.84  1391.27  1396.47  1401.03  1407.76  1415.04
eigval :     1418.48  1423.91  1427.59  1437.08  1453.19  1461.40
eigval :     1463.75  1474.59  1475.71  1481.73  1486.06  1500.71
eigval :     1507.49  1513.79  1522.12  1528.33  1532.41  1539.91
eigval :     1543.29  1550.97  1553.44  1567.04  1579.33  1594.08
eigval :     1595.70  1613.21  3061.20  3063.49  3064.10  3064.86
eigval :     3065.65  3065.76  3070.55  3071.96  3074.16  3075.37
eigval :     3075.93  3077.56  3079.19  3088.21  3088.86  3090.76
eigval :     3093.56  3096.23  3096.60  3097.27  3104.69  3114.91
eigval :     3136.48  3425.95  3459.09  3462.28  3513.79  3518.45

   temp. (K)  partition function   enthalpy   heat capacity  entropy
                                   cal/mol     cal/K/mol   cal/K/mol   J/K/mol
 298.15  VIB  0.264E+15            22305.118    151.516    132.381
         ROT  0.534E+08              888.752      2.981     38.342
         INT  0.141E+23            23193.870    154.497    170.723
         TR   0.157E+29             1481.254      4.968     45.238
         TOT                       24675.1243   159.4647   215.9606   903.5791

       T/K    H(0)-H(T)+PV         H(T)/Eh          T*S/Eh         G(T)/Eh
   ------------------------------------------------------------------------
    298.15    0.393223E-01    0.622830E+00    0.102610E+00    0.520220E+00
   ------------------------------------------------------------------------

         :::::::::::::::::::::::::::::::::::::::::::::::::::::
         ::                  THERMODYNAMIC                  ::
         :::::::::::::::::::::::::::::::::::::::::::::::::::::
         :: total free energy        -126.151601314413 Eh   ::
         ::.................................................::
         :: total energy             -126.671821242554 Eh   ::
         :: zero point energy           0.583507459201 Eh   ::
         :: G(RRHO) w/o ZPVE           -0.063287531060 Eh   ::
         :: G(RRHO) contrib.            0.520219928141 Eh   ::
         :::::::::::::::::::::::::::::::::::::::::::::::::::::

           -------------------------------------------------
          | TOTAL ENERGY             -126.671821242554 Eh   |
          | TOTAL ENTHALPY           -126.048991469817 Eh   |
          | TOTAL FREE ENERGY        -126.151601314413 Eh   |
          | GRADIENT NORM               0.000054065479 Eh/α |
           -------------------------------------------------

 * finished run on 2025/09/12 at 01:07:17.892
