   * xtb version 6.7.1 (edcfbbe) compiled by 'albert@albert-system' on 2024-07-22

   ID    Z sym.   atoms
    1    7 N      1, 5, 19, 34, 36, 50
    2    6 C      2-4, 6-18, 20-33, 35, 37-49, 51-62
    3    1 H      63-94

          program call               : xtb data2507/gas/4CzTPN/4CzTPN_gas_T1_crest.xyz --gfn 2 --spinpol --tblite --uhf 2 --ohess vtight --parallel 40 --molden --ceasefiles --namespace data2507/gas/4CzTPN/4CzTPN_gas_T1_finalOpt
 * total energy  :  -153.7929987 Eh     change       -0.1204523E-07 Eh
 * total energy  :  -153.7930079 Eh     change       -0.9187664E-05 Eh
 * total energy  :  -153.7930131 Eh     change       -0.5200678E-05 Eh
 * total energy  :  -153.7930152 Eh     change       -0.2061569E-05 Eh
 * total energy  :  -153.7930161 Eh     change       -0.9397385E-06 Eh
 * total energy  :  -153.7930167 Eh     change       -0.5804602E-06 Eh
 * total energy  :  -153.7930175 Eh     change       -0.7788458E-06 Eh
 * total energy  :  -153.7930181 Eh     change       -0.6060605E-06 Eh
 * total energy  :  -153.7930187 Eh     change       -0.6498768E-06 Eh
 * total energy  :  -153.7930192 Eh     change       -0.4160949E-06 Eh
 * total energy  :  -153.7930197 Eh     change       -0.5733768E-06 Eh
 * total energy  :  -153.7930202 Eh     change       -0.5033498E-06 Eh
 * total energy  :  -153.7930208 Eh     change       -0.6006753E-06 Eh
 * total energy  :  -153.7930212 Eh     change       -0.3553606E-06 Eh
 * total energy  :  -153.7930214 Eh     change       -0.1580713E-06 Eh
 * total energy  :  -153.7930217 Eh     change       -0.3329286E-06 Eh
 * total energy  :  -153.7930219 Eh     change       -0.1828442E-06 Eh
 * total energy  :  -153.7930219 Eh     change       -0.3800253E-07 Eh
   *** GEOMETRY OPTIMIZATION CONVERGED AFTER 18 ITERATIONS ***

 final structure:
================
94
 xtb: 6.7.1 (edcfbbe)
N           -0.00102303274936        3.38995579347097       -2.05349691687381
C           -0.00049753222545        2.42054552700945       -1.42222404890841
C           -0.00012629262563        1.27178706379458       -0.64529084830196
C           -1.23024401038916        0.61531570608700       -0.31517496864617
N           -2.43924169718726        1.21901463346177       -0.68218778120430
C           -2.90321043903802        2.43784284866812       -0.23043818630214
C           -2.25382210836686        3.40727662125698        0.52054994039255
C           -2.96983739318567        4.53303998731553        0.87907793153309
C           -4.30397326569210        4.68993977684123        0.51425833219134
C           -4.96239813731953        3.71798313152888       -0.21782514779108
C           -4.26196663506494        2.58383660838757       -0.59477968234372
C           -4.62248862370463        1.39353636758847       -1.31826101177320
C           -5.79057401209315        0.95141642754524       -1.91757059097634
C           -5.78027613697206       -0.27154398308949       -2.56604797479293
C           -4.61638245330466       -1.02864089200311       -2.65451329734912
C           -3.43878641939040       -0.60500748664179       -2.06761225099923
C           -3.46199612203608        0.58918612555636       -1.36244273696783
C           -1.23000881720691       -0.61414947904895        0.31280545404858
N           -2.43868744868692       -1.21897684385795        0.67902979788781
C           -3.46208213684523       -0.59084829006779        1.35982379953780
C           -3.44044776392148        0.60325472856136        2.06519750320633
C           -4.61832344984582        1.02460825959966        2.65318240294618
C           -5.78095462550718        0.26548111793675        2.56546003609571
C           -5.78973396223244       -0.95711636547679        1.91628369184950
C           -4.62137553753285       -1.39696295056887        1.31584078605747
C           -4.25952957438575       -2.58624009074328        0.59134013178543
C           -4.95867021337984       -3.72082570289959        0.21329647378038
C           -4.29931080225328       -4.69106520688532       -0.52022032130524
C           -2.96545318730236       -4.53215404457891       -0.88519986007077
C           -2.25069809044262       -3.40598202261525       -0.52548950683758
C           -2.90110343958996       -2.43813354487822        0.22667108559214
C            0.00023408340537       -1.26987863100973        0.64370366517421
C           -0.00009995027365       -2.41852568739177        1.42080356520669
N           -0.00070690628738       -3.38785338086010        2.05219423461959
C            1.23029628131433       -0.61315417888289        0.31420821578396
N            2.43932405547431       -1.21525874384319        0.68360981440338
C            2.90485305949368       -2.43513880686132        0.23641297538306
C            2.25759980700572       -3.40726887620016       -0.51295338728080
C            2.97505435720933       -4.53360124863079       -0.86673618112480
C            4.30856442821280       -4.68857268533769       -0.49882429179990
C            4.96487184081387       -3.71407107551364        0.23177085347536
C            4.26295232601703       -2.57929016997096        0.60398625223138
C            4.62130164912433       -1.38677214538180        1.32488192695608
C            5.78773778802461       -0.94257147016991        1.92588346794776
C            5.77538044705058        0.28213195515788        2.57102966064167
C            4.61101153273647        1.03905627263221        2.65447171760488
C            3.43501335827099        0.61331699905137        2.06587734517232
C            3.46034141124724       -0.58288032465234        1.36419258641183
C            1.23010476333524        0.61556478344761       -0.31540814430051
N            2.43912683225956        1.21780954899638       -0.68470561554393
C            2.90513447298191        2.43726002006948       -0.23684826157688
C            2.25808687797575        3.40948461722809        0.51257493071769
C            2.97619924121202        4.53502773332406        0.86756001811089
C            4.31009823851535        4.68917167347294        0.50070150229768
C            4.96609841957750        3.71469419973318       -0.23019728474920
C            4.26354055394089        2.58070306579027       -0.60361485716575
C            4.62152155758697        1.38830280299873       -1.32489714523185
C            5.78795835710291        0.94366080179314       -1.92558128509078
C            5.77515718887407       -0.28078103716989       -2.57120877379629
C            4.61042182378950       -1.03707497665978       -2.65531213252199
C            3.43443956070286       -0.61091403911675       -2.06700307740949
C            3.46012302948581        0.58509797664076       -1.36502043622519
H           -1.22235597613604        3.29409855686733        0.81485062658449
H           -2.48422170475895        5.30587497694085        1.45552622906925
H           -4.83099258590460        5.58361520525367        0.81281955211461
H           -6.00038745773043        3.83543701713500       -0.48887876831630
H           -6.68681807977549        1.55134170862946       -1.88067416053861
H           -6.68362870742146       -0.63780640298042       -3.02978453397138
H           -4.62923248307608       -1.96405718520042       -3.19305342564792
H           -2.53094216665028       -1.17990590221752       -2.16864170649441
H           -2.53357729900543        1.17980555947498        2.16560865667070
H           -4.63238384694995        1.95979596725263        3.19209015518917
H           -6.68451392110544        0.62989827983653        3.03024861725089
H           -6.68498760467751       -1.55854388154274        1.87978257046390
H           -5.99644207123534       -3.83986535930802        0.48448370099285
H           -4.82537974123338       -5.58494685102078       -0.81983957392006
H           -2.47910945784365       -5.30366273073884       -1.46281338933931
H           -1.21946450186949       -3.29115420761419       -0.81998822025393
H            1.22660162099674       -3.29583674784304       -0.80949244560951
H            2.49104099951664       -5.30846593263704       -1.44180014413936
H            4.83675051325633       -5.58278732386008       -0.79368319502888
H            6.00235742923214       -3.83009772761691        0.50535558146211
H            6.68428961361660       -1.54226137771405        1.89286088328654
H            6.67742764818852        0.64997078031567        3.03605944976802
H            4.62218391069769        1.97597201509787        3.19043677577457
H            2.52670409163841        1.18812161469831        2.16319334350811
H            1.22677958462220        3.29867044612076        0.80829202178061
H            2.49242886581577        5.30989901110069        1.44282111761355
H            4.83882813633661        5.58271712746875        0.79661188959790
H            6.00385600152712        3.83008275394545       -0.50301717235453
H            6.68484490939615        1.54281401459807       -1.89195177501546
H            6.67716819834949       -0.64893772963478       -3.03605306617939
H            4.62129954896048       -1.97381538165470       -3.19158963366151
H            2.52587880591024       -1.18526660489110       -2.16470449274074

 projected vibrational frequencies (cm⁻¹)
eigval :       -0.00    -0.00    -0.00     0.00     0.00     0.00
eigval :       14.16    18.21    20.95    22.13    28.43    30.69
eigval :       32.50    43.74    48.86    53.77    55.70    65.68
eigval :       77.08    98.33   101.26   102.82   107.98   109.81
eigval :      112.32   115.63   119.64   124.74   130.24   130.57
eigval :      144.70   146.46   164.22   166.53   192.24   193.68
eigval :      194.39   211.91   230.78   247.07   252.22   265.70
eigval :      272.62   272.92   273.57   276.01   295.17   296.06
eigval :      352.92   364.14   371.39   386.71   390.09   396.23
eigval :      397.20   399.45   401.98   403.38   415.16   419.38
eigval :      422.75   424.55   430.64   431.57   436.22   437.89
eigval :      438.25   444.50   456.57   503.67   513.84   515.73
eigval :      515.86   516.56   518.26   534.05   536.56   536.77
eigval :      537.51   538.41   538.45   543.19   543.54   556.02
eigval :      574.41   578.89   583.32   585.61   588.03   595.71
eigval :      602.37   620.73   635.35   643.30   647.76   656.94
eigval :      671.68   672.59   672.80   673.97   706.98   707.20
eigval :      707.48   707.88   722.47   725.54   751.18   753.77
eigval :      755.02   756.52   762.52   764.47   765.52   767.35
eigval :      776.51   776.59   777.33   777.55   782.34   782.57
eigval :      852.13   856.96   857.03   864.09   864.51   873.80
eigval :      874.07   874.18   874.27   889.31   893.76   894.37
eigval :      898.89   899.00   900.89   900.92   901.03   904.00
eigval :      904.11   904.24   904.52   917.89   918.04   918.84
eigval :      918.98   920.57   920.61   920.81   921.01   972.76
eigval :     1007.48  1011.95  1011.96  1014.88  1015.97  1056.96
eigval :     1066.58  1067.58  1067.96  1069.23  1069.80  1071.08
eigval :     1071.53  1071.93  1080.73  1118.03  1140.05  1140.21
eigval :     1142.34  1143.51  1145.20  1145.79  1156.36  1174.63
eigval :     1175.58  1175.87  1177.97  1178.54  1178.56  1178.90
eigval :     1180.87  1189.36  1193.12  1215.88  1222.34  1227.57
eigval :     1229.13  1230.51  1232.35  1233.20  1243.03  1272.75
eigval :     1275.59  1282.64  1283.23  1285.43  1285.63  1291.92
eigval :     1293.39  1298.99  1299.07  1330.63  1342.65  1343.03
eigval :     1344.66  1346.65  1347.04  1353.74  1361.51  1361.70
eigval :     1365.06  1366.03  1372.14  1389.44  1412.26  1412.79
eigval :     1412.88  1415.12  1415.39  1418.74  1425.59  1429.12
eigval :     1462.67  1462.83  1463.12  1463.56  1474.33  1483.13
eigval :     1483.66  1483.68  1483.87  1521.69  1568.97  1569.04
eigval :     1569.42  1569.85  1582.00  1582.09  1582.17  1582.29
eigval :     1583.72  1584.07  1584.44  1585.46  1602.26  1602.63
eigval :     1605.45  1607.77  2251.04  2291.64  3083.32  3083.39
eigval :     3083.52  3083.59  3083.81  3083.87  3083.94  3084.07
eigval :     3087.50  3087.60  3087.71  3087.80  3089.32  3089.60
eigval :     3090.08  3090.20  3094.54  3094.86  3094.90  3095.05
eigval :     3096.87  3096.99  3097.57  3097.75  3101.17  3101.47
eigval :     3101.67  3101.75  3102.10  3102.67  3102.77  3103.47

   temp. (K)  partition function   enthalpy   heat capacity  entropy
                                   cal/mol     cal/K/mol   cal/K/mol   J/K/mol
 298.15  VIB  0.720E+21            28190.947    179.895    173.404
         ROT  0.464E+08              888.752      2.981     38.060
         INT  0.334E+29            29079.699    182.876    211.464
         TR   0.214E+29             1481.254      4.968     45.854
         TOT                       30560.9533   187.8444   257.3175  1076.6166

       T/K    H(0)-H(T)+PV         H(T)/Eh          T*S/Eh         G(T)/Eh
   ------------------------------------------------------------------------
    298.15    0.487020E-01    0.746705E+00    0.122260E+00    0.624445E+00
   ------------------------------------------------------------------------

         :::::::::::::::::::::::::::::::::::::::::::::::::::::
         ::                  THERMODYNAMIC                  ::
         :::::::::::::::::::::::::::::::::::::::::::::::::::::
         :: total free energy        -153.168577020566 Eh   ::
         ::.................................................::
         :: total energy             -153.793021926865 Eh   ::
         :: zero point energy           0.698002791053 Eh   ::
         :: G(RRHO) w/o ZPVE           -0.073557884753 Eh   ::
         :: G(RRHO) contrib.            0.624444906299 Eh   ::
         :::::::::::::::::::::::::::::::::::::::::::::::::::::

           -------------------------------------------------
          | TOTAL ENERGY             -153.793021926865 Eh   |
          | TOTAL ENTHALPY           -153.046317156695 Eh   |
          | TOTAL FREE ENERGY        -153.168577020566 Eh   |
          | GRADIENT NORM               0.000064859784 Eh/α |
           -------------------------------------------------

 * finished run on 2025/07/16 at 08:50:22.004
