   * xtb version 6.7.1 (edcfbbe) compiled by 'albert@albert-system' on 2024-07-22

   ID    Z sym.   atoms
    1    7 N      1, 5, 19, 34, 36, 50
    2    6 C      2-4, 6-18, 20-33, 35, 37-49, 51-62
    3    1 H      63-94

          program call               : xtb data2507/gas/4CzTPN/4CzTPN_gas_S0_crest.xyz --gfn 2 --ohess vtight --parallel 40 --molden --ceasefiles --namespace data2507/gas/4CzTPN/4CzTPN_gas_S0_finalOpt
          :  Hamiltonian                  GFN2-xTB          :
 * total energy  :  -153.8641540 Eh     change       -0.2834895E-08 Eh
 * total energy  :  -153.8641558 Eh     change       -0.1747661E-05 Eh
 * total energy  :  -153.8641570 Eh     change       -0.1220975E-05 Eh
 * total energy  :  -153.8641579 Eh     change       -0.8876705E-06 Eh
 * total energy  :  -153.8641588 Eh     change       -0.8781130E-06 Eh
 * total energy  :  -153.8641588 Eh     change       -0.4143061E-08 Eh
 * total energy  :  -153.8641596 Eh     change       -0.8418150E-06 Eh
 * total energy  :  -153.8641603 Eh     change       -0.7326268E-06 Eh
 * total energy  :  -153.8641610 Eh     change       -0.6102649E-06 Eh
 * total energy  :  -153.8641619 Eh     change       -0.9384781E-06 Eh
 * total energy  :  -153.8641630 Eh     change       -0.1095192E-05 Eh
 * total energy  :  -153.8641634 Eh     change       -0.4085956E-06 Eh
 * total energy  :  -153.8641635 Eh     change       -0.9643236E-07 Eh
   *** GEOMETRY OPTIMIZATION CONVERGED AFTER 13 ITERATIONS ***

 final structure:
================
94
 xtb: 6.7.1 (edcfbbe)
N           -0.00000718381089        3.33933722236492       -2.09847467642726
C            0.00059468526261        2.40656799287732       -1.43330679248408
C            0.00075949833558        1.22492548168985       -0.65365170839485
C           -1.22542761665050        0.62138784338354       -0.33314164256333
N           -2.42280515671007        1.23728222622709       -0.69103737903446
C           -2.87700010373841        2.46362258489774       -0.22307031234584
C           -2.20924587887851        3.43244682631658        0.50653211846388
C           -2.91541382599581        4.55956397658713        0.88294428764497
C           -4.25800848916200        4.71643415818794        0.55340138985120
C           -4.93344316194636        3.74317236874065       -0.15628761187496
C           -4.24273331032646        2.60555348916592       -0.54809551432983
C           -4.62781496675395        1.41414784310096       -1.25444135543563
C           -5.81720733281554        0.97730916206034       -1.81930470427373
C           -5.83400342755060       -0.24571144109707       -2.46161310038668
C           -4.67755584571859       -1.01017746789163       -2.58106626133040
C           -3.48061621340823       -0.59150668544761       -2.03121883791801
C           -3.47771307244277        0.60232813716390       -1.32930311695473
C           -1.22526914509502       -0.61853980325682        0.33049346484899
N           -2.42239111024948       -1.23503407214173        0.68823371955287
C           -3.47698273468453       -0.60128992557731        1.32813096751426
C           -3.48023144466045        0.59263549714022        2.02988572817777
C           -4.67678982760775        1.00985415095607        2.58165101563923
C           -5.83245448142654        0.24388508539786        2.46423739426658
C           -5.81519884640360       -0.97915251287953        1.82197777065210
C           -4.62621424246290       -1.41453328885229        1.25512887431884
C           -4.24083423467309       -2.60546419418272        0.54816040414345
C           -4.93076039145767       -3.74392908359338        0.15740582441724
C           -4.25528910878776       -4.71627519398357       -0.55349575372176
C           -2.91343745351547       -4.55769701812963       -0.88527321839956
C           -2.20803321897210       -3.42978599494084       -0.50984464108776
C           -2.87579023775301       -2.46186760710476        0.22097811449778
C            0.00097854133654       -1.22161202511059        0.65146285885267
C            0.00072291009062       -2.40334200380557        1.43099450505471
N            0.00002157149497       -3.33641497822058        2.09569289223508
C            1.22717367551963       -0.61807802924559        0.33097191360953
N            2.42423501212592       -1.23427497035581        0.68906699012998
C            2.87623481107050       -2.46284411523266        0.22504785756258
C            2.20807864596168       -3.43102285929255       -0.50508766707177
C            2.91190920860668       -4.56128585640277       -0.87634320457636
C            4.25272704184040       -4.72184779509543       -0.54136026740872
C            4.92883222514799       -3.74900736502427        0.16826209908878
C            4.24045070812218       -2.60817596239778        0.55485193860672
C            4.62673672635368       -1.41641025379886        1.25992866160669
C            5.81547953170221       -0.98218341542989        1.82818191656715
C            5.83381537445779        0.24195872232007        2.46828694180228
C            4.67933279398626        1.01024755213760        2.58216634809422
C            3.48301177945179        0.59419187765114        2.02902467121111
C            3.47880692439986       -0.60100694786571        1.32942393715378
C            1.22708172104862        0.62189050478296       -0.33260651386843
N            2.42422649036605        1.23825634336304       -0.69027252542751
C            2.87650415701045        2.46654191931720       -0.22569671371953
C            2.20826177815718        3.43518448011739        0.50374263385973
C            2.91257253969975        4.56484842862092        0.87597972053751
C            4.25390138706250        4.72445350938820        0.54261176252103
C            4.93000883721813        3.75127832880592       -0.16654641508501
C            4.24115343968222        2.61107272700687       -0.55409801591778
C            4.62746655520665        1.41915981045516       -1.25889833242678
C            5.81662468477988        0.98423393087399       -1.82573970440676
C            5.83503549222550       -0.24005676778505       -2.46556339781966
C            4.68026623733422       -1.00773391800353       -2.58059655191401
C            3.48349899560631       -0.59086629607948       -2.02901665394484
C            3.47915081741265        0.60443786129890       -1.32960734841128
H           -1.17155530937518        3.32129578675639        0.78320146188621
H           -2.41329374747001        5.33159137170220        1.44639133621476
H           -4.77616758528724        5.61096624948715        0.86448893546713
H           -5.97843276427593        3.85715406448653       -0.40021773651861
H           -6.70668022271367        1.58524314886060       -1.75872095447743
H           -6.75227161280652       -0.60887649915445       -2.89772936966431
H           -4.71126980938778       -1.94803860413549       -3.11455609821823
H           -2.58178971905066       -1.17680599261144       -2.15552528748378
H           -2.58193260786279        1.17906673365235        2.15267294085061
H           -4.71080442732834        1.94773676039741        3.11508295834376
H           -6.75044206932695        0.60591126693399        2.90188938752108
H           -6.70399913814495       -1.58822615350851        1.76296869275927
H           -5.97519090533518       -3.85927231462122        0.40308853699308
H           -4.77285594173151       -5.61141133210413       -0.86383396151978
H           -2.41132262558548       -5.32901337733610       -1.44970102928698
H           -1.17093068097357       -3.31728866539481       -0.78819883147597
H            1.17182883632689       -3.31703969837782       -0.78601016036870
H            2.40934518296634       -5.33292492520151       -1.43992252241902
H            4.76899877910252       -5.61893267998339       -0.84820227596449
H            5.97255326293567       -3.86586981172331        0.41623684461832
H            6.70326189303138       -1.59300444029447        1.77192542984714
H            6.75164355727144        0.60304620610716        2.90704865688284
H            4.71405625960691        1.94899963272125        3.11402180902520
H            2.58559009677150        1.18245357172327        2.14933451410836
H            1.17160193931680        3.32204298301293        0.78347596439598
H            2.40996987743457        5.33678676420755        1.43911873567516
H            4.77054364459459        5.62103398670151        0.85030535240154
H            5.97408048347830        3.86735197921580       -0.41341091654069
H            6.70463565863906        1.59463977720152       -1.76862649627112
H            6.75317965757938       -0.60174641890667       -2.90316418589724
H            4.71510645675385       -1.94664101890160       -3.11217633733940
H            2.58589297712618       -1.17863531868766       -2.15034524966708

          :  Hamiltonian                  GFN2-xTB          :
         :: gradient norm              0.000079182622 Eh/a0 ::
         :: HOMO-LUMO gap              1.657869390419 eV    ::
         :: SCC energy              -156.822982532810 Eh    ::
         :: -> dispersion             -0.177930396445 Eh    ::
         :: repulsion energy           2.958819041358 Eh    ::

    * Orbital Energies and Occupations

         #    Occupation            Energy/Eh            Energy/eV
      -------------------------------------------------------------
         1        2.0000           -0.7169065             -19.5080
       ...           ...                  ...                  ...
       131        2.0000           -0.4249506             -11.5635
       132        2.0000           -0.4154228             -11.3042
       133        2.0000           -0.4153334             -11.3018
       134        2.0000           -0.4132008             -11.2438
       135        2.0000           -0.4131186             -11.2415
       136        2.0000           -0.3920594             -10.6685
       137        2.0000           -0.3919982             -10.6668
       138        2.0000           -0.3857105             -10.4957
       139        2.0000           -0.3851580             -10.4807
       140        2.0000           -0.3827561             -10.4153
       141        2.0000           -0.3809288             -10.3656
       142        2.0000           -0.3774053             -10.2697
       143        2.0000           -0.3727003             -10.1417 (HOMO)
       144                         -0.3117747              -8.4838 (LUMO)
       145                         -0.2781631              -7.5692
       146                         -0.2554873              -6.9522
       147                         -0.2542790              -6.9193
       148                         -0.2541856              -6.9167
       149                         -0.2529323              -6.8826
       150                         -0.2382264              -6.4825
       151                         -0.2360315              -6.4227
       152                         -0.2359085              -6.4194
       153                         -0.2271901              -6.1822
       154                         -0.2268051              -6.1717
       ...                                ...                  ...
       280                          1.1597943              31.5596
      -------------------------------------------------------------
                  HL-Gap            0.0609255 Eh            1.6579 eV

     #   Z          covCN         q      C6AA      α(0)
     1   7 N        0.911    -0.217    25.739     7.338
     2   6 C        1.913     0.123    28.078     8.558
     3   6 C        2.973    -0.009    28.236     8.716
     4   6 C        2.917     0.056    26.735     8.479
     5   7 N        2.800    -0.050    22.201     6.998
     6   6 C        3.068     0.052    26.768     8.484
     7   6 C        2.911    -0.043    29.076     8.842
     8   6 C        2.925    -0.029    28.734     8.791
     9   6 C        2.921    -0.037    28.912     8.818
    10   6 C        2.914    -0.030    28.741     8.791
    11   6 C        3.069    -0.012    28.235     8.713
    12   6 C        3.065    -0.013    28.262     8.717
    13   6 C        2.914    -0.031    28.762     8.794
    14   6 C        2.921    -0.037    28.914     8.818
    15   6 C        2.925    -0.030    28.758     8.794
    16   6 C        2.911    -0.046    29.145     8.852
    17   6 C        3.074     0.049    26.814     8.490
    18   6 C        2.917     0.056    26.735     8.479
    19   7 N        2.800    -0.050    22.200     6.998
    20   6 C        3.074     0.049    26.814     8.490
    21   6 C        2.911    -0.046    29.145     8.852
    22   6 C        2.925    -0.030    28.758     8.794
    23   6 C        2.921    -0.037    28.915     8.818
    24   6 C        2.914    -0.031    28.762     8.794
    25   6 C        3.065    -0.013    28.262     8.717
    26   6 C        3.069    -0.012    28.235     8.713
    27   6 C        2.914    -0.030    28.741     8.791
    28   6 C        2.921    -0.037    28.912     8.818
    29   6 C        2.925    -0.029    28.734     8.791
    30   6 C        2.911    -0.043    29.075     8.842
    31   6 C        3.068     0.052    26.768     8.484
    32   6 C        2.973    -0.009    28.235     8.716
    33   6 C        1.913     0.123    28.078     8.558
    34   7 N        0.911    -0.217    25.739     7.338
    35   6 C        2.917     0.056    26.736     8.479
    36   7 N        2.800    -0.050    22.197     6.997
    37   6 C        3.068     0.052    26.769     8.484
    38   6 C        2.911    -0.043    29.075     8.842
    39   6 C        2.925    -0.029    28.733     8.791
    40   6 C        2.921    -0.037    28.912     8.818
    41   6 C        2.914    -0.030    28.740     8.791
    42   6 C        3.069    -0.012    28.235     8.713
    43   6 C        3.065    -0.013    28.262     8.717
    44   6 C        2.914    -0.031    28.762     8.794
    45   6 C        2.921    -0.037    28.915     8.818
    46   6 C        2.925    -0.030    28.758     8.794
    47   6 C        2.911    -0.046    29.146     8.853
    48   6 C        3.074     0.049    26.815     8.490
    49   6 C        2.917     0.056    26.736     8.479
    50   7 N        2.800    -0.050    22.198     6.998
    51   6 C        3.068     0.052    26.768     8.484
    52   6 C        2.911    -0.043    29.075     8.842
    53   6 C        2.925    -0.029    28.733     8.791
    54   6 C        2.921    -0.037    28.912     8.818
    55   6 C        2.914    -0.030    28.740     8.791
    56   6 C        3.069    -0.012    28.235     8.713
    57   6 C        3.065    -0.013    28.262     8.717
    58   6 C        2.914    -0.031    28.762     8.794
    59   6 C        2.921    -0.037    28.914     8.818
    60   6 C        2.925    -0.030    28.758     8.794
    61   6 C        2.911    -0.046    29.146     8.853
    62   6 C        3.074     0.049    26.815     8.490
    63   1 H        0.926     0.018     2.764     2.600
    64   1 H        0.926     0.036     2.503     2.474
    65   1 H        0.926     0.035     2.516     2.481
    66   1 H        0.926     0.037     2.492     2.469
    67   1 H        0.926     0.037     2.493     2.469
    68   1 H        0.926     0.034     2.523     2.484
    69   1 H        0.926     0.033     2.539     2.492
    70   1 H        0.926     0.020     2.728     2.583
    71   1 H        0.926     0.020     2.728     2.583
    72   1 H        0.926     0.033     2.539     2.492
    73   1 H        0.926     0.034     2.524     2.484
    74   1 H        0.926     0.037     2.493     2.469
    75   1 H        0.926     0.037     2.492     2.469
    76   1 H        0.926     0.035     2.516     2.481
    77   1 H        0.926     0.036     2.503     2.474
    78   1 H        0.926     0.018     2.764     2.600
    79   1 H        0.926     0.018     2.764     2.600
    80   1 H        0.926     0.036     2.503     2.474
    81   1 H        0.926     0.035     2.516     2.481
    82   1 H        0.926     0.037     2.492     2.469
    83   1 H        0.926     0.037     2.493     2.469
    84   1 H        0.926     0.034     2.523     2.484
    85   1 H        0.926     0.033     2.539     2.492
    86   1 H        0.926     0.020     2.728     2.583
    87   1 H        0.926     0.018     2.764     2.600
    88   1 H        0.926     0.036     2.503     2.474
    89   1 H        0.926     0.035     2.516     2.481
    90   1 H        0.926     0.037     2.492     2.469
    91   1 H        0.926     0.037     2.493     2.469
    92   1 H        0.926     0.034     2.523     2.484
    93   1 H        0.926     0.033     2.539     2.492
    94   1 H        0.926     0.020     2.727     2.583

molecular dipole:
                 x           y           z       tot (Debye)
 q only:        0.002      -0.000       0.001
   full:        0.002      -0.000       0.001       0.006

 projected vibrational frequencies (cm⁻¹)
eigval :       -0.00    -0.00    -0.00    -0.00     0.00     0.00
eigval :       13.47    23.40    23.91    24.18    30.86    32.50
eigval :       36.12    44.21    50.29    54.75    60.16    65.32
eigval :       81.78   101.03   101.76   103.68   109.47   113.46
eigval :      115.58   119.38   119.70   128.40   131.92   133.18
eigval :      146.93   151.09   166.06   167.96   195.33   196.43
eigval :      200.19   212.30   238.86   252.98   263.86   267.54
eigval :      274.61   274.78   276.58   276.64   296.51   297.04
eigval :      348.75   358.73   373.44   396.46   397.47   397.78
eigval :      398.17   401.76   403.92   408.22   414.48   421.75
eigval :      423.44   427.47   434.40   435.06   436.78   442.85
eigval :      444.63   445.24   512.67   513.77   518.29   518.77
eigval :      521.53   522.09   530.42   531.94   537.19   539.56
eigval :      541.74   541.80   542.47   542.72   566.76   573.32
eigval :      577.19   581.86   588.67   592.75   595.37   599.75
eigval :      621.88   636.52   650.95   658.82   661.06   670.85
eigval :      671.88   673.21   674.05   694.67   705.45   705.72
eigval :      705.77   707.56   723.42   729.25   752.75   754.33
eigval :      756.30   757.70   764.39   765.83   768.13   769.46
eigval :      777.14   780.01   780.30   781.50   781.60   788.69
eigval :      859.17   859.29   865.26   867.81   867.93   876.73
eigval :      877.04   877.05   877.38   891.27   894.13   894.21
eigval :      899.43   899.44   901.58   901.60   902.48   905.23
eigval :      905.30   905.34   905.43   920.44   920.53   921.48
eigval :      921.61   923.46   923.58   923.75   923.86   973.09
eigval :     1009.01  1013.03  1013.60  1015.31  1020.86  1069.49
eigval :     1069.99  1070.79  1071.12  1072.06  1072.84  1074.41
eigval :     1075.58  1075.83  1080.78  1121.98  1145.05  1147.96
eigval :     1150.48  1150.66  1152.91  1153.87  1164.55  1178.04
eigval :     1178.16  1179.73  1180.26  1180.61  1180.78  1181.10
eigval :     1182.32  1197.23  1217.44  1220.40  1231.66  1233.08
eigval :     1234.68  1235.83  1236.48  1248.13  1261.97  1269.65
eigval :     1286.29  1294.91  1295.27  1295.74  1295.80  1297.12
eigval :     1299.47  1301.45  1308.35  1349.64  1352.36  1359.57
eigval :     1359.70  1360.06  1360.74  1361.95  1361.99  1362.43
eigval :     1362.75  1404.31  1413.75  1414.37  1420.90  1424.61
eigval :     1428.03  1428.16  1428.65  1429.75  1447.97  1455.24
eigval :     1473.03  1473.35  1473.55  1475.27  1487.11  1487.18
eigval :     1487.29  1487.63  1495.26  1504.65  1579.37  1579.45
eigval :     1579.79  1579.84  1593.61  1593.76  1593.94  1594.68
eigval :     1601.62  1602.00  1602.06  1602.46  1614.60  1614.79
eigval :     1615.24  1616.81  2368.99  2369.55  3076.71  3076.95
eigval :     3079.02  3079.21  3079.67  3079.77  3079.92  3080.03
eigval :     3084.30  3084.39  3084.60  3084.67  3085.22  3085.38
eigval :     3085.54  3085.61  3092.03  3092.37  3092.48  3092.62
eigval :     3094.23  3094.42  3094.43  3094.51  3100.14  3100.30
eigval :     3100.34  3100.41  3101.82  3101.83  3102.04  3102.44

   temp. (K)  partition function   enthalpy   heat capacity  entropy
                                   cal/mol     cal/K/mol   cal/K/mol   J/K/mol
 298.15  VIB  0.207E+21            27893.385    178.883    171.127
         ROT  0.462E+08              888.752      2.981     38.055
         INT  0.957E+28            28782.137    181.864    209.182
         TR   0.214E+29             1481.254      4.968     45.854
         TOT                       30263.3914   186.8323   255.0362  1067.0715

       T/K    H(0)-H(T)+PV         H(T)/Eh          T*S/Eh         G(T)/Eh
   ------------------------------------------------------------------------
    298.15    0.482278E-01    0.749733E+00    0.121176E+00    0.628557E+00
   ------------------------------------------------------------------------

         :::::::::::::::::::::::::::::::::::::::::::::::::::::
         ::                  THERMODYNAMIC                  ::
         :::::::::::::::::::::::::::::::::::::::::::::::::::::
         :: total free energy        -153.235606854934 Eh   ::
         ::.................................................::
         :: total energy             -153.864163491427 Eh   ::
         :: zero point energy           0.701504788672 Eh   ::
         :: G(RRHO) w/o ZPVE           -0.072948152178 Eh   ::
         :: G(RRHO) contrib.            0.628556636493 Eh   ::
         :::::::::::::::::::::::::::::::::::::::::::::::::::::

           -------------------------------------------------
          | TOTAL ENERGY             -153.864163491427 Eh   |
          | TOTAL ENTHALPY           -153.114430918709 Eh   |
          | TOTAL FREE ENERGY        -153.235606854934 Eh   |
          | GRADIENT NORM               0.000079028046 Eh/α |
          | HOMO-LUMO GAP               1.657867979489 eV   |
           -------------------------------------------------

 * finished run on 2025/07/16 at 08:42:11.521
