   * xtb version 6.7.1 (edcfbbe) compiled by 'albert@albert-system' on 2024-07-22

   ID    Z sym.   atoms
    1    7 N      1, 5, 19, 34, 36, 50
    2    6 C      2-4, 6-18, 20-33, 35, 37-49, 51-62
    3    1 H      63-94

          program call               : xtb data2507/gas/4CzTPN/4CzTPN.xyz --gfn 2 --ohess vtight --parallel 40 --molden --ceasefiles --namespace data2507/gas/4CzTPN/4CzTPN_gas_S0_preOpt
          :  Hamiltonian                  GFN2-xTB          :
 * total energy  :  -153.8225421 Eh     change       -0.4689383E-08 Eh
 * total energy  :  -153.8456878 Eh     change       -0.2314570E-01 Eh
 * total energy  :  -153.8518190 Eh     change       -0.6131250E-02 Eh
 * total energy  :  -153.8534985 Eh     change       -0.1679457E-02 Eh
 * total energy  :  -153.8550872 Eh     change       -0.1588725E-02 Eh
 * total energy  :  -153.8561347 Eh     change       -0.1047516E-02 Eh
 * total energy  :  -153.8569229 Eh     change       -0.7882255E-03 Eh
 * total energy  :  -153.8576047 Eh     change       -0.6817739E-03 Eh
 * total energy  :  -153.8582428 Eh     change       -0.6381442E-03 Eh
 * total energy  :  -153.8588655 Eh     change       -0.6226802E-03 Eh
 * total energy  :  -153.8641555 Eh     change       -0.1476524E-05 Eh
 * total energy  :  -153.8641572 Eh     change       -0.1751919E-05 Eh
 * total energy  :  -153.8641591 Eh     change       -0.1907649E-05 Eh
 * total energy  :  -153.8641608 Eh     change       -0.1704082E-05 Eh
 * total energy  :  -153.8641620 Eh     change       -0.1167371E-05 Eh
 * total energy  :  -153.8641626 Eh     change       -0.6349773E-06 Eh
 * total energy  :  -153.8641629 Eh     change       -0.2866914E-06 Eh
 * total energy  :  -153.8641630 Eh     change       -0.1076488E-06 Eh
 * total energy  :  -153.8641631 Eh     change       -0.8051421E-07 Eh
   *** GEOMETRY OPTIMIZATION CONVERGED AFTER 60 ITERATIONS ***

 final structure:
================
94
 xtb: 6.7.1 (edcfbbe)
N            0.00025498178671        3.10681733235876        2.42599860038299
C            0.00017659811643        2.24661930654826        1.66936230318212
C            0.00006772844414        1.15048939825220        0.77345076104265
C           -1.22630041393048        0.58310937612308        0.39308859786289
N           -2.42327987972381        1.16055328534546        0.81128639554798
C           -3.47922127404069        0.46567987952388        1.38180711356946
C           -3.48460559818797       -0.79391770824357        1.95742245690569
C           -4.68242277846084       -1.26438897290876        2.46158374285235
C           -5.83726116361573       -0.48927009259770        2.42175777589447
C           -5.81786233714650        0.79331497509170        1.90873011229952
C           -4.62760964899362        1.28332919877669        1.39131990623438
C           -4.24027539111277        2.54014252809871        0.81079644207958
C           -4.92869952957059        3.71348800671911        0.53854046697929
C           -4.25162916722961        4.75296734434344       -0.06822582620811
C           -2.90975692309094        4.62764031981467       -0.41381321958025
C           -2.20586696643887        3.46632467898395       -0.15568165778819
C           -2.87507113291181        2.42934993533200        0.47178928963675
C           -1.22636286871613       -0.58305937887235       -0.39299665866914
N           -2.42340652652535       -1.16038772609617       -0.81117667324386
C           -2.87532631105377       -2.42913569157256       -0.47168802559135
C           -2.20626365862678       -3.46613300835838        0.15589772045567
C           -2.91027665606416       -4.62737245995972        0.41403324323257
C           -4.25213305505190       -4.75259891227507        0.06834100779104
C           -4.92906027881926       -3.71309750009566       -0.53854651158625
C           -4.24051036978425       -2.53982712460937       -0.81081115518589
C           -4.62768086575953       -1.28300917265109       -1.39143288600234
C           -5.81783405774223       -0.79292781597267       -1.90900889229253
C           -5.83707950331876        0.48964308754039       -2.42207755906429
C           -4.68218890546218        1.26469139423323       -2.46175830540642
C           -3.48446878598511        0.79415582388161       -1.95742799809974
C           -3.47923552539592       -0.46544006701825       -1.38180712039714
C           -0.00006999450346       -1.15055775789221       -0.77342590118122
C           -0.00017125477650       -2.24668498356817       -1.66934704496962
N           -0.00023446840040       -3.10688297765811       -2.42601431578001
C            1.22629830260750       -0.58317716892143       -0.39306428542812
N            2.42328532878316       -1.16059838444529       -0.81127517190503
C            3.47919963158190       -0.46568498995533       -1.38179890057979
C            3.48452679986414        0.79390631482650       -1.95742732984193
C            4.68232161534366        1.26442626408249       -2.46159516955993
C            5.83719944701484        0.48936781246533       -2.42174192577015
C            5.81785832596282       -0.79321446639078       -1.90870433578802
C            4.62762221209502       -1.28328492589192       -1.39130741650749
C            4.24033648431055       -2.54011393942786       -0.81078493637454
C            4.92880419101803       -3.71343677859246       -0.53854216264273
C            4.25176688636591       -4.75295481876547        0.06819471037691
C            2.90988314530384       -4.62768888510992        0.41376481947350
C            2.20595359300775       -3.46639079992913        0.15566003300271
C            2.87512328630590       -2.42938065458884       -0.47178858346891
C            1.22635977225004        0.58299272176633        0.39301797323645
N            2.42340074094735        1.16034056585857        0.81117868059905
C            3.47923538517068        0.46543404669948        1.38184625941511
C            3.48449686787302       -0.79415493134733        1.95748124938342
C            4.68222180554167       -1.26464519881096        2.46184411459671
C            5.83708748672800       -0.48955783296811        2.42218522800771
C            5.81781204526939        0.79300543412029        1.90910005874998
C            4.62765695935424        1.28303782604396        1.39148013977146
C            4.24046408801614        2.53983025716248        0.81081789766564
C            4.92898813038789        3.71310910440208        0.53852395992693
C            4.25205177954786        4.75256247832336       -0.06843554137603
C            2.91020869532078        4.62728492338800       -0.41416170250332
C            2.20621931003786        3.46604060469121       -0.15598817334490
C            2.87529334868025        2.42908899653389        0.47166108606695
H           -2.58705935844866       -1.39083170152277        2.02072494308352
H           -4.71809580462143       -2.25209677423328        2.89574234939764
H           -6.75629030020237       -0.89343986331342        2.81840905902900
H           -6.70598895069571        1.40621200772515        1.91133136683343
H           -5.97321938507046        3.80413183197412        0.79400409234962
H           -4.76795106105364        5.67587621547439       -0.28525925409497
H           -2.40635939818002        5.45220572448583       -0.89579743301143
H           -1.16876597197171        3.38181869695328       -0.44372676224351
H           -1.16918951158264       -3.38168194671513        0.44405703643600
H           -2.40700520315604       -5.45194218125653        0.89614164866107
H           -4.76855415121728       -5.67544947592628        0.28538304237524
H           -5.97355619508294       -3.80367811238805       -0.79412438196531
H           -6.70600695652832       -1.40575951795617       -1.91169270664360
H           -6.75603668932124        0.89387252984458       -2.81883756620565
H           -4.71774874267647        2.25240201539847       -2.89591849948629
H           -2.58687665429902        1.39101312261021       -2.02062533581479
H            2.58695177345746        1.39077474906132       -2.02074024752859
H            4.71795742122716        2.25214207070872       -2.89573656121291
H            6.75621802347714        0.89358666926643       -2.81837093554900
H            6.70601361888751       -1.40607092758707       -1.91129959254881
H            5.97331845487959       -3.80404989875811       -0.79403302461649
H            4.76811605936425       -5.67585588775864        0.28519288909971
H            2.40652039601119       -5.45227478923531        0.89574988802975
H            1.16885371102684       -3.38192081549985        0.44371651169896
H            2.58692690686053       -1.39104698309088        2.02065188129336
H            4.71780040247829       -2.25234241357565        2.89603424942778
H            6.75603874479719       -0.89373707012693        2.81900802190459
H            6.70596063761186        1.40587056716850        1.91180751786019
H            5.97347750528081        3.80372730643880        0.79411842269205
H            4.76845616214407        5.67541495414364       -0.28551155607748
H            2.40693102187822        5.45181614754120       -0.89632974254034
H            1.16915581212381        3.38154565428471       -0.44417408071413

          :  Hamiltonian                  GFN2-xTB          :
         :: gradient norm              0.000068509623 Eh/a0 ::
         :: HOMO-LUMO gap              1.658611027597 eV    ::
         :: SCC energy              -156.822943109075 Eh    ::
         :: -> dispersion             -0.177996276525 Eh    ::
         :: repulsion energy           2.958779999667 Eh    ::

    * Orbital Energies and Occupations

         #    Occupation            Energy/Eh            Energy/eV
      -------------------------------------------------------------
         1        2.0000           -0.7168823             -19.5074
       ...           ...                  ...                  ...
       131        2.0000           -0.4249359             -11.5631
       132        2.0000           -0.4154009             -11.3036
       133        2.0000           -0.4153114             -11.3012
       134        2.0000           -0.4132175             -11.2442
       135        2.0000           -0.4131456             -11.2423
       136        2.0000           -0.3920654             -10.6686
       137        2.0000           -0.3920242             -10.6675
       138        2.0000           -0.3856955             -10.4953
       139        2.0000           -0.3851463             -10.4804
       140        2.0000           -0.3827712             -10.4157
       141        2.0000           -0.3809361             -10.3658
       142        2.0000           -0.3774121             -10.2699
       143        2.0000           -0.3727041             -10.1418 (HOMO)
       144                         -0.3117514              -8.4832 (LUMO)
       145                         -0.2781534              -7.5689
       146                         -0.2554927              -6.9523
       147                         -0.2542830              -6.9194
       148                         -0.2541914              -6.9169
       149                         -0.2529258              -6.8825
       150                         -0.2382086              -6.4820
       151                         -0.2360446              -6.4231
       152                         -0.2359179              -6.4197
       153                         -0.2271841              -6.1820
       154                         -0.2268079              -6.1718
       ...                                ...                  ...
       280                          1.1598314              31.5606
      -------------------------------------------------------------
                  HL-Gap            0.0609527 Eh            1.6586 eV

     #   Z          covCN         q      C6AA      α(0)
     1   7 N        0.911    -0.217    25.740     7.338
     2   6 C        1.913     0.123    28.078     8.558
     3   6 C        2.973    -0.009    28.236     8.716
     4   6 C        2.917     0.056    26.736     8.479
     5   7 N        2.800    -0.050    22.199     6.998
     6   6 C        3.074     0.049    26.815     8.490
     7   6 C        2.911    -0.046    29.145     8.852
     8   6 C        2.925    -0.030    28.758     8.794
     9   6 C        2.921    -0.037    28.914     8.818
    10   6 C        2.914    -0.031    28.762     8.794
    11   6 C        3.065    -0.013    28.262     8.717
    12   6 C        3.069    -0.012    28.235     8.713
    13   6 C        2.914    -0.030    28.741     8.791
    14   6 C        2.921    -0.037    28.912     8.818
    15   6 C        2.925    -0.029    28.734     8.791
    16   6 C        2.911    -0.043    29.076     8.842
    17   6 C        3.068     0.052    26.768     8.484
    18   6 C        2.917     0.056    26.736     8.479
    19   7 N        2.800    -0.050    22.199     6.998
    20   6 C        3.068     0.052    26.768     8.484
    21   6 C        2.911    -0.043    29.076     8.842
    22   6 C        2.925    -0.029    28.734     8.791
    23   6 C        2.921    -0.037    28.912     8.818
    24   6 C        2.914    -0.030    28.740     8.791
    25   6 C        3.069    -0.012    28.235     8.713
    26   6 C        3.065    -0.013    28.262     8.717
    27   6 C        2.914    -0.031    28.762     8.794
    28   6 C        2.921    -0.037    28.914     8.818
    29   6 C        2.925    -0.030    28.758     8.794
    30   6 C        2.911    -0.046    29.145     8.852
    31   6 C        3.074     0.049    26.815     8.490
    32   6 C        2.973    -0.009    28.236     8.716
    33   6 C        1.913     0.123    28.078     8.558
    34   7 N        0.911    -0.217    25.740     7.338
    35   6 C        2.917     0.056    26.736     8.479
    36   7 N        2.800    -0.050    22.200     6.998
    37   6 C        3.074     0.049    26.815     8.490
    38   6 C        2.911    -0.046    29.145     8.852
    39   6 C        2.925    -0.030    28.758     8.794
    40   6 C        2.921    -0.037    28.914     8.818
    41   6 C        2.914    -0.031    28.762     8.794
    42   6 C        3.065    -0.013    28.262     8.717
    43   6 C        3.069    -0.012    28.235     8.713
    44   6 C        2.914    -0.030    28.741     8.791
    45   6 C        2.921    -0.037    28.912     8.818
    46   6 C        2.925    -0.029    28.734     8.791
    47   6 C        2.911    -0.043    29.076     8.842
    48   6 C        3.068     0.052    26.768     8.484
    49   6 C        2.917     0.056    26.736     8.479
    50   7 N        2.800    -0.050    22.199     6.998
    51   6 C        3.074     0.049    26.815     8.490
    52   6 C        2.911    -0.046    29.145     8.852
    53   6 C        2.925    -0.030    28.758     8.794
    54   6 C        2.921    -0.037    28.914     8.818
    55   6 C        2.914    -0.031    28.762     8.794
    56   6 C        3.065    -0.013    28.262     8.717
    57   6 C        3.069    -0.012    28.235     8.713
    58   6 C        2.914    -0.030    28.740     8.791
    59   6 C        2.921    -0.037    28.912     8.818
    60   6 C        2.925    -0.029    28.734     8.791
    61   6 C        2.911    -0.043    29.076     8.842
    62   6 C        3.068     0.052    26.768     8.484
    63   1 H        0.926     0.020     2.727     2.583
    64   1 H        0.926     0.033     2.539     2.492
    65   1 H        0.926     0.034     2.523     2.484
    66   1 H        0.926     0.037     2.493     2.469
    67   1 H        0.926     0.037     2.492     2.469
    68   1 H        0.926     0.035     2.516     2.481
    69   1 H        0.926     0.036     2.503     2.474
    70   1 H        0.926     0.018     2.764     2.600
    71   1 H        0.926     0.018     2.764     2.600
    72   1 H        0.926     0.036     2.503     2.474
    73   1 H        0.926     0.035     2.516     2.481
    74   1 H        0.926     0.037     2.492     2.469
    75   1 H        0.926     0.037     2.493     2.469
    76   1 H        0.926     0.034     2.523     2.484
    77   1 H        0.926     0.033     2.539     2.492
    78   1 H        0.926     0.020     2.728     2.583
    79   1 H        0.926     0.020     2.727     2.583
    80   1 H        0.926     0.033     2.539     2.492
    81   1 H        0.926     0.034     2.523     2.484
    82   1 H        0.926     0.037     2.493     2.469
    83   1 H        0.926     0.037     2.492     2.469
    84   1 H        0.926     0.035     2.516     2.481
    85   1 H        0.926     0.036     2.503     2.474
    86   1 H        0.926     0.018     2.764     2.600
    87   1 H        0.926     0.020     2.728     2.583
    88   1 H        0.926     0.033     2.539     2.492
    89   1 H        0.926     0.034     2.523     2.484
    90   1 H        0.926     0.037     2.493     2.469
    91   1 H        0.926     0.037     2.492     2.469
    92   1 H        0.926     0.035     2.516     2.481
    93   1 H        0.926     0.036     2.503     2.474
    94   1 H        0.926     0.018     2.764     2.600

molecular dipole:
                 x           y           z       tot (Debye)
 q only:       -0.000       0.000       0.000
   full:       -0.000       0.000       0.000       0.000

 projected vibrational frequencies (cm⁻¹)
eigval :       -0.00    -0.00     0.00     0.00     0.00     0.00
eigval :       13.28    23.50    24.04    24.30    30.92    32.71
eigval :       36.30    44.21    50.33    54.81    60.21    65.36
eigval :       81.82   101.04   101.72   103.64   109.49   113.48
eigval :      115.70   119.42   119.68   128.41   131.88   133.23
eigval :      146.91   151.15   166.09   168.01   195.48   196.58
eigval :      200.17   212.31   238.84   252.97   263.92   267.49
eigval :      274.55   274.81   276.68   276.68   296.54   297.12
eigval :      348.72   358.86   373.53   396.57   397.47   397.79
eigval :      398.10   401.81   403.94   408.26   414.66   421.72
eigval :      423.43   427.49   434.41   435.05   436.79   442.93
eigval :      444.61   445.20   512.69   513.76   518.29   518.78
eigval :      521.53   522.09   530.48   532.01   537.22   539.49
eigval :      541.75   541.81   542.47   542.72   566.74   573.29
eigval :      577.17   581.85   588.65   592.76   595.37   599.72
eigval :      621.85   636.45   650.94   658.84   661.04   670.85
eigval :      671.86   673.23   674.08   694.65   705.43   705.73
eigval :      705.77   707.57   723.68   729.26   752.74   754.35
eigval :      756.30   757.63   764.37   765.81   768.15   769.46
eigval :      777.17   780.01   780.32   781.54   781.63   788.69
eigval :      859.08   859.20   865.24   867.80   867.92   876.76
eigval :      877.07   877.08   877.40   891.27   894.11   894.17
eigval :      899.42   899.42   901.58   901.60   902.49   905.24
eigval :      905.33   905.37   905.44   920.43   920.53   921.47
eigval :      921.61   923.49   923.60   923.78   923.88   973.06
eigval :     1009.12  1013.01  1013.57  1015.30  1020.79  1069.48
eigval :     1069.98  1070.77  1071.10  1072.05  1072.90  1074.41
eigval :     1075.56  1075.84  1080.77  1121.98  1145.00  1147.96
eigval :     1150.45  1150.65  1152.91  1153.85  1164.51  1178.03
eigval :     1178.11  1179.71  1180.25  1180.59  1180.77  1181.08
eigval :     1182.29  1197.23  1217.48  1220.38  1231.63  1233.01
eigval :     1234.65  1235.83  1236.45  1248.11  1261.80  1269.63
eigval :     1286.21  1294.82  1295.18  1295.68  1295.70  1297.08
eigval :     1299.43  1301.44  1308.32  1349.51  1352.28  1359.57
eigval :     1359.69  1359.98  1360.71  1361.91  1362.00  1362.40
eigval :     1362.70  1404.27  1413.71  1414.34  1420.85  1424.51
eigval :     1427.95  1428.10  1428.60  1429.66  1447.89  1455.08
eigval :     1473.04  1473.35  1473.53  1475.26  1487.11  1487.18
eigval :     1487.28  1487.63  1495.22  1504.61  1579.37  1579.45
eigval :     1579.79  1579.85  1593.61  1593.76  1593.94  1594.67
eigval :     1601.62  1602.00  1602.06  1602.48  1614.61  1614.78
eigval :     1615.19  1616.80  2369.05  2369.59  3076.84  3077.06
eigval :     3079.13  3079.33  3079.67  3079.79  3079.91  3080.03
eigval :     3084.31  3084.41  3084.62  3084.70  3085.21  3085.38
eigval :     3085.55  3085.62  3092.04  3092.41  3092.51  3092.66
eigval :     3094.25  3094.43  3094.46  3094.52  3100.13  3100.33
eigval :     3100.34  3100.44  3101.83  3101.83  3102.04  3102.45

   temp. (K)  partition function   enthalpy   heat capacity  entropy
                                   cal/mol     cal/K/mol   cal/K/mol   J/K/mol
 298.15  VIB  0.203E+21            27891.211    178.895    171.116
         ROT  0.462E+08              888.752      2.981     38.055
         INT  0.939E+28            28779.963    181.876    209.171
         TR   0.214E+29             1481.254      4.968     45.854
         TOT                       30261.2174   186.8443   255.0251  1067.0248

       T/K    H(0)-H(T)+PV         H(T)/Eh          T*S/Eh         G(T)/Eh
   ------------------------------------------------------------------------
    298.15    0.482243E-01    0.749731E+00    0.121171E+00    0.628560E+00
   ------------------------------------------------------------------------

         :::::::::::::::::::::::::::::::::::::::::::::::::::::
         ::                  THERMODYNAMIC                  ::
         :::::::::::::::::::::::::::::::::::::::::::::::::::::
         :: total free energy        -153.235603098987 Eh   ::
         ::.................................................::
         :: total energy             -153.864163109398 Eh   ::
         :: zero point energy           0.701506321867 Eh   ::
         :: G(RRHO) w/o ZPVE           -0.072946311456 Eh   ::
         :: G(RRHO) contrib.            0.628560010411 Eh   ::
         :::::::::::::::::::::::::::::::::::::::::::::::::::::

           -------------------------------------------------
          | TOTAL ENERGY             -153.864163109398 Eh   |
          | TOTAL ENTHALPY           -153.114432468000 Eh   |
          | TOTAL FREE ENERGY        -153.235603098987 Eh   |
          | GRADIENT NORM               0.000068326420 Eh/α |
          | HOMO-LUMO GAP               1.658606850619 eV   |
           -------------------------------------------------

 * finished run on 2025/07/16 at 08:36:36.655
