   * xtb version 6.7.1 (edcfbbe) compiled by 'albert@albert-system' on 2024-07-22

   ID    Z sym.   atoms
    1    7 N      1, 5, 19, 34, 36, 50
    2    6 C      2-4, 6-18, 20-33, 35, 37-49, 51-62
    3    1 H      63-94

          program call               : xtb data2507/gas/4CzTPN/4CzTPN_gas_S0_finalOpt.xtbopt.xyz --gfn 2 --spinpol --tblite --uhf 2 --ohess vtight --parallel 40 --molden --ceasefiles --namespace data2507/gas/4CzTPN/4CzTPN_gas_T1_preOpt
 * total energy  :  -153.7868894 Eh     change       -0.4255537E-07 Eh
 * total energy  :  -153.7914823 Eh     change       -0.4592923E-02 Eh
 * total energy  :  -153.7927088 Eh     change       -0.1226521E-02 Eh
 * total energy  :  -153.7927886 Eh     change       -0.7981472E-04 Eh
 * total energy  :  -153.7928582 Eh     change       -0.6952141E-04 Eh
 * total energy  :  -153.7928817 Eh     change       -0.2358570E-04 Eh
 * total energy  :  -153.7929084 Eh     change       -0.2663104E-04 Eh
 * total energy  :  -153.7929219 Eh     change       -0.1353568E-04 Eh
 * total energy  :  -153.7929304 Eh     change       -0.8538100E-05 Eh
 * total energy  :  -153.7929440 Eh     change       -0.1356441E-04 Eh
 * total energy  :  -153.7930188 Eh     change       -0.1010085E-05 Eh
 * total energy  :  -153.7930196 Eh     change       -0.7838830E-06 Eh
 * total energy  :  -153.7930206 Eh     change       -0.9793853E-06 Eh
 * total energy  :  -153.7930214 Eh     change       -0.8299002E-06 Eh
 * total energy  :  -153.7930219 Eh     change       -0.4820815E-06 Eh
 * total energy  :  -153.7930221 Eh     change       -0.1570489E-06 Eh
 * total energy  :  -153.7930220 Eh     change        0.5331518E-07 Eh
 * total energy  :  -153.7930221 Eh     change       -0.1274404E-06 Eh
 * total energy  :  -153.7930222 Eh     change       -0.2238656E-07 Eh
   *** GEOMETRY OPTIMIZATION CONVERGED AFTER 38 ITERATIONS ***

 final structure:
================
94
 xtb: 6.7.1 (edcfbbe)
N            0.00021042891480        3.40293851294634       -2.03201933302439
C            0.00026183222265        2.42978146271306       -1.40659621715346
C            0.00007282546175        1.27628208397784       -0.63672225034231
C           -1.23020148334222        0.61795341112391       -0.31098780796604
N           -2.43904220963892        1.22433095983140       -0.67406717176817
C           -2.90243739410600        2.44040786498971       -0.21433092290442
C           -2.25211486678224        3.40530949363192        0.54166335259698
C           -2.96772313165790        4.52876130021924        0.90815108763645
C           -4.30241650406304        4.68770555118982        0.54631756544721
C           -4.96176888989720        3.72019042959041       -0.19082304221133
C           -4.26171623475619        2.58854999964854       -0.57585339440010
C           -4.62323501971351        1.40259353987722       -1.30593477013538
C           -5.79226823146381        0.96398979203400       -1.90591257424113
C           -5.78300502482562       -0.25517397316044       -2.56154100840266
C           -4.61923367631144       -1.01167811676286       -2.65631385192917
C           -3.44069025581105       -0.59147266021116       -2.06881957805627
C           -3.46276722873272        0.59856670220218       -1.35660032286927
C           -1.23011262949163       -0.61528893877332        0.30958909178888
N           -2.43874651831358       -1.22214769284321        0.67260895055445
C           -3.46259357386342       -0.59725141456332        1.35575747705432
C           -3.44116142075772        0.59288481211849        2.06782486504096
C           -4.61968288572735        1.01198732404936        2.65614108551026
C           -5.78277159410846        0.25430718925907        2.56234916772746
C           -5.79132577414042       -0.96491623473228        1.90684362430440
C           -4.62231324487162       -1.40241730049975        1.30598968752991
C           -4.26019482464782       -2.58809847007314        0.57576839836010
C           -4.95936971392617       -3.72055531918057        0.19148210947247
C           -4.29959328900919       -4.68751312127089       -0.54599097567051
C           -2.96535345040955       -4.52723574240282       -0.90893189851615
C           -2.25061635497075       -3.40299912538342       -0.54315455222013
C           -2.90132817313775       -2.43868810366922        0.21325602104197
C            0.00022732192451       -1.27334426226582        0.63564882764535
C            0.00038827016694       -2.42672791726781        1.40570043025029
N            0.00042795759898       -3.39979778104256        2.03132368609839
C            1.23046836002693       -0.61504832729875        0.30975340427082
N            2.43927602446126       -1.22159770992796        0.67290907905952
C            2.90238128982031       -2.43797796012890        0.21358525740022
C            2.25229026067907       -3.40221978426618       -0.54341571789274
C            2.96739130067523       -4.52633861260637       -0.90884804590289
C            4.30139239324740       -4.68654104777617       -0.54498110183471
C            4.96053633896580       -3.71965779496677        0.19312425605253
C            4.26097553570939       -2.58729700794498        0.57710058115793
C            4.62238093342692       -1.40176701722185        1.30791709939654
C            5.79079607145806       -0.96440998621901        1.91010857965546
C            5.78154559440738        0.25455935249501        2.56603562669663
C            4.61834548766034        1.01221261848779        2.65886734073164
C            3.44041669849756        0.59325005976353        2.06928067767575
C            3.46255145224563       -0.59671520343737        1.35696409630701
C            1.23039565099243        0.61819370627929       -0.31075035900587
N            2.43920444477884        1.22482343562837       -0.67362378805544
C            2.90241365877710        2.44093342222203       -0.21379183871892
C            2.25226434824537        3.40513425264216        0.54323861580641
C            2.96765098823537        4.52873630670315        0.90969194583418
C            4.30192969675058        4.68853887814685        0.54668737595304
C            4.96107489054938        3.72177228795571       -0.19160373903456
C            4.26125840420637        2.58993009458454       -0.57653222163565
C            4.62264971170206        1.40453320403836       -1.30756739271654
C            5.79120420527146        0.96701950331926       -1.90930757315162
C            5.78193372809168       -0.25182291348837       -2.56550796731542
C            4.61861757813941       -1.00921321318570       -2.65892816921112
C            3.44054073021424       -0.59008696641467       -2.06974594935363
C            3.46262827874694        0.59979683236690       -1.35727102658057
H           -1.22024296691871        3.29050013488827        0.83383746665621
H           -2.48132696419192        5.29806835803654        1.48864678791008
H           -4.82915195413769        5.57939642621091        0.85125305225712
H           -6.00020539748218        3.83911549578407       -0.45951232324809
H           -6.68847320865429        1.56364277099435       -1.86397988704709
H           -6.68711169674990       -0.61875183056561       -3.02592330305711
H           -4.63295082201621       -1.94394956735024       -3.20026275030521
H           -2.53304662782953       -1.16585469625651       -2.17458391387595
H           -2.53400358003753        1.16815024693313        2.17291958255157
H           -4.63390899634935        1.94429661708300        3.20000982949354
H           -6.68687969388139        0.61702521589069        3.02739704313369
H           -6.68695278982033       -1.56548418944243        1.86567323155798
H           -5.99744573609036       -3.84055476674571        0.46107457514809
H           -4.82560707142848       -5.57984626932411       -0.85027913376409
H           -2.47862355638241       -5.29611832148523       -1.48970744847202
H           -1.21910508281268       -3.28713654781139       -0.83619075139146
H            1.22097307852484       -3.28638793292471       -0.83714353793183
H            2.48115022833233       -5.29517471927732       -1.49008872341532
H            4.82771193131844       -5.57876325072368       -0.84904567055239
H            5.99841439845062       -3.83962371443254        0.46347397689001
H            6.68646485631278       -1.56495890666708        1.86968822736322
H            6.68514193816539        0.61708819266761        3.03221431376882
H            4.63199866366152        1.94433964335105        3.20305874912704
H            2.53315577498250        1.16847059798764        2.17363100320863
H            1.22073263943430        3.28957930670087        0.83634065371893
H            2.48142316511681        5.29748784071366        1.49106462034466
H            4.82849278779406        5.58034293515916        0.85158709565660
H            5.99917734946616        3.84140970330561       -0.46126899407899
H            6.68703144735820        1.56730368728606       -1.86831038252986
H            6.68566466055554       -0.61451358179745       -3.03131552925873
H            4.63231510960851       -1.94128024210575       -3.20322587200140
H            2.53320159145359       -1.16511807349136       -2.17452800774962

 projected vibrational frequencies (cm⁻¹)
eigval :       -0.00    -0.00    -0.00     0.00     0.00     0.00
eigval :       14.14    18.37    21.02    22.43    28.64    30.29
eigval :       32.70    43.49    48.90    52.82    55.47    65.91
eigval :       76.99    98.27   101.48   102.57   108.35   110.17
eigval :      112.42   115.60   119.30   124.73   129.82   130.80
eigval :      144.77   146.54   163.62   166.32   192.35   193.88
eigval :      194.34   212.07   230.85   247.28   252.49   265.64
eigval :      272.70   273.11   273.67   275.99   295.10   295.93
eigval :      352.83   364.13   371.77   386.87   390.12   396.35
eigval :      397.29   399.64   401.99   403.28   415.30   420.37
eigval :      422.42   424.55   430.49   431.69   436.22   437.90
eigval :      438.23   444.45   456.60   503.72   513.86   515.72
eigval :      515.87   516.49   518.26   533.65   536.53   536.80
eigval :      537.55   538.39   538.49   543.01   543.55   556.02
eigval :      574.64   578.99   583.38   585.65   588.05   595.54
eigval :      602.23   620.74   635.35   643.28   647.77   657.02
eigval :      671.67   672.56   672.81   673.98   707.05   707.23
eigval :      707.48   707.87   722.36   725.50   751.32   753.61
eigval :      755.07   756.52   762.50   764.40   765.58   767.37
eigval :      776.48   776.60   777.31   777.61   782.39   782.72
eigval :      852.10   856.93   856.96   864.09   864.56   873.92
eigval :      874.15   874.23   874.34   889.32   893.76   894.36
eigval :      898.95   899.02   900.92   900.94   901.08   904.09
eigval :      904.17   904.25   904.57   917.96   918.09   918.86
eigval :      919.03   920.63   920.67   920.92   921.08   972.91
eigval :     1007.64  1011.93  1011.96  1014.87  1015.97  1056.96
eigval :     1066.62  1067.62  1068.01  1069.28  1069.67  1071.10
eigval :     1071.61  1071.97  1080.74  1118.00  1140.18  1140.56
eigval :     1142.37  1143.58  1144.70  1145.83  1156.35  1174.73
eigval :     1175.65  1175.98  1177.91  1178.62  1178.66  1178.97
eigval :     1180.93  1188.96  1193.19  1215.90  1222.43  1227.56
eigval :     1229.28  1230.61  1232.32  1233.13  1242.86  1272.52
eigval :     1275.53  1282.71  1283.22  1285.43  1285.64  1291.95
eigval :     1293.53  1298.79  1299.04  1330.47  1342.61  1343.01
eigval :     1344.56  1346.60  1346.98  1353.64  1361.09  1361.21
eigval :     1365.16  1365.93  1372.02  1389.35  1412.24  1412.78
eigval :     1412.84  1415.09  1415.30  1418.67  1425.45  1429.03
eigval :     1462.63  1462.76  1463.08  1463.46  1474.29  1483.20
eigval :     1483.56  1483.66  1483.84  1521.70  1568.95  1569.03
eigval :     1569.42  1569.87  1581.89  1581.99  1582.19  1582.29
eigval :     1583.33  1583.66  1584.41  1585.43  1601.93  1601.99
eigval :     1604.80  1607.76  2251.53  2291.73  3083.33  3083.40
eigval :     3083.52  3083.59  3083.79  3083.86  3083.97  3084.08
eigval :     3087.52  3087.59  3087.71  3087.81  3089.35  3089.62
eigval :     3090.11  3090.25  3094.56  3094.88  3094.90  3095.07
eigval :     3096.93  3096.98  3097.61  3097.80  3101.10  3101.43
eigval :     3101.57  3101.72  3102.00  3102.09  3103.04  3103.57

   temp. (K)  partition function   enthalpy   heat capacity  entropy
                                   cal/mol     cal/K/mol   cal/K/mol   J/K/mol
 298.15  VIB  0.717E+21            28190.437    179.871    173.381
         ROT  0.464E+08              888.752      2.981     38.060
         INT  0.333E+29            29079.189    182.852    211.441
         TR   0.214E+29             1481.254      4.968     45.854
         TOT                       30560.4429   187.8202   257.2952  1076.5232

       T/K    H(0)-H(T)+PV         H(T)/Eh          T*S/Eh         G(T)/Eh
   ------------------------------------------------------------------------
    298.15    0.487012E-01    0.746700E+00    0.122249E+00    0.624450E+00
   ------------------------------------------------------------------------

         :::::::::::::::::::::::::::::::::::::::::::::::::::::
         ::                  THERMODYNAMIC                  ::
         :::::::::::::::::::::::::::::::::::::::::::::::::::::
         :: total free energy        -153.168571790686 Eh   ::
         ::.................................................::
         :: total energy             -153.793022173032 Eh   ::
         :: zero point energy           0.697998477233 Eh   ::
         :: G(RRHO) w/o ZPVE           -0.073548094888 Eh   ::
         :: G(RRHO) contrib.            0.624450382346 Eh   ::
         :::::::::::::::::::::::::::::::::::::::::::::::::::::

           -------------------------------------------------
          | TOTAL ENERGY             -153.793022173032 Eh   |
          | TOTAL ENTHALPY           -153.046322530063 Eh   |
          | TOTAL FREE ENERGY        -153.168571790686 Eh   |
          | GRADIENT NORM               0.000131119611 Eh/α |
           -------------------------------------------------

 * finished run on 2025/07/16 at 08:42:27.961
