   * xtb version 6.7.1 (edcfbbe) compiled by 'albert@albert-system' on 2024-07-22

   ID    Z sym.   atoms
    1    6 C      1-4, 6-35, 37-68
    2    7 N      5, 36
    3    1 H      69-112

          program call               : xtb data2507/toluene/p-TPA-AP-TPA/p-TPA-AP-TPA_toluene_S0_crest.xyz --gfn 2 --gbsa toluene --ohess vtight --parallel 40 --molden --ceasefiles --namespace data2507/toluene/p-TPA-AP-TPA/p-TPA-AP-TPA_toluene_S0_finalOpt
      * Solvation model:               GBSA
        Solvent                        toluene
        Solvent mass                       9.2140E+01 g/mol
          :  Hamiltonian                  GFN2-xTB          :
 * total energy  :  -169.7349642 Eh     change       -0.2225761E-08 Eh
 * total energy  :  -169.7350084 Eh     change       -0.4425255E-04 Eh
 * total energy  :  -169.7350420 Eh     change       -0.3360027E-04 Eh
 * total energy  :  -169.7350594 Eh     change       -0.1739318E-04 Eh
 * total energy  :  -169.7350754 Eh     change       -0.1596035E-04 Eh
 * total energy  :  -169.7350811 Eh     change       -0.5663116E-05 Eh
 * total energy  :  -169.7350864 Eh     change       -0.5384735E-05 Eh
 * total energy  :  -169.7350922 Eh     change       -0.5776676E-05 Eh
 * total energy  :  -169.7350976 Eh     change       -0.5395763E-05 Eh
 * total energy  :  -169.7351030 Eh     change       -0.5342367E-05 Eh
 * total energy  :  -169.7351372 Eh     change       -0.3618854E-06 Eh
 * total energy  :  -169.7351376 Eh     change       -0.3855501E-06 Eh
 * total energy  :  -169.7351381 Eh     change       -0.4682416E-06 Eh
 * total energy  :  -169.7351386 Eh     change       -0.5225766E-06 Eh
 * total energy  :  -169.7351387 Eh     change       -0.1307938E-06 Eh
 * total energy  :  -169.7351390 Eh     change       -0.2332661E-06 Eh
 * total energy  :  -169.7351389 Eh     change        0.1131791E-06 Eh
 * total energy  :  -169.7351391 Eh     change       -0.2005828E-06 Eh
 * total energy  :  -169.7351392 Eh     change       -0.8653663E-07 Eh
   *** GEOMETRY OPTIMIZATION CONVERGED AFTER 48 ITERATIONS ***

 final structure:
================
112
 xtb: 6.7.1 (edcfbbe)
C          -12.74799166920091        2.88344169355087        1.36686843598264
C          -11.46781200145114        2.78683839307441        1.88819354290805
C          -10.65209067975170        1.72448191588237        1.54943361801153
C          -11.10569912924687        0.74114035207734        0.66978960279040
N          -10.28063076924676       -0.33417679270754        0.31959310786870
C          -10.82819701898882       -1.61069363188150        0.14162888571595
C          -10.35044665738491       -2.45092927436357       -0.86439853214204
C          -10.88849079409442       -3.71212142305906       -1.03341707814319
C          -11.91381987131719       -4.15365625051222       -0.21256674162263
C          -12.39580654016939       -3.32138231668204        0.78502698462289
C          -11.85782559119943       -2.06190518599242        0.96761261212533
C           -8.90641315668194       -0.13520175629930        0.14569260331528
C           -7.99198637577785       -1.10637735667550        0.55511544217188
C           -6.63800467449510       -0.91196058460998        0.37401063132893
C           -6.15451898370708        0.25888333202324       -0.20465843361870
C           -4.70181853373198        0.46180986364635       -0.38751710250527
C           -4.00328655299771       -0.30870360467286       -1.32932529188929
C           -4.65907030309643       -1.26093945147329       -2.15392668347449
C           -3.96996230955160       -2.00225190698125       -3.06399440287115
C           -2.57822038562249       -1.83389174456406       -3.21292377233685
C           -1.91394371327148       -0.91894291841956       -2.45584245658701
C           -2.59534326424215       -0.12455367436371       -1.49608116662697
C           -1.92093103637606        0.83091498786680       -0.72407899482411
C           -0.46735743695251        1.04094089772600       -0.91949375948861
C           -0.03566329869201        2.07160426700628       -1.74651099904689
C            1.30869328462265        2.28976720841073       -1.97205236073581
C            2.27314050553075        1.48061611795673       -1.36865406573636
C            3.66737204982592        1.65871558617798       -1.59977347585636
C            4.58823327823468        0.87335849986323       -0.99418788639884
C            4.20542590180795       -0.16343445941366       -0.09127797437480
C            5.14528796561868       -0.98271564751198        0.56136581750573
C            6.59416642194968       -0.75159348068828        0.45286011902171
C            7.44973420902128       -1.78853476408830        0.08541459941081
C            8.81265666061358       -1.59213978369747        0.00615659921581
C            9.36730120329513       -0.34941633989330        0.31546832081001
N           10.74909334920517       -0.14771306303797        0.24328839749904
C           11.25581913635027        1.07847268780690       -0.20446737241436
C           10.62519753141529        1.76913889721302       -1.23963541785929
C           11.12581090377066        2.98099539913047       -1.67508957120413
C           12.26357502526749        3.51976378359243       -1.09596344948837
C           12.89670843333178        2.83575496043703       -0.07058129288730
C           12.39860986830839        1.62743959312398        0.37756721462614
C           11.62686079185822       -1.17054873746514        0.62403912085369
C           12.81192864599463       -1.38467614160386       -0.08002914551042
C           13.67722944668211       -2.39148550062675        0.30287493764789
C           13.37469570856673       -3.20452764005593        1.38344168931007
C           12.19688037977190       -2.99878251201675        2.08384545262631
C           11.32925644199011       -1.98929911714849        1.71363948303360
C            8.51631820590201        0.68679686776985        0.70293449475427
C            7.15302398061072        0.48741764341659        0.76441026936472
C            4.69971051039162       -2.03729500355174        1.35496576112941
C            3.35594786100252       -2.27243709189507        1.55311421601688
C            2.39470676540739       -1.45396140404749        0.95686469329120
C            0.99925599219748       -1.65072005407374        1.16583588796205
C            0.07961589322453       -0.85380438266232        0.57482209589184
C            0.47337581521300        0.21044925365305       -0.28936346916992
C            1.85600835529658        0.43232130535242       -0.51173875391768
C            2.82089077908665       -0.39500865794181        0.11732218186567
C           -2.61797831660289        1.60459857746186        0.21280806932515
C           -1.95549698126640        2.56790211018110        1.01893546710790
C           -2.63503573256573        3.30374455507241        1.93993160168257
C           -4.02031633571320        3.11238872871745        2.11887798150920
C           -4.69083091325993        2.19527567544990        1.36930064022727
C           -4.02469226643011        1.41589563936378        0.38664360830277
C           -7.06884394730139        1.22980078011574       -0.60483222006916
C           -8.42539231720298        1.03607848955381       -0.44042454759145
C          -12.39362775691104        0.84635256797085        0.14391653341328
C          -13.20539453261378        1.90749457753843        0.49594986966862
H          -13.38439579407006        3.71262654089715        1.63723198042978
H          -11.10384128541641        3.53995177026333        2.57218635511370
H           -9.65852291801574        1.64668096216114        1.96658291214426
H           -9.55787712049504       -2.10567613704230       -1.51247256023236
H          -10.51008165543711       -4.35108205136169       -1.81827353031313
H          -12.33423884340647       -5.13871042601315       -0.34935209355886
H          -13.19173382874984       -3.65867140458880        1.43321245910615
H          -12.22907026115560       -1.41936867218852        1.75292052763074
H           -8.35167609927894       -2.01383559887046        1.01801039546008
H           -5.93946581453932       -1.66979397891829        0.69915228998519
H           -5.72667494740424       -1.38432233539235       -2.04772621071868
H           -4.48478618026095       -2.72236291509958       -3.68368225943116
H           -2.04654674286036       -2.43239115646610       -3.93855721906267
H           -0.84932730144856       -0.77982333321525       -2.57549595606334
H           -0.77321579933685        2.70317117597995       -2.22217556004466
H            1.62439455281013        3.09156511993233       -2.62450615900329
H            3.97426322791723        2.43857542266241       -2.28291984136909
H            5.63905821446707        1.01233188956851       -1.20008425200358
H            7.03482758159244       -2.75354288914547       -0.16820345796509
H            9.45974292941382       -2.40157386180377       -0.29926896642728
H            9.74381317780576        1.34655021558806       -1.70002556214224
H           10.62838002762498        3.50389905281368       -2.47920923569276
H           12.65394424804495        4.46542256125082       -1.44108983878759
H           13.78146728188195        3.25021525516351        0.39076494901183
H           12.88922619074784        1.10117223122136        1.18359091971269
H           13.04619020127251       -0.75811863408543       -0.92849536154978
H           14.59060315481848       -2.54764980990809       -0.25272481247244
H           14.05154727240065       -3.99279741408039        1.67729354795118
H           11.95520679088622       -3.62347977109809        2.93164299840464
H           10.41645735983414       -1.82461501876693        2.26775308532426
H            8.93446996235537        1.64847653603537        0.96294764351962
H            6.51064566109806        1.29387656231892        1.08815606230168
H            5.43171701286984       -2.66461982657889        1.84426157504400
H            3.03572296105837       -3.08869618486344        2.18519495767408
H            0.69140608006550       -2.45830416594788        1.81542069642917
H           -0.97610157691248       -1.00995778769611        0.74364549249361
H           -0.89154605026070        2.70208153328636        0.88744783126545
H           -2.11822527306390        4.03335230605927        2.54660039718613
H           -4.54315087352607        3.69722983168761        2.86197730095519
H           -5.74959278431327        2.04185003498111        1.51629964210553
H           -6.70904963133398        2.13899340959984       -1.06520187565402
H           -9.12394170920705        1.79222349099787       -0.76826896994683
H          -12.75013784731067        0.09235723370277       -0.54293450718331
H          -14.20002304982450        1.97702027033841        0.07965482144437

          :  Hamiltonian                  GFN2-xTB          :
         :: gradient norm              0.000037909659 Eh/a0 ::
         :: HOMO-LUMO gap              1.870709704482 eV    ::
         :: SCC energy              -173.015111384002 Eh    ::
         :: -> dispersion             -0.165951243358 Eh    ::
         :: -> Gsolv                  -0.067560497209 Eh    ::
         :: repulsion energy           3.279972228422 Eh    ::

    * Orbital Energies and Occupations

         #    Occupation            Energy/Eh            Energy/eV
      -------------------------------------------------------------
         1        2.0000           -0.6643947             -18.0791
       ...           ...                  ...                  ...
       147        2.0000           -0.4046622             -11.0114
       148        2.0000           -0.4045720             -11.0090
       149        2.0000           -0.4043026             -11.0016
       150        2.0000           -0.4033087             -10.9746
       151        2.0000           -0.4009290             -10.9098
       152        2.0000           -0.3992869             -10.8651
       153        2.0000           -0.3979067             -10.8276
       154        2.0000           -0.3970795             -10.8051
       155        2.0000           -0.3896015             -10.6016
       156        2.0000           -0.3627449              -9.8708
       157        2.0000           -0.3583545              -9.7513
       158        2.0000           -0.3481801              -9.4745
       159        2.0000           -0.3475376              -9.4570 (HOMO)
       160                         -0.2787903              -7.5863 (LUMO)
       161                         -0.2755256              -7.4974
       162                         -0.2420642              -6.5869
       163                         -0.2307605              -6.2793
       164                         -0.2304103              -6.2698
       165                         -0.2303003              -6.2668
       166                         -0.2301593              -6.2630
       167                         -0.2299288              -6.2567
       168                         -0.2273518              -6.1866
       169                         -0.2272805              -6.1846
       170                         -0.2221759              -6.0457
       ...                                ...                  ...
       316                          0.7307749              19.8854
      -------------------------------------------------------------
                  HL-Gap            0.0687473 Eh            1.8707 eV

     #   Z          covCN         q      C6AA      α(0)
     1   6 C        2.919    -0.040    28.986     8.829
     2   6 C        2.919    -0.030    28.758     8.794
     3   6 C        2.922    -0.048    29.196     8.861
     4   6 C        2.923     0.066    26.528     8.446
     5   7 N        2.752    -0.080    22.804     7.092
     6   6 C        2.923     0.066    26.528     8.446
     7   6 C        2.922    -0.048    29.191     8.860
     8   6 C        2.919    -0.030    28.757     8.794
     9   6 C        2.919    -0.039    28.981     8.828
    10   6 C        2.919    -0.030    28.756     8.794
    11   6 C        2.922    -0.048    29.194     8.861
    12   6 C        2.923     0.064    26.568     8.453
    13   6 C        2.921    -0.049    29.212     8.863
    14   6 C        2.923    -0.033    28.815     8.803
    15   6 C        2.976     0.007    27.866     8.659
    16   6 C        2.976    -0.006    28.168     8.706
    17   6 C        2.983     0.005    27.913     8.666
    18   6 C        2.917    -0.035    28.872     8.811
    19   6 C        2.914    -0.031    28.779     8.797
    20   6 C        2.914    -0.031    28.775     8.796
    21   6 C        2.917    -0.034    28.841     8.807
    22   6 C        2.984     0.006    27.891     8.663
    23   6 C        2.978    -0.004    28.122     8.699
    24   6 C        2.977     0.007    27.855     8.657
    25   6 C        2.919    -0.034    28.856     8.809
    26   6 C        2.918    -0.039    28.979     8.828
    27   6 C        2.982     0.007    27.851     8.657
    28   6 C        2.913    -0.039    28.957     8.824
    29   6 C        2.912    -0.037    28.916     8.818
    30   6 C        2.982     0.005    27.902     8.665
    31   6 C        2.975     0.002    27.970     8.675
    32   6 C        2.976     0.003    27.946     8.671
    33   6 C        2.924    -0.035    28.860     8.810
    34   6 C        2.920    -0.049    29.212     8.863
    35   6 C        2.923     0.064    26.564     8.452
    36   7 N        2.752    -0.080    22.788     7.090
    37   6 C        2.923     0.066    26.529     8.447
    38   6 C        2.922    -0.048    29.190     8.860
    39   6 C        2.919    -0.030    28.756     8.794
    40   6 C        2.919    -0.039    28.980     8.828
    41   6 C        2.919    -0.030    28.755     8.794
    42   6 C        2.922    -0.048    29.194     8.861
    43   6 C        2.923     0.066    26.529     8.447
    44   6 C        2.922    -0.048    29.190     8.860
    45   6 C        2.919    -0.030    28.755     8.794
    46   6 C        2.919    -0.039    28.977     8.827
    47   6 C        2.919    -0.030    28.756     8.794
    48   6 C        2.922    -0.048    29.190     8.860
    49   6 C        2.920    -0.049    29.221     8.865
    50   6 C        2.923    -0.033    28.825     8.805
    51   6 C        2.921    -0.037    28.909     8.817
    52   6 C        2.918    -0.039    28.966     8.826
    53   6 C        2.982     0.008    27.841     8.655
    54   6 C        2.913    -0.037    28.926     8.819
    55   6 C        2.913    -0.035    28.861     8.809
    56   6 C        2.984     0.006    27.885     8.662
    57   6 C        2.995     0.001    27.999     8.680
    58   6 C        2.995     0.001    27.992     8.679
    59   6 C        2.984     0.005    27.898     8.664
    60   6 C        2.917    -0.034    28.848     8.808
    61   6 C        2.914    -0.031    28.776     8.796
    62   6 C        2.914    -0.031    28.779     8.797
    63   6 C        2.917    -0.035    28.873     8.811
    64   6 C        2.983     0.005    27.910     8.666
    65   6 C        2.923    -0.033    28.817     8.803
    66   6 C        2.921    -0.049    29.212     8.863
    67   6 C        2.922    -0.048    29.200     8.861
    68   6 C        2.919    -0.030    28.757     8.794
    69   1 H        0.926     0.031     2.568     2.506
    70   1 H        0.926     0.033     2.546     2.495
    71   1 H        0.926     0.030     2.579     2.511
    72   1 H        0.926     0.031     2.579     2.511
    73   1 H        0.926     0.033     2.544     2.494
    74   1 H        0.926     0.031     2.565     2.505
    75   1 H        0.926     0.033     2.546     2.495
    76   1 H        0.926     0.031     2.571     2.508
    77   1 H        0.926     0.032     2.556     2.500
    78   1 H        0.926     0.032     2.552     2.498
    79   1 H        0.926     0.031     2.570     2.507
    80   1 H        0.926     0.030     2.592     2.518
    81   1 H        0.926     0.029     2.600     2.521
    82   1 H        0.926     0.029     2.606     2.525
    83   1 H        0.925     0.028     2.609     2.526
    84   1 H        0.926     0.032     2.556     2.500
    85   1 H        0.925     0.031     2.576     2.510
    86   1 H        0.926     0.034     2.531     2.488
    87   1 H        0.926     0.034     2.532     2.488
    88   1 H        0.926     0.032     2.558     2.501
    89   1 H        0.926     0.031     2.573     2.508
    90   1 H        0.926     0.033     2.542     2.493
    91   1 H        0.926     0.032     2.564     2.504
    92   1 H        0.926     0.033     2.545     2.495
    93   1 H        0.926     0.031     2.572     2.508
    94   1 H        0.926     0.031     2.569     2.507
    95   1 H        0.926     0.033     2.543     2.494
    96   1 H        0.926     0.032     2.562     2.503
    97   1 H        0.926     0.033     2.542     2.493
    98   1 H        0.926     0.031     2.568     2.506
    99   1 H        0.926     0.032     2.559     2.502
   100   1 H        0.926     0.035     2.520     2.483
   101   1 H        0.926     0.031     2.568     2.506
   102   1 H        0.926     0.032     2.560     2.502
   103   1 H        0.926     0.031     2.579     2.511
   104   1 H        0.926     0.029     2.607     2.525
   105   1 H        0.926     0.029     2.598     2.520
   106   1 H        0.926     0.029     2.597     2.520
   107   1 H        0.926     0.030     2.593     2.518
   108   1 H        0.926     0.031     2.569     2.506
   109   1 H        0.926     0.033     2.547     2.495
   110   1 H        0.926     0.032     2.554     2.499
   111   1 H        0.926     0.031     2.574     2.509
   112   1 H        0.926     0.033     2.548     2.496

molecular dipole:
                 x           y           z       tot (Debye)
 q only:        0.113      -0.028       0.029
   full:        0.111      -0.037       0.036       0.311

 projected vibrational frequencies (cm⁻¹)
eigval :       -0.00    -0.00     0.00     0.00     0.00     0.00
eigval :        5.54     7.49     7.73    13.61    15.24    17.13
eigval :       20.86    33.55    34.65    43.78    44.28    47.66
eigval :       51.08    57.35    60.81    65.47    68.98    71.58
eigval :       75.34    78.18    87.06    96.22   106.24   107.25
eigval :      114.61   119.31   147.54   158.54   163.13   178.84
eigval :      182.87   185.86   197.22   205.19   210.40   225.90
eigval :      231.01   232.01   235.88   241.04   273.07   288.47
eigval :      306.48   312.12   317.75   319.37   337.87   349.01
eigval :      354.05   364.16   375.81   376.26   377.64   378.29
eigval :      380.65   385.82   387.72   389.59   392.52   399.04
eigval :      405.07   410.45   413.42   417.63   422.33   445.15
eigval :      457.10   458.31   470.03   477.66   483.04   485.01
eigval :      488.64   491.06   497.46   498.85   509.53   515.92
eigval :      526.19   551.06   565.53   575.37   580.54   583.26
eigval :      584.34   585.75   587.43   588.85   593.68   596.28
eigval :      602.55   606.82   611.36   626.66   643.53   647.36
eigval :      652.58   652.92   655.10   659.43   659.62   665.18
eigval :      669.47   679.12   686.84   688.97   691.90   693.29
eigval :      701.00   721.30   735.33   740.14   744.01   755.60
eigval :      756.03   757.90   759.45   760.60   772.57   774.07
eigval :      801.00   805.53   812.17   816.76   825.88   842.80
eigval :      845.65   852.09   869.69   872.73   872.99   873.14
eigval :      874.22   875.10   875.93   876.09   888.80   889.88
eigval :      890.28   892.09   896.56   896.83   909.32   909.35
eigval :      913.07   913.68   914.37   914.70   915.94   917.20
eigval :      919.31   923.01   924.07   924.80   925.05   925.60
eigval :      926.40   927.52   927.73   928.07   928.71   928.98
eigval :      929.57   929.61   931.52   941.81   942.80   961.84
eigval :      985.93   987.71   995.95  1003.85  1003.93  1020.27
eigval :     1026.28  1077.75  1079.33  1081.13  1081.66  1081.83
eigval :     1082.84  1082.88  1110.44  1120.18  1120.24  1122.34
eigval :     1122.47  1133.23  1136.75  1139.02  1144.34  1155.34
eigval :     1164.55  1178.25  1178.45  1178.86  1179.50  1180.15
eigval :     1181.16  1183.44  1184.92  1185.00  1191.80  1193.73
eigval :     1193.98  1195.29  1196.85  1206.11  1207.53  1215.00
eigval :     1221.08  1226.42  1227.29  1238.00  1254.23  1260.55
eigval :     1262.55  1269.13  1270.92  1276.77  1276.99  1278.57
eigval :     1279.88  1287.52  1304.04  1307.39  1308.97  1311.43
eigval :     1313.87  1314.14  1315.01  1321.27  1322.28  1324.45
eigval :     1324.96  1328.80  1330.03  1348.19  1358.88  1375.31
eigval :     1380.37  1383.33  1384.11  1404.07  1405.59  1410.23
eigval :     1415.89  1421.15  1427.87  1434.16  1434.34  1440.90
eigval :     1441.12  1445.05  1450.53  1470.11  1470.35  1473.04
eigval :     1473.17  1475.00  1481.18  1494.01  1498.94  1504.44
eigval :     1524.67  1527.97  1530.70  1541.38  1553.26  1554.38
eigval :     1561.32  1563.71  1575.44  1575.52  1579.38  1579.43
eigval :     1590.96  1591.41  1591.55  1592.55  1598.64  1599.93
eigval :     1603.16  1606.19  1607.17  1621.47  3063.83  3064.25
eigval :     3065.56  3066.36  3068.72  3068.84  3070.26  3070.61
eigval :     3070.87  3071.11  3071.29  3071.42  3071.69  3072.14
eigval :     3072.46  3072.65  3073.49  3074.40  3074.76  3074.97
eigval :     3076.48  3077.87  3081.04  3081.12  3082.02  3082.30
eigval :     3082.31  3083.12  3083.17  3084.31  3084.43  3084.46
eigval :     3084.86  3084.98  3085.14  3087.25  3087.57  3090.19
eigval :     3090.35  3092.64  3093.00  3093.03  3093.91  3094.06

   temp. (K)  partition function   enthalpy   heat capacity  entropy
                                   cal/mol     cal/K/mol   cal/K/mol   J/K/mol
 298.15  VIB  0.351E+27            31951.805    201.392    201.912
         ROT  0.321E+09              888.752      2.981     41.906
         INT  0.113E+36            32840.558    204.373    243.818
         TR   0.246E+29             1481.254      4.968     46.129
         TOT                       34321.8115   209.3415   289.9466  1213.1366

       T/K    H(0)-H(T)+PV         H(T)/Eh          T*S/Eh         G(T)/Eh
   ------------------------------------------------------------------------
    298.15    0.546953E-01    0.923214E+00    0.137763E+00    0.785451E+00
   ------------------------------------------------------------------------

         :::::::::::::::::::::::::::::::::::::::::::::::::::::
         ::                  THERMODYNAMIC                  ::
         :::::::::::::::::::::::::::::::::::::::::::::::::::::
         :: total free energy        -168.949688255575 Eh   ::
         ::.................................................::
         :: total energy             -169.735139163069 Eh   ::
         :: zero point energy           0.868518604042 Eh   ::
         :: G(RRHO) w/o ZPVE           -0.083067696548 Eh   ::
         :: G(RRHO) contrib.            0.785450907494 Eh   ::
         :::::::::::::::::::::::::::::::::::::::::::::::::::::

           -------------------------------------------------
          | TOTAL ENERGY             -169.735139163069 Eh   |
          | TOTAL ENTHALPY           -168.811925270823 Eh   |
          | TOTAL FREE ENERGY        -168.949688255575 Eh   |
          | GRADIENT NORM               0.000037944611 Eh/α |
          | HOMO-LUMO GAP               1.870710400064 eV   |
           -------------------------------------------------

 * finished run on 2025/09/03 at 21:14:38.241
