   * xtb version 6.7.1 (edcfbbe) compiled by 'albert@albert-system' on 2024-07-22

   ID    Z sym.   atoms
    1    6 C      1-4, 6-35, 37-68
    2    7 N      5, 36
    3    1 H      69-112

          program call               : xtb data2507/toluene/p-TPA-AP-TPA/p-TPA-AP-TPA_toluene_S0_finalOpt.xtbopt.xyz --gfn 2 --uhf 2 --gbsa toluene --ohess vtight --parallel 40 --molden --ceasefiles --namespace data2507/toluene/p-TPA-AP-TPA/p-TPA-AP-TPA_toluene_T1_preOpt
      * Solvation model:               GBSA
        Solvent                        toluene
        Solvent mass                       9.2140E+01 g/mol
          :  Hamiltonian                  GFN2-xTB          :
 * total energy  :  -169.6616574 Eh     change       -0.3748255E-09 Eh
 * total energy  :  -169.6651408 Eh     change       -0.3483434E-02 Eh
 * total energy  :  -169.6667756 Eh     change       -0.1634755E-02 Eh
 * total energy  :  -169.6671893 Eh     change       -0.4137357E-03 Eh
 * total energy  :  -169.6678564 Eh     change       -0.6671099E-03 Eh
 * total energy  :  -169.6682920 Eh     change       -0.4356406E-03 Eh
 * total energy  :  -169.6687769 Eh     change       -0.4848339E-03 Eh
 * total energy  :  -169.6693009 Eh     change       -0.5240014E-03 Eh
 * total energy  :  -169.6697084 Eh     change       -0.4074750E-03 Eh
 * total energy  :  -169.6699833 Eh     change       -0.2749249E-03 Eh
 * total energy  :  -169.6721495 Eh     change       -0.7935221E-06 Eh
 * total energy  :  -169.6721501 Eh     change       -0.6563610E-06 Eh
 * total energy  :  -169.6721507 Eh     change       -0.5858820E-06 Eh
 * total energy  :  -169.6721512 Eh     change       -0.5318156E-06 Eh
 * total energy  :  -169.6721517 Eh     change       -0.4618600E-06 Eh
 * total energy  :  -169.6721522 Eh     change       -0.4764422E-06 Eh
 * total energy  :  -169.6721527 Eh     change       -0.5380679E-06 Eh
 * total energy  :  -169.6721533 Eh     change       -0.5774710E-06 Eh
 * total energy  :  -169.6721533 Eh     change       -0.4646836E-08 Eh
   *** GEOMETRY OPTIMIZATION CONVERGED AFTER 94 ITERATIONS ***

 final structure:
================
112
 xtb: 6.7.1 (edcfbbe)
C          -12.91075658614879        2.76949877840396        1.02058562383893
C          -11.65129467566323        2.73877243979256        1.59802349627830
C          -10.78649464802507        1.69382731830702        1.33594362622803
C          -11.17078891425569        0.66194275269528        0.47875248982345
N          -10.29866317320790       -0.39983572732404        0.20949505026037
C          -10.80440075140495       -1.69912325400448        0.07090813971709
C          -10.27586599074125       -2.56230125487123       -0.88933064955054
C          -10.77364174038888       -3.84432843663569       -1.02084507288800
C          -11.80621085089069       -4.28287972294210       -0.20705898455897
C          -12.33774849245743       -3.42743245626929        0.74504357560358
C          -11.84227049353768       -2.14574352134719        0.88904160918555
C           -8.92895120098867       -0.17015920142197        0.08823776472736
C           -8.00446226399708       -1.11226439228523        0.54984061454890
C           -6.65281375474751       -0.88463480189887        0.42729762645660
C           -6.16292734897092        0.29659033079766       -0.14304313164851
C           -4.72710857363834        0.53708598321072       -0.25087135335907
C           -3.90264982134794       -0.39302471921272       -0.94302945854181
C           -4.45512750025999       -1.48555608689499       -1.63730497394542
C           -3.67230954313580       -2.34535171277595       -2.37804647718775
C           -2.30690464976769       -2.11450767974983       -2.48838279974131
C           -1.73967807829107       -1.03391409056246       -1.84474856716894
C           -2.49733645382711       -0.17304394488306       -1.03512175977318
C           -1.90881237214085        0.97757788973904       -0.42064884728607
C           -0.48826485130818        1.21840877542891       -0.52051818675621
C           -0.03706836395213        2.42350206293835       -1.08985817834171
C            1.28917187476386        2.65521040305146       -1.33021120397054
C            2.27208667459338        1.71329178388613       -0.95506776105110
C            3.64091541093194        1.91033725765482       -1.22078652738542
C            4.58154260432280        1.00613865074144       -0.81326953451262
C            4.22118314169162       -0.15038751171197       -0.08111966050476
C            5.18019631519458       -1.08245619356374        0.39085038633556
C            6.61958245902596       -0.83744026547525        0.29516352022559
C            7.48015693725884       -1.82938821614465       -0.18171029401317
C            8.84033955010798       -1.62242046471931       -0.25045044068936
C            9.39670113374596       -0.41582134206175        0.18094240503531
N           10.77533080846415       -0.20403580011850        0.12080187720479
C           11.27721404234643        1.06875245494411       -0.17885767142601
C           10.63880457913090        1.87703387379693       -1.12005944383500
C           11.13465517013763        3.13366174068512       -1.40931015471829
C           12.27449896305400        3.60161167595009       -0.77508330893226
C           12.91580017113408        2.80057147391430        0.15637440022920
C           12.42311295985199        1.54558064734005        0.45834765836478
C           11.65971871059078       -1.26273544081614        0.36326685227957
C           12.83847185017941       -1.38197501190480       -0.37346570572665
C           13.70971069188414       -2.42579846362783       -0.12807475868866
C           13.41950012014698       -3.36895088207358        0.84493235461224
C           12.24879708763430       -3.25644338281923        1.57792875507829
C           11.37513205624184       -2.21173477031519        1.34566098371878
C            8.54462762965568        0.57263876937716        0.68010370035722
C            7.18381145280742        0.36561367766217        0.72894233854006
C            4.74404266842241       -2.26212846517897        0.99752440413522
C            3.41062290148721       -2.51036657526583        1.21646438881859
C            2.43287558869327       -1.58169710366990        0.81591065766290
C            1.05896805067261       -1.77865996070250        1.07722632192621
C            0.12189195211723       -0.88054264040609        0.65501110726476
C            0.48452367066962        0.26941351902902       -0.08140103521910
C            1.86263724661518        0.52436981261526       -0.29940814716288
C            2.84071149287267       -0.40309849800758        0.14268258542430
C           -2.74667042683530        1.92277137723524        0.24875467724607
C           -2.20215570527939        3.01387261807238        0.94496679406652
C           -2.99666691405700        3.90322802843955        1.64165003457349
C           -4.36749637851545        3.69521775115346        1.71169795654584
C           -4.92723322999970        2.59703983914350        1.09240664071693
C           -4.15311682984940        1.69886212011769        0.33488240114885
C           -7.09595911096459        1.23471307261042       -0.60051424136654
C           -8.44932531422650        1.00580340525453       -0.49669664318689
C          -12.43847763838590        0.69961047291350       -0.10300540568534
C          -13.29886193991875        1.74501597867506        0.17171690216760
H          -13.58492721822158        3.58607923179950        1.23063567067313
H          -11.34269250865895        3.52982287862085        2.26581423122995
H           -9.81068852284108        1.66526893149085        1.79847878232438
H           -9.47889198153978       -2.21725350904998       -1.53195093892119
H          -10.35809280434857       -4.50227735046491       -1.77010060191036
H          -12.19410812224602       -5.28467149720705       -0.31424227436388
H          -13.13928936228245       -3.76306345964702        1.38673230303879
H          -12.25081063603460       -1.48357336061178        1.63846168999269
H           -8.35986123065128       -2.01758342393396        1.02017263753944
H           -5.95264441987664       -1.61011819640633        0.81568526080492
H           -5.52269911061751       -1.64051388569875       -1.60601461030755
H           -4.12602530903999       -3.18140595367757       -2.89046931749845
H           -1.69023948569269       -2.76490523013218       -3.09154717833011
H           -0.68523945019800       -0.84180980483691       -1.97283267841992
H           -0.77514415739200        3.14137583731276       -1.42055821667845
H            1.60109601563832        3.55904936991296       -1.83449181120368
H            3.93935742311514        2.79754126572947       -1.76231155629006
H            5.62036022673923        1.16607913128963       -1.05963951291767
H            7.06632398030308       -2.76240734940913       -0.53602216113766
H            9.48548785668574       -2.39250149331010       -0.64789604834103
H            9.75681329884266        1.50963597502698       -1.62418047492999
H           10.63172385091934        3.74818467608316       -2.14185146017722
H           12.66045725701762        4.58325541173896       -1.00528800216214
H           13.80235870138220        3.15900893681919        0.65897359157406
H           12.91928800667720        0.92736769147671        1.19234682210823
H           13.06207373544448       -0.65406562193778       -1.13977084831644
H           14.61772633271846       -2.50810317936320       -0.70755025169303
H           14.10128713405464       -4.18502269690580        1.03141999111733
H           12.01719237947173       -3.98292504920262        2.34324436050983
H           10.46852972250900       -2.11980549019998        1.92590689608306
H            8.96318367060487        1.50084575094736        1.04136557142356
H            6.54466493092420        1.12948628320687        1.14765328553306
H            5.48353018688509       -2.97185080125804        1.34200180207526
H            3.09850624552627       -3.41567754481763        1.71740490955923
H            0.75894560806390       -2.65952224867831        1.62756634457459
H           -0.92173088868239       -1.04522652727670        0.87951329385095
H           -1.13184719214281        3.15325515199449        0.95091332574793
H           -2.54529436346877        4.74217304865333        2.15115711685975
H           -4.99317163659935        4.37412646202372        2.27309029438426
H           -5.98389047602722        2.41066723126454        1.20753768087587
H           -6.74322443670096        2.13599176171927       -1.08081985264577
H           -9.15143032715135        1.73162147896302       -0.88064571746938
H          -12.73964839739104       -0.09245651725671       -0.77293768235994
H          -14.27668486083121        1.76357151607380       -0.28699293102456

          :  Hamiltonian                  GFN2-xTB          :
         :: gradient norm              0.000047689023 Eh/a0 ::
         :: HOMO-LUMO gap              0.409586619808 eV    ::
         :: SCC energy              -172.932916068590 Eh    ::
         :: -> dispersion             -0.166526842236 Eh    ::
         :: -> Gsolv                  -0.067892486715 Eh    ::
         :: repulsion energy           3.260762784175 Eh    ::

    * Orbital Energies and Occupations

         #    Occupation            Energy/Eh            Energy/eV
      -------------------------------------------------------------
         1        2.0000           -0.6699921             -18.2314
       ...           ...                  ...                  ...
       148        2.0000           -0.4027213             -10.9586
       149        2.0000           -0.4015550             -10.9269
       150        2.0000           -0.3992790             -10.8649
       151        2.0000           -0.3976282             -10.8200
       152        2.0000           -0.3969027             -10.8003
       153        2.0000           -0.3964871             -10.7890
       154        2.0000           -0.3935981             -10.7103
       155        2.0000           -0.3862126             -10.5094
       156        2.0000           -0.3614813              -9.8364
       157        2.0000           -0.3561645              -9.6917
       158        1.9915           -0.3494082              -9.5079
       159        1.0085           -0.3403671              -9.2619
       160        0.9996           -0.2849927              -7.7550 (HOMO)
       161        0.0004           -0.2699405              -7.3455 (LUMO)
       162                         -0.2374432              -6.4612
       163                         -0.2342463              -6.3742
       164                         -0.2339282              -6.3655
       165                         -0.2325993              -6.3293
       166                         -0.2303314              -6.2676
       167                         -0.2299281              -6.2567
       168                         -0.2288318              -6.2268
       169                         -0.2251779              -6.1274
       170                         -0.2241267              -6.0988
       171                         -0.2237000              -6.0872
       ...                                ...                  ...
       316                          0.7266576              19.7734
      -------------------------------------------------------------
                  HL-Gap            0.0150522 Eh            0.4096 eV

     #   Z          covCN         q      C6AA      α(0)
     1   6 C        2.919    -0.037    28.914     8.818
     2   6 C        2.919    -0.029    28.724     8.789
     3   6 C        2.922    -0.046    29.135     8.852
     4   6 C        2.924     0.065    26.548     8.450
     5   7 N        2.752    -0.065    22.500     7.045
     6   6 C        2.925     0.065    26.549     8.450
     7   6 C        2.922    -0.045    29.123     8.850
     8   6 C        2.919    -0.029    28.721     8.788
     9   6 C        2.919    -0.036    28.905     8.816
    10   6 C        2.919    -0.029    28.721     8.788
    11   6 C        2.922    -0.046    29.134     8.851
    12   6 C        2.924     0.063    26.589     8.456
    13   6 C        2.919    -0.048    29.185     8.859
    14   6 C        2.923    -0.032    28.796     8.800
    15   6 C        2.973     0.010    27.780     8.645
    16   6 C        2.973    -0.016    28.406     8.742
    17   6 C        2.978     0.005    27.901     8.664
    18   6 C        2.921    -0.042    29.037     8.837
    19   6 C        2.914    -0.034    28.846     8.807
    20   6 C        2.915    -0.035    28.861     8.810
    21   6 C        2.921    -0.037    28.933     8.821
    22   6 C        2.977     0.006    27.886     8.662
    23   6 C        2.973    -0.009    28.242     8.717
    24   6 C        2.972     0.002    27.968     8.675
    25   6 C        2.917    -0.034    28.853     8.808
    26   6 C        2.914    -0.044    29.094     8.845
    27   6 C        2.981     0.005    27.907     8.665
    28   6 C        2.914    -0.042    29.031     8.835
    29   6 C        2.914    -0.042    29.033     8.836
    30   6 C        2.980     0.004    27.935     8.670
    31   6 C        2.974    -0.004    28.114     8.697
    32   6 C        2.976     0.006    27.887     8.662
    33   6 C        2.924    -0.035    28.864     8.810
    34   6 C        2.919    -0.048    29.190     8.860
    35   6 C        2.923     0.063    26.586     8.456
    36   7 N        2.752    -0.070    22.605     7.061
    37   6 C        2.924     0.065    26.539     8.448
    38   6 C        2.922    -0.046    29.150     8.854
    39   6 C        2.919    -0.029    28.735     8.790
    40   6 C        2.919    -0.038    28.936     8.821
    41   6 C        2.919    -0.029    28.735     8.790
    42   6 C        2.922    -0.047    29.159     8.855
    43   6 C        2.924     0.065    26.540     8.448
    44   6 C        2.922    -0.047    29.158     8.855
    45   6 C        2.919    -0.029    28.735     8.791
    46   6 C        2.919    -0.038    28.935     8.821
    47   6 C        2.919    -0.029    28.736     8.791
    48   6 C        2.922    -0.046    29.154     8.854
    49   6 C        2.920    -0.048    29.202     8.862
    50   6 C        2.923    -0.033    28.819     8.804
    51   6 C        2.918    -0.037    28.919     8.819
    52   6 C        2.916    -0.044    29.086     8.844
    53   6 C        2.981     0.006    27.875     8.661
    54   6 C        2.915    -0.042    29.035     8.836
    55   6 C        2.915    -0.036    28.904     8.816
    56   6 C        2.980     0.004    27.940     8.670
    57   6 C        2.993    -0.001    28.033     8.685
    58   6 C        2.994    -0.001    28.035     8.685
    59   6 C        2.978     0.005    27.917     8.667
    60   6 C        2.921    -0.040    28.983     8.828
    61   6 C        2.914    -0.035    28.879     8.812
    62   6 C        2.914    -0.034    28.840     8.806
    63   6 C        2.921    -0.042    29.049     8.838
    64   6 C        2.978     0.006    27.887     8.662
    65   6 C        2.922    -0.032    28.801     8.801
    66   6 C        2.919    -0.048    29.184     8.859
    67   6 C        2.922    -0.046    29.145     8.853
    68   6 C        2.919    -0.029    28.723     8.789
    69   1 H        0.926     0.035     2.518     2.482
    70   1 H        0.926     0.036     2.501     2.473
    71   1 H        0.926     0.034     2.528     2.486
    72   1 H        0.926     0.034     2.525     2.485
    73   1 H        0.926     0.036     2.497     2.471
    74   1 H        0.926     0.035     2.513     2.479
    75   1 H        0.926     0.037     2.493     2.469
    76   1 H        0.926     0.035     2.517     2.481
    77   1 H        0.926     0.035     2.518     2.482
    78   1 H        0.926     0.036     2.496     2.471
    79   1 H        0.926     0.030     2.585     2.514
    80   1 H        0.926     0.026     2.643     2.542
    81   1 H        0.926     0.025     2.665     2.553
    82   1 H        0.926     0.026     2.650     2.545
    83   1 H        0.925     0.028     2.612     2.527
    84   1 H        0.926     0.027     2.629     2.536
    85   1 H        0.925     0.026     2.641     2.541
    86   1 H        0.926     0.030     2.582     2.513
    87   1 H        0.926     0.035     2.515     2.480
    88   1 H        0.926     0.034     2.535     2.490
    89   1 H        0.926     0.033     2.543     2.494
    90   1 H        0.926     0.035     2.516     2.480
    91   1 H        0.926     0.034     2.532     2.488
    92   1 H        0.926     0.035     2.512     2.479
    93   1 H        0.926     0.033     2.538     2.491
    94   1 H        0.926     0.033     2.538     2.491
    95   1 H        0.926     0.035     2.512     2.479
    96   1 H        0.926     0.034     2.532     2.488
    97   1 H        0.926     0.035     2.515     2.480
    98   1 H        0.926     0.033     2.537     2.491
    99   1 H        0.926     0.033     2.540     2.492
   100   1 H        0.926     0.036     2.502     2.474
   101   1 H        0.925     0.028     2.610     2.526
   102   1 H        0.926     0.027     2.628     2.535
   103   1 H        0.926     0.026     2.642     2.542
   104   1 H        0.926     0.026     2.643     2.542
   105   1 H        0.926     0.030     2.593     2.518
   106   1 H        0.926     0.025     2.659     2.550
   107   1 H        0.926     0.026     2.646     2.544
   108   1 H        0.926     0.030     2.584     2.514
   109   1 H        0.926     0.037     2.489     2.467
   110   1 H        0.926     0.035     2.514     2.479
   111   1 H        0.926     0.035     2.521     2.483
   112   1 H        0.926     0.036     2.498     2.471

molecular dipole:
                 x           y           z       tot (Debye)
 q only:       -0.533      -0.225       0.123
   full:       -0.522      -0.225       0.122       1.478

 projected vibrational frequencies (cm⁻¹)
eigval :       -0.00    -0.00    -0.00     0.00     0.00     0.00
eigval :        6.08     6.86    12.75    13.62    16.91    19.95
eigval :       29.23    35.03    38.38    44.56    47.18    50.78
eigval :       53.29    59.62    64.18    70.25    72.95    73.89
eigval :       76.13    82.66    92.21   104.21   111.34   118.32
eigval :      121.45   131.14   149.67   163.24   172.57   182.86
eigval :      190.87   194.85   203.65   208.61   225.53   229.21
eigval :      231.63   233.39   243.51   255.80   275.08   287.60
eigval :      305.88   311.96   316.98   322.00   336.32   350.80
eigval :      352.09   359.82   374.30   375.83   377.37   377.83
eigval :      380.77   382.78   385.13   390.23   393.76   400.34
eigval :      401.68   405.10   410.03   417.41   420.91   445.48
eigval :      452.49   459.72   469.01   474.25   481.30   484.61
eigval :      490.34   492.29   497.39   504.07   505.93   514.60
eigval :      525.26   548.86   563.15   571.30   577.70   579.54
eigval :      583.29   584.87   586.63   588.11   593.01   595.84
eigval :      599.97   603.08   609.49   619.26   633.60   640.03
eigval :      641.65   651.64   655.49   659.59   659.84   664.62
eigval :      669.74   673.73   677.45   686.43   689.91   693.76
eigval :      698.07   719.29   726.40   735.34   740.68   753.91
eigval :      757.82   757.87   758.93   761.05   761.52   767.14
eigval :      794.72   800.27   803.45   818.28   819.20   832.87
eigval :      838.20   839.51   858.30   863.21   868.81   872.12
eigval :      873.44   873.78   874.87   875.41   890.03   893.38
eigval :      894.50   894.92   895.75   897.40   898.29   902.72
eigval :      903.57   906.88   908.71   909.33   909.47   911.62
eigval :      912.86   913.23   923.07   926.80   927.10   927.64
eigval :      928.02   928.48   928.66   929.67   930.08   930.36
eigval :      931.01   936.29   938.52   940.53   943.97   959.86
eigval :      984.95   986.60   996.20  1003.54  1003.85  1018.35
eigval :     1022.24  1078.96  1080.81  1081.67  1081.93  1082.98
eigval :     1104.84  1106.84  1119.90  1120.60  1120.89  1121.66
eigval :     1122.66  1123.45  1127.44  1138.35  1140.29  1143.00
eigval :     1150.98  1170.12  1179.01  1179.09  1179.64  1180.41
eigval :     1182.14  1182.72  1183.30  1184.56  1187.25  1190.44
eigval :     1192.95  1194.38  1195.37  1200.48  1203.58  1210.42
eigval :     1215.36  1217.25  1225.94  1238.04  1239.00  1260.17
eigval :     1264.16  1267.61  1269.55  1275.70  1276.88  1279.03
eigval :     1279.79  1292.47  1300.22  1303.52  1306.74  1309.61
eigval :     1312.43  1313.66  1316.23  1318.43  1321.58  1323.42
eigval :     1324.22  1324.56  1327.99  1332.03  1337.04  1339.67
eigval :     1348.97  1364.71  1375.79  1386.51  1391.32  1397.25
eigval :     1404.53  1411.40  1412.29  1416.79  1417.35  1433.48
eigval :     1433.51  1438.39  1440.02  1440.11  1449.87  1465.95
eigval :     1466.97  1467.46  1468.02  1469.82  1473.14  1480.08
eigval :     1487.14  1491.37  1515.47  1519.71  1522.13  1529.35
eigval :     1534.66  1540.76  1542.81  1555.93  1558.72  1564.92
eigval :     1573.29  1573.98  1575.97  1577.95  1578.42  1585.97
eigval :     1587.71  1588.85  1593.96  1595.84  3060.22  3062.51
eigval :     3062.84  3064.86  3066.93  3067.29  3073.02  3073.31
eigval :     3073.52  3073.55  3073.60  3073.98  3074.10  3074.23
eigval :     3074.38  3074.71  3075.00  3075.35  3075.97  3076.03
eigval :     3076.58  3076.91  3082.92  3083.54  3083.69  3083.78
eigval :     3084.33  3084.52  3085.28  3085.81  3086.31  3086.36
eigval :     3086.83  3087.50  3088.22  3088.70  3092.00  3092.81
eigval :     3094.68  3094.97  3095.36  3095.54  3095.68  3096.51

   temp. (K)  partition function   enthalpy   heat capacity  entropy
                                   cal/mol     cal/K/mol   cal/K/mol   J/K/mol
 298.15  VIB  0.407E+26            31822.563    202.656    199.403
         ROT  0.322E+09              888.752      2.981     41.910
         INT  0.131E+35            32711.315    205.637    241.314
         TR   0.246E+29             1481.254      4.968     46.129
         TOT                       34192.5689   210.6051   287.4423  1202.6588

       T/K    H(0)-H(T)+PV         H(T)/Eh          T*S/Eh         G(T)/Eh
   ------------------------------------------------------------------------
    298.15    0.544893E-01    0.920694E+00    0.136573E+00    0.784121E+00
   ------------------------------------------------------------------------

         :::::::::::::::::::::::::::::::::::::::::::::::::::::
         ::                  THERMODYNAMIC                  ::
         :::::::::::::::::::::::::::::::::::::::::::::::::::::
         :: total free energy        -168.888032575017 Eh   ::
         ::.................................................::
         :: total energy             -169.672153284034 Eh   ::
         :: zero point energy           0.866204516888 Eh   ::
         :: G(RRHO) w/o ZPVE           -0.082083807871 Eh   ::
         :: G(RRHO) contrib.            0.784120709017 Eh   ::
         :::::::::::::::::::::::::::::::::::::::::::::::::::::

           -------------------------------------------------
          | TOTAL ENERGY             -169.672153284034 Eh   |
          | TOTAL ENTHALPY           -168.751459440224 Eh   |
          | TOTAL FREE ENERGY        -168.888032575017 Eh   |
          | GRADIENT NORM               0.000047744489 Eh/α |
          | HOMO-LUMO GAP               0.409592036659 eV   |
           -------------------------------------------------

 * finished run on 2025/09/03 at 21:15:00.260
