   * xtb version 6.7.1 (edcfbbe) compiled by 'albert@albert-system' on 2024-07-22

   ID    Z sym.   atoms
    1    6 C      1-4, 6-35, 37-68
    2    7 N      5, 36
    3    1 H      69-112

          program call               : xtb data2507/toluene/p-TPA-AP-TPA/p-TPA-AP-TPA.xyz --gfn 2 --gbsa toluene --ohess vtight --parallel 40 --molden --ceasefiles --namespace data2507/toluene/p-TPA-AP-TPA/p-TPA-AP-TPA_toluene_S0_preOpt
      * Solvation model:               GBSA
        Solvent                        toluene
        Solvent mass                       9.2140E+01 g/mol
          :  Hamiltonian                  GFN2-xTB          :
 * total energy  :  -169.6975803 Eh     change       -0.5569802E-09 Eh
 * total energy  :  -169.7204291 Eh     change       -0.2284881E-01 Eh
 * total energy  :  -169.7290006 Eh     change       -0.8571514E-02 Eh
 * total energy  :  -169.7311506 Eh     change       -0.2149946E-02 Eh
 * total energy  :  -169.7323218 Eh     change       -0.1171221E-02 Eh
 * total energy  :  -169.7329592 Eh     change       -0.6374192E-03 Eh
 * total energy  :  -169.7334064 Eh     change       -0.4471402E-03 Eh
 * total energy  :  -169.7337096 Eh     change       -0.3032043E-03 Eh
 * total energy  :  -169.7339033 Eh     change       -0.1937049E-03 Eh
 * total energy  :  -169.7340467 Eh     change       -0.1434103E-03 Eh
 * total energy  :  -169.7351072 Eh     change       -0.2155848E-05 Eh
 * total energy  :  -169.7351092 Eh     change       -0.1999836E-05 Eh
 * total energy  :  -169.7351110 Eh     change       -0.1774198E-05 Eh
 * total energy  :  -169.7351128 Eh     change       -0.1810960E-05 Eh
 * total energy  :  -169.7351147 Eh     change       -0.1867827E-05 Eh
 * total energy  :  -169.7351160 Eh     change       -0.1372552E-05 Eh
 * total energy  :  -169.7351169 Eh     change       -0.8454473E-06 Eh
 * total energy  :  -169.7351175 Eh     change       -0.6196902E-06 Eh
 * total energy  :  -169.7351175 Eh     change       -0.8331170E-08 Eh
   *** GEOMETRY OPTIMIZATION CONVERGED AFTER 68 ITERATIONS ***

 final structure:
================
112
 xtb: 6.7.1 (edcfbbe)
C          -12.76080904707350        3.00493766889996        1.08814569213733
C          -11.49616358563985        2.92304959613928        1.64847020012898
C          -10.68046387981210        1.84054722107498        1.38097932799233
C          -11.11804507020602        0.82159041859115        0.53437816718490
N          -10.29261880497839       -0.27417462351751        0.25507988810791
C          -10.84711890904519       -1.55317182675219        0.12102998592712
C          -10.35761914778630       -2.43916524833063       -0.83892418336624
C          -10.90234956957320       -3.70275558716975       -0.96307095555670
C          -11.94620040071733       -4.10090262078784       -0.14334729246972
C          -12.44015981112307       -3.22280864831347        0.80804643832658
C          -11.89586389607824       -1.96035363495400        0.94577668312346
C           -8.91335836942904       -0.09298287874075        0.10481085961976
C           -8.01614156303601       -1.05342064558169        0.57346351694721
C           -6.65666484912131       -0.87622790422671        0.41609557748509
C           -6.15066022648827        0.26713646106978       -0.19687055085127
C           -4.69313130907538        0.45540688956979       -0.35744476445577
C           -3.98173582709475       -0.34469567261142       -1.26414424077355
C           -4.62698412117098       -1.32338955076487       -2.06576818202005
C           -3.92699722935324       -2.09120060211785       -2.94495584498975
C           -2.53451137673617       -1.92245781568513       -3.08587010126401
C           -1.88003898336180       -0.98289059797156       -2.35064281747356
C           -2.57204279303752       -0.16353834005910       -1.41981801754667
C           -1.90781793002374        0.81616082792326       -0.66903857132561
C           -0.45514054102056        1.03240700126230       -0.86173141761108
C           -0.03058242624561        2.07765002317026       -1.67445180646350
C            1.31163142040407        2.30460057122977       -1.90288586741253
C            2.28195746391446        1.48987181191467       -1.31667296460028
C            3.67421196037226        1.67667879925415       -1.55246744936102
C            4.60111762943237        0.88496372019909       -0.96470389620826
C            4.22662894253670       -0.16735095153549       -0.07644528681394
C            5.17293857088613       -0.99508396832384        0.55576994059927
C            6.62073700296214       -0.76092237219960        0.43752702472292
C            7.47269587782677       -1.78935939045911        0.03932781707178
C            8.83474069812625       -1.59080044499090       -0.04917982456678
C            9.39245291336448       -0.35509000334402        0.28212480557197
N           10.77355078368792       -0.15227119772554        0.20253020007871
C           11.27815656790158        1.08517156953364       -0.21602246192583
C           10.64142488970464        1.80370838291477       -1.22821105968371
C           11.14036963238738        3.02637320311687       -1.63441417851442
C           12.28226235719321        3.54872047527305       -1.04843121438836
C           12.92153543053335        2.83703701107788       -0.04596179769122
C           12.42534823137939        1.61745584881430        0.37281278730087
C           11.65402787585230       -1.18525369673848        0.54856406467998
C           12.83146382302072       -1.38261821063024       -0.17296253648534
C           13.69921852653288       -2.39994347536734        0.17506460652519
C           13.40667321267100       -3.23994011705825        1.23760623987141
C           12.23657217746984       -3.05063597634524        1.95536566002912
C           11.36664914969723       -2.03100054312386        1.62010946095806
C            8.54506344371912        0.67230246962782        0.69988440567951
C            7.18234791207393        0.47141845368273        0.76961267773434
C            4.73556049126852       -2.06191400067937        1.33734657393223
C            3.39376330896136       -2.30182495772628        1.54329354625054
C            2.42643442449821       -1.47724894685527        0.96556715595184
C            1.03292230615160       -1.68005405803542        1.18171070359023
C            0.10711559286505       -0.87852896457669        0.60672859646494
C            0.49193251793735        0.19744590521475       -0.24696813575442
C            1.87274348818042        0.42773497496512       -0.47310898536223
C            2.84407912755462       -0.40546930345103        0.13811188299884
C           -2.61702847630113        1.61469575235353        0.23777392986424
C           -1.96547856968732        2.59916019463139        1.02707640771385
C           -2.65777018561999        3.36184602366101        1.91625268443666
C           -4.04603706874971        3.17804941590556        2.07907246651714
C           -4.70619898949785        2.23981568140242        1.34669201615913
C           -4.02604553193148        1.43131239351216        0.39774772367836
C           -7.04792146552683        1.22779582969950       -0.65610602919784
C           -8.40935020087644        1.05027905552606       -0.51642358673467
C          -12.39083917902083        0.91116425639759       -0.02986199706175
C          -13.20282534801603        1.99317517333036        0.25085607067865
H          -13.39679488149080        3.85083373579921        1.30192154645372
H          -11.14473644255594        3.70401040724013        2.30730169582811
H           -9.69925341917205        1.77488872878210        1.82841886374847
H           -9.55067885346639       -2.12747992177647       -1.48632545869680
H          -10.51457552881711       -4.37806608078237       -1.71208149503445
H          -12.37145635450454       -5.08810734078896       -0.24517144198801
H          -13.25058357584403       -3.52591901011977        1.45510391194574
H          -12.27694040893440       -1.28124757139639        1.69475649674936
H           -8.39326625542543       -1.93944377923409        1.06322083725857
H           -5.97215079437192       -1.62566573172179        0.78721945258439
H           -5.69533818012838       -1.44587740889085       -1.96638643054643
H           -4.43366172427121       -2.83215496515375       -3.54653462651776
H           -1.99420538700837       -2.54040433822447       -3.78847542839828
H           -0.81503159200754       -0.84378312908638       -2.46624039458782
H           -0.77267892012310        2.71339911183233       -2.13733547349570
H            1.62118419079428        3.11727695546992       -2.54472957423951
H            3.97452284031016        2.46850344337539       -2.22468586937910
H            5.65036243847161        1.03103031843870       -1.17377395804801
H            7.05526675090575       -2.74882373785282       -0.23067563088399
H            9.47879755489032       -2.39332014261556       -0.37837040799050
H            9.75674864594254        1.39420594929181       -1.69406328293246
H           10.63841562280675        3.57083501801200       -2.42122178291938
H           12.67104152609434        4.50307858601815       -1.37061302123750
H           13.80952201028850        3.23844819162498        0.42071300053771
H           12.92077734877017        1.06943221330961        1.16120386215032
H           13.05796723957950       -0.73456301927703       -1.00724850427296
H           14.60658858108547       -2.54296687777469       -0.39376389126415
H           14.08550928305628       -4.03611595715956        1.50438020498398
H           12.00261770735197       -3.69670886374895        2.78916951662441
H           10.45982779400496       -1.87941511087894        2.18761585262583
H            8.96560517732930        1.62817541217207        0.97687799162683
H            6.54297840510182        1.27066639504080        1.11641955541703
H            5.47260119103542       -2.69542314827266        1.81085828795139
H            3.07988510164464       -3.12712699405899        2.16673853271481
H            0.73154862098983       -2.49629348486638        1.82345837274912
H           -0.94694606431957       -1.03994873962542        0.78073303211966
H           -0.89926932146356        2.72779046757007        0.90940918020227
H           -2.14874456895255        4.10735015679955        2.51005384596772
H           -4.57923586508207        3.78523622990722        2.79644463773641
H           -5.76722686922620        2.09106339665622        1.48200003174070
H           -6.67040362760950        2.11562177612040       -1.14316427404905
H           -9.09367895250166        1.79750000243233       -0.89121667959486
H          -12.73521844571141        0.12882350766552       -0.69072025987280
H          -14.18530106604557        2.05047104557772       -0.19511959185470

          :  Hamiltonian                  GFN2-xTB          :
         :: gradient norm              0.000066109281 Eh/a0 ::
         :: HOMO-LUMO gap              1.858983069196 eV    ::
         :: SCC energy              -173.014984414555 Eh    ::
         :: -> dispersion             -0.165957126951 Eh    ::
         :: -> Gsolv                  -0.067549896073 Eh    ::
         :: repulsion energy           3.279866903323 Eh    ::

    * Orbital Energies and Occupations

         #    Occupation            Energy/Eh            Energy/eV
      -------------------------------------------------------------
         1        2.0000           -0.6643858             -18.0789
       ...           ...                  ...                  ...
       147        2.0000           -0.4046765             -11.0118
       148        2.0000           -0.4045673             -11.0088
       149        2.0000           -0.4042879             -11.0012
       150        2.0000           -0.4033255             -10.9750
       151        2.0000           -0.4009138             -10.9094
       152        2.0000           -0.3992822             -10.8650
       153        2.0000           -0.3978982             -10.8274
       154        2.0000           -0.3970620             -10.8046
       155        2.0000           -0.3895710             -10.6008
       156        2.0000           -0.3629889              -9.8774
       157        2.0000           -0.3581051              -9.7445
       158        2.0000           -0.3482336              -9.4759
       159        2.0000           -0.3474874              -9.4556 (HOMO)
       160                         -0.2791710              -7.5966 (LUMO)
       161                         -0.2750698              -7.4850
       162                         -0.2420253              -6.5858
       163                         -0.2307158              -6.2781
       164                         -0.2303929              -6.2693
       165                         -0.2303164              -6.2672
       166                         -0.2301908              -6.2638
       167                         -0.2299188              -6.2564
       168                         -0.2273456              -6.1864
       169                         -0.2272835              -6.1847
       170                         -0.2221594              -6.0453
       ...                                ...                  ...
       316                          0.7308201              19.8866
      -------------------------------------------------------------
                  HL-Gap            0.0683164 Eh            1.8590 eV

     #   Z          covCN         q      C6AA      α(0)
     1   6 C        2.919    -0.040    28.985     8.829
     2   6 C        2.919    -0.030    28.758     8.794
     3   6 C        2.922    -0.048    29.195     8.861
     4   6 C        2.923     0.066    26.528     8.446
     5   7 N        2.752    -0.081    22.806     7.093
     6   6 C        2.923     0.066    26.527     8.446
     7   6 C        2.922    -0.048    29.188     8.860
     8   6 C        2.919    -0.030    28.757     8.794
     9   6 C        2.919    -0.039    28.980     8.828
    10   6 C        2.919    -0.030    28.756     8.794
    11   6 C        2.922    -0.048    29.192     8.860
    12   6 C        2.923     0.064    26.568     8.453
    13   6 C        2.921    -0.049    29.215     8.864
    14   6 C        2.923    -0.033    28.816     8.803
    15   6 C        2.976     0.007    27.867     8.659
    16   6 C        2.976    -0.006    28.166     8.706
    17   6 C        2.983     0.005    27.913     8.666
    18   6 C        2.917    -0.035    28.873     8.811
    19   6 C        2.914    -0.031    28.779     8.797
    20   6 C        2.914    -0.031    28.776     8.796
    21   6 C        2.917    -0.034    28.841     8.807
    22   6 C        2.984     0.006    27.889     8.663
    23   6 C        2.978    -0.004    28.123     8.699
    24   6 C        2.977     0.007    27.857     8.658
    25   6 C        2.919    -0.034    28.854     8.809
    26   6 C        2.918    -0.039    28.980     8.828
    27   6 C        2.982     0.007    27.850     8.657
    28   6 C        2.913    -0.039    28.957     8.824
    29   6 C        2.912    -0.037    28.916     8.818
    30   6 C        2.982     0.005    27.903     8.665
    31   6 C        2.975     0.002    27.970     8.675
    32   6 C        2.976     0.003    27.947     8.672
    33   6 C        2.924    -0.035    28.860     8.810
    34   6 C        2.920    -0.049    29.214     8.864
    35   6 C        2.923     0.064    26.564     8.452
    36   7 N        2.752    -0.080    22.789     7.090
    37   6 C        2.923     0.066    26.529     8.447
    38   6 C        2.922    -0.048    29.189     8.860
    39   6 C        2.919    -0.030    28.756     8.794
    40   6 C        2.919    -0.039    28.979     8.828
    41   6 C        2.919    -0.030    28.755     8.793
    42   6 C        2.922    -0.048    29.193     8.860
    43   6 C        2.923     0.066    26.529     8.447
    44   6 C        2.922    -0.048    29.189     8.860
    45   6 C        2.919    -0.030    28.755     8.794
    46   6 C        2.919    -0.039    28.976     8.827
    47   6 C        2.919    -0.030    28.756     8.794
    48   6 C        2.922    -0.048    29.188     8.860
    49   6 C        2.920    -0.049    29.223     8.865
    50   6 C        2.923    -0.033    28.825     8.805
    51   6 C        2.921    -0.037    28.909     8.817
    52   6 C        2.918    -0.039    28.966     8.826
    53   6 C        2.982     0.008    27.841     8.655
    54   6 C        2.913    -0.037    28.927     8.819
    55   6 C        2.913    -0.035    28.861     8.809
    56   6 C        2.984     0.006    27.884     8.662
    57   6 C        2.995     0.001    28.000     8.680
    58   6 C        2.995     0.001    27.993     8.679
    59   6 C        2.984     0.005    27.899     8.664
    60   6 C        2.917    -0.034    28.850     8.808
    61   6 C        2.914    -0.031    28.777     8.797
    62   6 C        2.914    -0.031    28.779     8.797
    63   6 C        2.917    -0.035    28.872     8.811
    64   6 C        2.983     0.005    27.910     8.666
    65   6 C        2.923    -0.033    28.817     8.803
    66   6 C        2.921    -0.049    29.215     8.864
    67   6 C        2.922    -0.048    29.199     8.861
    68   6 C        2.919    -0.030    28.757     8.794
    69   1 H        0.926     0.031     2.567     2.506
    70   1 H        0.926     0.033     2.546     2.495
    71   1 H        0.926     0.031     2.578     2.511
    72   1 H        0.926     0.031     2.578     2.511
    73   1 H        0.926     0.033     2.543     2.494
    74   1 H        0.926     0.032     2.564     2.504
    75   1 H        0.926     0.033     2.545     2.495
    76   1 H        0.926     0.031     2.571     2.507
    77   1 H        0.926     0.032     2.557     2.501
    78   1 H        0.926     0.032     2.552     2.498
    79   1 H        0.926     0.031     2.569     2.507
    80   1 H        0.926     0.030     2.592     2.518
    81   1 H        0.926     0.029     2.600     2.522
    82   1 H        0.926     0.029     2.605     2.524
    83   1 H        0.925     0.028     2.609     2.526
    84   1 H        0.926     0.032     2.556     2.500
    85   1 H        0.925     0.031     2.576     2.510
    86   1 H        0.926     0.034     2.531     2.488
    87   1 H        0.926     0.034     2.534     2.489
    88   1 H        0.926     0.032     2.559     2.502
    89   1 H        0.926     0.031     2.572     2.508
    90   1 H        0.926     0.033     2.542     2.493
    91   1 H        0.926     0.032     2.563     2.504
    92   1 H        0.926     0.033     2.545     2.495
    93   1 H        0.926     0.031     2.572     2.508
    94   1 H        0.926     0.031     2.569     2.507
    95   1 H        0.926     0.033     2.542     2.493
    96   1 H        0.926     0.032     2.562     2.503
    97   1 H        0.926     0.033     2.542     2.493
    98   1 H        0.926     0.031     2.567     2.506
    99   1 H        0.926     0.032     2.560     2.502
   100   1 H        0.926     0.035     2.522     2.483
   101   1 H        0.926     0.031     2.570     2.507
   102   1 H        0.926     0.032     2.560     2.502
   103   1 H        0.926     0.030     2.579     2.511
   104   1 H        0.926     0.029     2.604     2.524
   105   1 H        0.926     0.029     2.595     2.519
   106   1 H        0.926     0.029     2.597     2.520
   107   1 H        0.926     0.030     2.593     2.518
   108   1 H        0.926     0.031     2.571     2.507
   109   1 H        0.926     0.033     2.550     2.497
   110   1 H        0.926     0.032     2.555     2.500
   111   1 H        0.926     0.031     2.575     2.509
   112   1 H        0.926     0.033     2.548     2.496

molecular dipole:
                 x           y           z       tot (Debye)
 q only:        0.112      -0.030       0.025
   full:        0.109      -0.037       0.030       0.303

 projected vibrational frequencies (cm⁻¹)
eigval :       -0.00    -0.00    -0.00    -0.00    -0.00     0.00
eigval :        4.95     6.29     7.03    13.48    15.54    16.92
eigval :       20.43    32.72    34.12    41.68    43.99    48.50
eigval :       49.90    56.86    59.79    64.74    69.14    71.02
eigval :       74.87    78.27    87.22    97.94   104.98   108.22
eigval :      114.76   118.80   147.59   158.23   162.91   179.63
eigval :      183.19   185.81   197.43   205.82   210.83   225.80
eigval :      231.26   232.11   236.02   241.61   272.77   288.35
eigval :      306.26   312.42   317.68   319.73   337.34   348.95
eigval :      353.50   364.32   374.98   375.29   377.28   378.04
eigval :      380.63   385.10   387.88   389.45   392.60   399.33
eigval :      405.24   410.30   413.56   417.75   422.22   445.00
eigval :      457.81   458.25   469.38   478.14   482.61   485.03
eigval :      488.50   490.29   497.30   498.94   509.68   515.79
eigval :      526.15   550.66   565.50   575.45   580.52   583.26
eigval :      584.24   585.37   587.36   588.55   593.58   596.24
eigval :      602.26   607.02   611.02   626.50   643.34   647.57
eigval :      652.51   653.15   654.89   659.03   659.55   665.16
eigval :      669.06   678.98   686.82   688.89   692.17   693.23
eigval :      701.07   721.23   735.36   740.09   743.91   755.03
eigval :      756.12   758.11   759.30   760.27   772.73   773.96
eigval :      801.72   805.48   812.78   814.12   825.82   842.64
eigval :      846.22   853.19   868.88   870.35   871.92   872.45
eigval :      874.68   874.87   874.89   876.11   889.06   890.90
eigval :      891.03   891.20   896.77   896.97   909.23   909.39
eigval :      912.37   912.64   913.89   914.55   915.40   917.26
eigval :      918.65   922.45   923.42   923.64   924.33   924.64
eigval :      926.66   926.78   927.29   927.99   928.05   929.01
eigval :      929.33   930.61   931.46   936.61   941.77   961.72
eigval :      985.82   987.63   995.93  1003.90  1004.00  1020.22
eigval :     1026.40  1077.88  1079.35  1081.15  1081.78  1082.00
eigval :     1082.71  1082.99  1110.55  1120.41  1120.42  1122.56
eigval :     1122.79  1133.07  1137.78  1138.75  1144.08  1155.29
eigval :     1164.80  1178.05  1178.57  1179.14  1179.86  1180.72
eigval :     1180.95  1183.61  1185.08  1185.68  1192.85  1194.23
eigval :     1194.49  1195.00  1196.78  1206.15  1207.29  1214.76
eigval :     1220.99  1226.39  1227.35  1238.26  1254.33  1260.49
eigval :     1262.64  1269.59  1270.56  1276.97  1277.38  1278.35
eigval :     1280.57  1287.48  1304.06  1307.31  1309.02  1311.36
eigval :     1313.69  1313.92  1314.96  1321.11  1322.23  1324.38
eigval :     1324.82  1328.89  1329.91  1348.29  1358.78  1375.33
eigval :     1380.55  1383.12  1384.20  1403.93  1405.42  1410.04
eigval :     1415.86  1421.12  1427.91  1434.01  1434.36  1440.69
eigval :     1441.16  1444.91  1450.55  1469.94  1470.38  1472.86
eigval :     1473.33  1475.03  1481.12  1494.26  1498.71  1504.45
eigval :     1524.76  1527.52  1530.81  1541.29  1553.23  1554.26
eigval :     1561.27  1563.74  1575.34  1575.50  1579.29  1579.40
eigval :     1590.97  1591.41  1591.51  1592.49  1598.67  1599.88
eigval :     1603.16  1606.14  1607.22  1621.48  3063.35  3064.40
eigval :     3065.31  3066.45  3068.26  3068.35  3070.31  3070.69
eigval :     3070.88  3070.92  3071.31  3071.87  3071.88  3072.25
eigval :     3072.34  3072.61  3074.02  3074.13  3074.48  3074.77
eigval :     3076.13  3077.92  3080.65  3081.10  3081.47  3082.04
eigval :     3082.51  3083.08  3083.26  3083.82  3084.43  3084.52
eigval :     3084.67  3084.90  3085.24  3087.21  3087.92  3088.93
eigval :     3089.87  3092.01  3092.84  3093.18  3093.55  3094.11

   temp. (K)  partition function   enthalpy   heat capacity  entropy
                                   cal/mol     cal/K/mol   cal/K/mol   J/K/mol
 298.15  VIB  0.590E+27            31967.278    201.314    202.350
         ROT  0.320E+09              888.752      2.981     41.902
         INT  0.189E+36            32856.030    204.295    244.252
         TR   0.246E+29             1481.254      4.968     46.129
         TOT                       34337.2838   209.2630   290.3802  1214.9509

       T/K    H(0)-H(T)+PV         H(T)/Eh          T*S/Eh         G(T)/Eh
   ------------------------------------------------------------------------
    298.15    0.547199E-01    0.923159E+00    0.137969E+00    0.785190E+00
   ------------------------------------------------------------------------

         :::::::::::::::::::::::::::::::::::::::::::::::::::::
         ::                  THERMODYNAMIC                  ::
         :::::::::::::::::::::::::::::::::::::::::::::::::::::
         :: total free energy        -168.949927669688 Eh   ::
         ::.................................................::
         :: total energy             -169.735117518851 Eh   ::
         :: zero point energy           0.868438920568 Eh   ::
         :: G(RRHO) w/o ZPVE           -0.083249071405 Eh   ::
         :: G(RRHO) contrib.            0.785189849164 Eh   ::
         :::::::::::::::::::::::::::::::::::::::::::::::::::::

           -------------------------------------------------
          | TOTAL ENERGY             -169.735117518851 Eh   |
          | TOTAL ENTHALPY           -168.811958653419 Eh   |
          | TOTAL FREE ENERGY        -168.949927669688 Eh   |
          | GRADIENT NORM               0.000066102019 Eh/α |
          | HOMO-LUMO GAP               1.858983025593 eV   |
           -------------------------------------------------

 * finished run on 2025/09/03 at 20:56:06.346
