   * xtb version 6.7.1 (edcfbbe) compiled by 'albert@albert-system' on 2024-07-22

   ID    Z sym.   atoms
    1    6 C      1-4, 6-35, 37-68
    2    7 N      5, 36
    3    1 H      69-112

          program call               : xtb data2507/toluene/p-TPA-AP-TPA/p-TPA-AP-TPA_toluene_T1_crest.xyz --gfn 2 --uhf 2 --gbsa toluene --ohess vtight --parallel 40 --molden --ceasefiles --namespace data2507/toluene/p-TPA-AP-TPA/p-TPA-AP-TPA_toluene_T1_finalOpt
      * Solvation model:               GBSA
        Solvent                        toluene
        Solvent mass                       9.2140E+01 g/mol
          :  Hamiltonian                  GFN2-xTB          :
 * total energy  :  -169.6720368 Eh     change       -0.2045155E-07 Eh
 * total energy  :  -169.6720825 Eh     change       -0.4563889E-04 Eh
 * total energy  :  -169.6721077 Eh     change       -0.2522230E-04 Eh
 * total energy  :  -169.6721185 Eh     change       -0.1077385E-04 Eh
 * total energy  :  -169.6721274 Eh     change       -0.8897322E-05 Eh
 * total energy  :  -169.6721303 Eh     change       -0.2891119E-05 Eh
 * total energy  :  -169.6721331 Eh     change       -0.2798626E-05 Eh
 * total energy  :  -169.6721358 Eh     change       -0.2714454E-05 Eh
 * total energy  :  -169.6721387 Eh     change       -0.2946241E-05 Eh
 * total energy  :  -169.6721419 Eh     change       -0.3128604E-05 Eh
 * total energy  :  -169.6721639 Eh     change       -0.5579232E-06 Eh
 * total energy  :  -169.6721644 Eh     change       -0.5722562E-06 Eh
 * total energy  :  -169.6721648 Eh     change       -0.4171937E-06 Eh
 * total energy  :  -169.6721652 Eh     change       -0.3329724E-06 Eh
 * total energy  :  -169.6721655 Eh     change       -0.3643729E-06 Eh
 * total energy  :  -169.6721659 Eh     change       -0.3591399E-06 Eh
 * total energy  :  -169.6721662 Eh     change       -0.2838767E-06 Eh
 * total energy  :  -169.6721664 Eh     change       -0.2133453E-06 Eh
 * total energy  :  -169.6721664 Eh     change       -0.4908742E-08 Eh
   *** GEOMETRY OPTIMIZATION CONVERGED AFTER 44 ITERATIONS ***

 final structure:
================
112
 xtb: 6.7.1 (edcfbbe)
C          -12.91102499473546        2.81282982509099        0.81080608800022
C          -11.66594521094506        2.78297786349636        1.41869263197898
C          -10.80673960320690        1.72307831871056        1.20209903454983
C          -11.18212379467813        0.67503192755598        0.36082913642362
N          -10.31526801767595       -0.40208830569332        0.13788214382662
C          -10.83193618139806       -1.69945685665946        0.02577654821375
C          -10.29246861273615       -2.59662913165099       -0.89648887903071
C          -10.80248915936560       -3.87632329110658       -1.00139302752570
C          -11.85841755364566       -4.27887785467412       -0.19909412728762
C          -12.40059628542126       -3.38979337672851        0.71544699771778
C          -11.89299910630440       -2.11019499529455        0.83299281183309
C           -8.94169026801627       -0.18716349630760        0.03600033440524
C           -8.03300559050204       -1.12411022170390        0.53776344563725
C           -6.67745919448786       -0.91004913046662        0.43362991060185
C           -6.16817112111360        0.25247158712500       -0.15754497105162
C           -4.72937114937425        0.48234443847476       -0.24752466996577
C           -3.89814207550538       -0.46741733545213       -0.90390867204208
C           -4.44479978707341       -1.57663905746134       -1.57585159206965
C           -3.65462468983412       -2.45996722328549       -2.28035128948528
C           -2.28700617028810       -2.23678849890704       -2.37759265147657
C           -1.72510575044959       -1.13957621842395       -1.75768516580593
C           -2.49097978061310       -0.25306251525974       -0.98424115445399
C           -1.90888903354737        0.91505305125930       -0.39752193406612
C           -0.48982322767556        1.16367792355034       -0.50068266451819
C           -0.04918454314937        2.35666352483433       -1.10293311980094
C            1.27507243480456        2.59392854726239       -1.34853445347122
C            2.26619888600845        1.67250000071919       -0.94543866718353
C            3.63343918480235        1.87466394118460       -1.21552477345775
C            4.58161458273782        0.99011115655165       -0.78342701611764
C            4.23117346137673       -0.14886049756564       -0.01951722982815
C            5.19797183865746       -1.06079909586865        0.47518594877753
C            6.63525979256596       -0.80937929312071        0.36362283473526
C            7.49785928407339       -1.80682087686745       -0.09758956644907
C            8.85546872464511       -1.59125745125976       -0.18797207867992
C            9.40717048519978       -0.36935989129789        0.20462768846987
N           10.78270127315726       -0.14760587168324        0.11770868830047
C           11.27088659684959        1.12077647733264       -0.21973505422988
C           10.60773963063486        1.90722600245051       -1.16243213156604
C           11.09068058130784        3.16022157403967       -1.48720098899391
C           12.24203338960681        3.64598628281184       -0.88812197501386
C           12.90843875268089        2.86627128539997        0.04378514708307
C           12.42875093946299        1.61537891088105        0.38146590284008
C           11.67883757585048       -1.19476726784409        0.36913241058305
C           12.83971644461695       -1.32977409682553       -0.39263785624550
C           13.72242898378461       -2.36179775819997       -0.13830748196813
C           13.46145800928949       -3.27671159886278        0.86934264076047
C           12.30837476346509       -3.14846955820401        1.62726758538031
C           11.42316019312555       -2.11565653015882        1.38548010576332
C            8.55366812160405        0.62384390485598        0.69179712852077
C            7.19516318768391        0.40769484521190        0.76224943491047
C            4.77198873931625       -2.22613413245757        1.11552926900587
C            3.44077422978407       -2.47824680729693        1.34401442158261
C            2.45510040889763       -1.56960114624182        0.91800950112142
C            1.08274253269029       -1.77116476230557        1.18462503768702
C            0.13794128959096       -0.89429327519310        0.73585763479349
C            0.49098701840952        0.23705727942396       -0.03343467768567
C            1.86699928523515        0.49897788466898       -0.25668274590991
C            2.85293832365063       -0.40681701381111        0.21201541453704
C           -2.75245827941684        1.87526481191705        0.24258837136741
C           -2.21258027774251        2.98020682296374        0.92023554553946
C           -3.01249326976097        3.88662901940511        1.58824092454115
C           -4.38461610058851        3.68373692494360        1.64689468316457
C           -4.94050081294694        2.57348167138822        1.04573496781883
C           -4.15992766960573        1.65599520652144        0.31861342804991
C           -7.08558653806373        1.18604097572875       -0.65447712250559
C           -8.44223397072073        0.97010359531055       -0.56942692444425
C          -12.43519493863048        0.71170907769613       -0.25170047199629
C          -13.29022452118126        1.77240357137443       -0.02256935896291
H          -13.58136269759140        3.64079939940036        0.98559209067273
H          -11.36455976257164        3.58645053905487        2.07481165082010
H           -9.84228821592927        1.69530700133927        1.68792725120089
H           -9.47709349925480       -2.28020672925892       -1.53065071684699
H          -10.37814867954229       -4.56088633833873       -1.72129679529223
H          -12.25590779654389       -5.27885899600529       -0.28595348570140
H          -13.22004734845657       -3.69716622016447        1.34857085319727
H          -12.31005549152685       -1.42179318324667        1.55350389097431
H           -8.40381138506165       -2.01437527222880        1.02467765818171
H           -5.99018085731951       -1.63087482886815        0.85251307859824
H           -5.51333389863626       -1.72674110263159       -1.55588756246088
H           -4.10405726440469       -3.30881476095186       -2.77525504284802
H           -1.66397557451795       -2.90645407695768       -2.95246901281539
H           -0.66832694358993       -0.95469202683357       -1.87667048049012
H           -0.79363150971579        3.05828433665167       -1.45364262559012
H            1.57908851111098        3.48604224279961       -1.87791225499402
H            3.92428641530358        2.74922159064169       -1.78121818216632
H            5.61906252843900        1.15239068095735       -1.03393796921341
H            7.08711984824108       -2.75177581954679       -0.42267961510963
H            9.50185836596730       -2.36609499740530       -0.57398962992573
H            9.71667099898445        1.52605394245278       -1.63966002276123
H           10.56824248212733        3.75821198403410       -2.21979055367016
H           12.61754733786216        4.62473346940348       -1.14619065870343
H           13.80449076563924        3.23839303650334        0.51888287735988
H           12.94455792860988        1.01382753892601        1.11574895147529
H           13.04019410357767       -0.62341682949790       -1.18509711949484
H           14.61638545802762       -2.45694867799579       -0.73733222241418
H           14.15211694998185       -4.08358932660727        1.06309313199961
H           12.09991829507855       -3.85297709877780        2.41932606893032
H           10.53003117790676       -2.01114883174008        1.98423108464994
H            8.96925800962148        1.56388609519159        1.02478369861597
H            6.55491958396071        1.17660957032130        1.16997576047732
H            5.51751186307053       -2.92059427780705        1.47767001658987
H            3.13662967454869       -3.37145773670356        1.87094347858713
H            0.79036332094794       -2.63844167190848        1.76009734883370
H           -0.90456854212513       -1.06184431856509        0.96360858323619
H           -1.14193676390728        3.11688116805878        0.93454932623157
H           -2.56468883493478        4.73554868472120        2.08421460261154
H           -5.01486094025368        4.37696434346177        2.18518052436607
H           -5.99907476697568        2.39285043909300        1.15219201065744
H           -6.71701962263715        2.07254625499727       -1.15015520722761
H           -9.13141239310463        1.69144119611526       -0.98395094388240
H          -12.72913948900195       -0.09325261262060       -0.90935821245837
H          -14.25669015366291        1.79014188652064       -0.50475119090007

          :  Hamiltonian                  GFN2-xTB          :
         :: gradient norm              0.000037942194 Eh/a0 ::
         :: HOMO-LUMO gap              0.410018813084 eV    ::
         :: SCC energy              -172.932941230110 Eh    ::
         :: -> dispersion             -0.166521338361 Eh    ::
         :: -> Gsolv                  -0.067890215251 Eh    ::
         :: repulsion energy           3.260774822388 Eh    ::

    * Orbital Energies and Occupations

         #    Occupation            Energy/Eh            Energy/eV
      -------------------------------------------------------------
         1        2.0000           -0.6700096             -18.2319
       ...           ...                  ...                  ...
       148        2.0000           -0.4027500             -10.9594
       149        2.0000           -0.4015638             -10.9271
       150        2.0000           -0.3992600             -10.8644
       151        2.0000           -0.3976266             -10.8200
       152        2.0000           -0.3968785             -10.7996
       153        2.0000           -0.3965041             -10.7894
       154        2.0000           -0.3936451             -10.7116
       155        2.0000           -0.3862035             -10.5091
       156        2.0000           -0.3614713              -9.8361
       157        2.0000           -0.3561747              -9.6920
       158        1.9914           -0.3494113              -9.5080
       159        1.0086           -0.3403843              -9.2623
       160        0.9996           -0.2849597              -7.7541 (HOMO)
       161        0.0004           -0.2698918              -7.3441 (LUMO)
       162                         -0.2374417              -6.4611
       163                         -0.2342645              -6.3747
       164                         -0.2339439              -6.3659
       165                         -0.2326024              -6.3294
       166                         -0.2303479              -6.2681
       167                         -0.2299264              -6.2566
       168                         -0.2288429              -6.2271
       169                         -0.2251977              -6.1279
       170                         -0.2241293              -6.0989
       171                         -0.2237211              -6.0878
       ...                                ...                  ...
       316                          0.7266681              19.7736
      -------------------------------------------------------------
                  HL-Gap            0.0150679 Eh            0.4100 eV

     #   Z          covCN         q      C6AA      α(0)
     1   6 C        2.919    -0.037    28.912     8.817
     2   6 C        2.919    -0.029    28.723     8.789
     3   6 C        2.922    -0.046    29.132     8.851
     4   6 C        2.924     0.065    26.549     8.450
     5   7 N        2.752    -0.065    22.499     7.045
     6   6 C        2.925     0.065    26.549     8.450
     7   6 C        2.922    -0.045    29.125     8.850
     8   6 C        2.919    -0.029    28.722     8.788
     9   6 C        2.919    -0.036    28.907     8.817
    10   6 C        2.919    -0.029    28.721     8.788
    11   6 C        2.922    -0.046    29.136     8.852
    12   6 C        2.924     0.063    26.589     8.456
    13   6 C        2.919    -0.048    29.186     8.859
    14   6 C        2.923    -0.032    28.797     8.800
    15   6 C        2.973     0.010    27.780     8.646
    16   6 C        2.973    -0.016    28.406     8.742
    17   6 C        2.978     0.005    27.900     8.664
    18   6 C        2.921    -0.042    29.038     8.837
    19   6 C        2.914    -0.034    28.846     8.807
    20   6 C        2.915    -0.035    28.862     8.810
    21   6 C        2.921    -0.038    28.936     8.821
    22   6 C        2.977     0.006    27.886     8.662
    23   6 C        2.973    -0.009    28.243     8.717
    24   6 C        2.972     0.002    27.967     8.675
    25   6 C        2.917    -0.034    28.850     8.808
    26   6 C        2.914    -0.044    29.094     8.845
    27   6 C        2.981     0.005    27.907     8.665
    28   6 C        2.914    -0.042    29.031     8.835
    29   6 C        2.914    -0.042    29.034     8.836
    30   6 C        2.980     0.004    27.935     8.670
    31   6 C        2.974    -0.004    28.114     8.697
    32   6 C        2.976     0.006    27.888     8.662
    33   6 C        2.924    -0.035    28.863     8.810
    34   6 C        2.919    -0.048    29.192     8.860
    35   6 C        2.923     0.063    26.585     8.456
    36   7 N        2.752    -0.070    22.607     7.062
    37   6 C        2.924     0.065    26.539     8.448
    38   6 C        2.922    -0.046    29.153     8.854
    39   6 C        2.919    -0.029    28.736     8.791
    40   6 C        2.919    -0.038    28.938     8.821
    41   6 C        2.919    -0.029    28.735     8.791
    42   6 C        2.922    -0.047    29.163     8.856
    43   6 C        2.924     0.065    26.540     8.448
    44   6 C        2.922    -0.046    29.154     8.854
    45   6 C        2.919    -0.029    28.735     8.790
    46   6 C        2.919    -0.037    28.932     8.821
    47   6 C        2.919    -0.029    28.735     8.790
    48   6 C        2.922    -0.046    29.149     8.854
    49   6 C        2.920    -0.048    29.203     8.862
    50   6 C        2.923    -0.033    28.819     8.803
    51   6 C        2.918    -0.037    28.919     8.819
    52   6 C        2.916    -0.044    29.086     8.844
    53   6 C        2.981     0.006    27.875     8.660
    54   6 C        2.915    -0.042    29.035     8.836
    55   6 C        2.915    -0.036    28.903     8.816
    56   6 C        2.980     0.003    27.941     8.671
    57   6 C        2.993    -0.001    28.033     8.685
    58   6 C        2.994    -0.001    28.035     8.685
    59   6 C        2.978     0.004    27.918     8.667
    60   6 C        2.921    -0.039    28.980     8.828
    61   6 C        2.914    -0.035    28.879     8.812
    62   6 C        2.914    -0.034    28.840     8.806
    63   6 C        2.921    -0.042    29.048     8.838
    64   6 C        2.978     0.006    27.887     8.662
    65   6 C        2.922    -0.032    28.800     8.801
    66   6 C        2.919    -0.048    29.185     8.859
    67   6 C        2.922    -0.046    29.142     8.853
    68   6 C        2.919    -0.029    28.722     8.789
    69   1 H        0.926     0.035     2.517     2.481
    70   1 H        0.926     0.036     2.500     2.472
    71   1 H        0.926     0.034     2.527     2.486
    72   1 H        0.926     0.034     2.525     2.485
    73   1 H        0.926     0.036     2.497     2.471
    74   1 H        0.926     0.035     2.514     2.479
    75   1 H        0.926     0.037     2.494     2.470
    76   1 H        0.926     0.035     2.518     2.481
    77   1 H        0.926     0.035     2.517     2.481
    78   1 H        0.926     0.037     2.496     2.470
    79   1 H        0.926     0.030     2.584     2.514
    80   1 H        0.926     0.026     2.643     2.543
    81   1 H        0.926     0.025     2.666     2.553
    82   1 H        0.926     0.026     2.647     2.544
    83   1 H        0.925     0.028     2.614     2.529
    84   1 H        0.926     0.027     2.630     2.536
    85   1 H        0.925     0.026     2.641     2.541
    86   1 H        0.926     0.030     2.583     2.513
    87   1 H        0.926     0.035     2.516     2.481
    88   1 H        0.926     0.034     2.537     2.491
    89   1 H        0.926     0.033     2.544     2.494
    90   1 H        0.926     0.035     2.517     2.481
    91   1 H        0.926     0.034     2.534     2.489
    92   1 H        0.926     0.035     2.514     2.479
    93   1 H        0.926     0.033     2.539     2.492
    94   1 H        0.926     0.034     2.536     2.490
    95   1 H        0.926     0.035     2.510     2.478
    96   1 H        0.926     0.034     2.530     2.487
    97   1 H        0.926     0.035     2.513     2.479
    98   1 H        0.926     0.034     2.536     2.490
    99   1 H        0.926     0.033     2.539     2.492
   100   1 H        0.926     0.036     2.503     2.474
   101   1 H        0.925     0.028     2.610     2.526
   102   1 H        0.926     0.027     2.628     2.535
   103   1 H        0.926     0.026     2.641     2.541
   104   1 H        0.926     0.026     2.641     2.542
   105   1 H        0.926     0.029     2.596     2.519
   106   1 H        0.926     0.025     2.658     2.550
   107   1 H        0.926     0.026     2.646     2.544
   108   1 H        0.926     0.030     2.586     2.515
   109   1 H        0.926     0.037     2.491     2.468
   110   1 H        0.926     0.035     2.514     2.480
   111   1 H        0.926     0.035     2.520     2.482
   112   1 H        0.926     0.036     2.497     2.471

molecular dipole:
                 x           y           z       tot (Debye)
 q only:       -0.548      -0.211       0.099
   full:       -0.536      -0.210       0.096       1.483

 projected vibrational frequencies (cm⁻¹)
eigval :       -0.00    -0.00    -0.00     0.00     0.00     0.00
eigval :        6.44     6.78    11.88    14.92    17.08    20.07
eigval :       29.51    35.01    39.26    43.98    46.78    50.57
eigval :       53.11    59.57    63.43    70.50    73.42    74.34
eigval :       75.05    82.46    92.66   104.71   111.05   118.66
eigval :      121.66   132.13   148.77   163.46   172.02   182.63
eigval :      190.67   194.39   203.46   207.67   225.59   229.27
eigval :      231.95   232.81   243.36   256.87   275.42   287.70
eigval :      305.89   311.87   317.75   321.73   336.17   350.89
eigval :      352.43   359.81   374.24   376.27   377.62   378.06
eigval :      381.95   382.84   385.35   392.43   394.07   400.64
eigval :      401.70   405.03   410.05   417.79   421.01   445.02
eigval :      452.59   459.93   469.09   474.83   481.34   484.66
eigval :      490.36   492.42   497.58   504.43   506.21   514.84
eigval :      525.83   548.74   563.24   571.62   577.34   579.40
eigval :      583.21   584.83   586.49   588.12   592.86   595.86
eigval :      599.88   603.28   609.49   619.16   633.48   640.08
eigval :      642.32   651.74   655.40   659.68   659.77   664.83
eigval :      669.64   673.90   677.85   686.93   690.57   693.87
eigval :      698.77   719.26   726.32   735.34   740.78   754.38
eigval :      756.58   757.41   758.62   760.11   762.41   765.13
eigval :      795.66   800.51   803.52   818.75   819.71   833.72
eigval :      838.84   839.67   857.08   860.81   868.71   872.16
eigval :      873.68   874.44   874.84   876.21   890.00   892.10
eigval :      892.43   894.74   895.83   897.42   899.10   900.38
eigval :      903.49   907.29   908.67   909.24   909.31   910.40
eigval :      912.94   913.70   925.65   926.05   927.49   928.08
eigval :      928.29   928.42   928.96   929.06   929.54   933.05
eigval :      933.21   937.33   938.52   940.67   944.00   959.93
eigval :      985.06   986.65   996.32  1003.46  1003.84  1018.44
eigval :     1022.59  1079.06  1080.61  1080.96  1082.27  1082.84
eigval :     1104.71  1106.66  1120.01  1120.16  1120.42  1121.89
eigval :     1122.99  1123.13  1127.48  1138.83  1140.00  1143.06
eigval :     1151.07  1170.35  1177.61  1178.20  1178.29  1179.05
eigval :     1182.24  1182.78  1183.37  1184.70  1187.42  1190.66
eigval :     1193.29  1193.76  1195.20  1200.56  1203.78  1210.12
eigval :     1215.02  1217.37  1226.19  1237.97  1238.87  1259.91
eigval :     1264.22  1268.19  1269.18  1275.59  1276.71  1279.25
eigval :     1279.70  1292.53  1300.20  1303.38  1306.55  1309.93
eigval :     1312.43  1313.53  1316.31  1318.50  1321.57  1323.45
eigval :     1324.15  1324.46  1328.11  1332.03  1337.11  1339.64
eigval :     1348.95  1364.84  1375.76  1386.58  1391.49  1397.23
eigval :     1404.80  1411.58  1412.22  1416.95  1417.47  1433.31
eigval :     1433.41  1438.53  1439.83  1439.88  1450.03  1466.07
eigval :     1467.00  1467.41  1468.09  1469.87  1473.35  1480.11
eigval :     1487.16  1491.59  1515.49  1519.77  1522.36  1529.30
eigval :     1534.51  1540.83  1542.90  1555.95  1558.85  1565.03
eigval :     1573.17  1573.89  1576.07  1577.89  1578.50  1586.00
eigval :     1587.80  1588.82  1594.03  1595.84  3059.99  3062.02
eigval :     3062.88  3064.72  3067.24  3067.36  3072.84  3073.04
eigval :     3073.27  3073.49  3073.66  3074.12  3074.16  3074.56
eigval :     3074.92  3075.09  3075.38  3075.56  3075.78  3076.18
eigval :     3076.69  3076.80  3082.53  3083.52  3083.66  3083.76
eigval :     3084.52  3085.08  3085.35  3085.89  3086.43  3086.76
eigval :     3087.51  3087.69  3088.30  3088.79  3091.23  3092.03
eigval :     3094.14  3094.80  3095.01  3095.60  3095.88  3096.40

   temp. (K)  partition function   enthalpy   heat capacity  entropy
                                   cal/mol     cal/K/mol   cal/K/mol   J/K/mol
 298.15  VIB  0.374E+26            31816.902    202.625    199.298
         ROT  0.321E+09              888.752      2.981     41.906
         INT  0.120E+35            32705.655    205.606    241.203
         TR   0.246E+29             1481.254      4.968     46.129
         TOT                       34186.9085   210.5742   287.3318  1202.1963

       T/K    H(0)-H(T)+PV         H(T)/Eh          T*S/Eh         G(T)/Eh
   ------------------------------------------------------------------------
    298.15    0.544803E-01    0.920706E+00    0.136521E+00    0.784186E+00
   ------------------------------------------------------------------------

         :::::::::::::::::::::::::::::::::::::::::::::::::::::
         ::                  THERMODYNAMIC                  ::
         :::::::::::::::::::::::::::::::::::::::::::::::::::::
         :: total free energy        -168.887980852478 Eh   ::
         ::.................................................::
         :: total energy             -169.672166408293 Eh   ::
         :: zero point energy           0.866225861819 Eh   ::
         :: G(RRHO) w/o ZPVE           -0.082040306004 Eh   ::
         :: G(RRHO) contrib.            0.784185555814 Eh   ::
         :::::::::::::::::::::::::::::::::::::::::::::::::::::

           -------------------------------------------------
          | TOTAL ENERGY             -169.672166408293 Eh   |
          | TOTAL ENTHALPY           -168.751460239884 Eh   |
          | TOTAL FREE ENERGY        -168.887980852478 Eh   |
          | GRADIENT NORM               0.000037916721 Eh/α |
          | HOMO-LUMO GAP               0.410019221035 eV   |
           -------------------------------------------------

 * finished run on 2025/09/03 at 21:30:57.221
