   * xtb version 6.7.1 (edcfbbe) compiled by 'albert@albert-system' on 2024-07-22

   ID    Z sym.   atoms
    1    7 N      1, 5, 34
    2    6 C      2-4, 6-33, 35-58
    3    1 H      59-93

          program call               : xtb data2507/toluene/2PCzBN/2PCzBN_toluene_S0_finalOpt.xtbopt.xyz --gfn 2 --uhf 2 --gbsa toluene --ohess vtight --parallel 40 --molden --ceasefiles --namespace data2507/toluene/2PCzBN/2PCzBN_toluene_T1_preOpt
      * Solvation model:               GBSA
        Solvent                        toluene
        Solvent mass                       9.2140E+01 g/mol
          :  Hamiltonian                  GFN2-xTB          :
 * total energy  :  -144.3839058 Eh     change       -0.2208793E-08 Eh
 * total energy  :  -144.3866650 Eh     change       -0.2759117E-02 Eh
 * total energy  :  -144.3875311 Eh     change       -0.8660907E-03 Eh
 * total energy  :  -144.3876254 Eh     change       -0.9432328E-04 Eh
 * total energy  :  -144.3876811 Eh     change       -0.5573127E-04 Eh
 * total energy  :  -144.3877069 Eh     change       -0.2583431E-04 Eh
 * total energy  :  -144.3877343 Eh     change       -0.2737419E-04 Eh
 * total energy  :  -144.3877484 Eh     change       -0.1412723E-04 Eh
 * total energy  :  -144.3877600 Eh     change       -0.1157740E-04 Eh
 * total energy  :  -144.3877689 Eh     change       -0.8854144E-05 Eh
 * total energy  :  -144.3878474 Eh     change       -0.3367120E-05 Eh
 * total energy  :  -144.3878505 Eh     change       -0.3110176E-05 Eh
 * total energy  :  -144.3878531 Eh     change       -0.2665192E-05 Eh
 * total energy  :  -144.3878554 Eh     change       -0.2242929E-05 Eh
 * total energy  :  -144.3878573 Eh     change       -0.1952750E-05 Eh
 * total energy  :  -144.3878591 Eh     change       -0.1809318E-05 Eh
 * total energy  :  -144.3878609 Eh     change       -0.1722917E-05 Eh
 * total energy  :  -144.3878608 Eh     change        0.1824435E-07 Eh
 * total energy  :  -144.3878609 Eh     change       -0.1792785E-07 Eh
   *** GEOMETRY OPTIMIZATION CONVERGED AFTER 45 ITERATIONS ***

 final structure:
================
93
 xtb: 6.7.1 (edcfbbe)
N           -0.04420893925359       -0.56246246135276        1.22053363741792
C           -0.00876856878321        0.02051919364275        0.21222729222307
C            0.02727491580335        0.70560843565472       -0.98105588074450
C            1.27283268383688        1.11593194937425       -1.57974323232979
N            2.47506076554325        0.66850956018989       -1.02324641995206
C            2.81018161737497       -0.63775658294906       -0.74699705763535
C            2.10928352629514       -1.80768309033464       -1.00591332529636
C            2.68583997811079       -3.00742760188121       -0.64216460349382
C            3.95521315606947       -3.07059749283770       -0.04587884949198
C            4.52646100051462       -4.36721547360186        0.33336076150793
C            5.88173660003061       -4.63671630785474        0.13652340755607
C            6.41524008519490       -5.86149181009858        0.49028637058516
C            5.60899447501663       -6.83677079562014        1.05569557089185
C            4.26291359615379       -6.57897478639190        1.26229128255217
C            3.72452877388557       -5.35837266287746        0.90150748189119
C            4.67288136801924       -1.89368899537153        0.17527850743459
C            4.10786919401842       -0.68128266447480       -0.17337999976303
C            4.56566343570190        0.68068734355286       -0.10428570638214
C            5.72888842809320        1.27362786518348        0.35080335857308
C            5.86206822922651        2.66159415583279        0.27969794941628
C            7.09135143760898        3.31156441523128        0.74538175643671
C            7.74513262235305        2.86214623944215        1.89411099866553
C            8.89984405398533        3.47967770211328        2.33531063138884
C            9.43035810016183        4.55138600056583        1.63440622978603
C            8.79362331648329        5.00404589498279        0.48948278315198
C            7.63385961520968        4.39421968887181        0.05076291613375
C            4.80550825928810        3.43483962595725       -0.22970093147878
C            3.63291533363871        2.86285630065892       -0.68226967098990
C            3.52148089490078        1.47930765785838       -0.63994033243274
C            1.28487896547050        1.96336266393661       -2.66511262718922
C            0.09741970999572        2.43614945046184       -3.22726553655634
C           -1.12690164772259        2.04094077242358       -2.67922607648790
C           -1.17937909572948        1.19206989875647       -1.59824853228784
N           -2.41467405214488        0.80937374755521       -1.06138619783937
C           -3.40413579764558        1.67448047834748       -0.65024720958260
C           -3.41952549615778        3.06303588417516       -0.64337399953737
C           -4.54927982449851        3.69734162971491       -0.16569792039469
C           -5.65578040544271        2.98075307764826        0.31868180862698
C           -6.83618504762782        3.69547559166945        0.81622101321636
C           -7.51444930362958        3.24716013891801        1.95090476899003
C           -8.62426938058728        3.92242644098381        2.42183655746556
C           -9.08412118025624        5.05311957569999        1.76523308601054
C           -8.42173233379985        5.50645841992788        0.63531504269858
C           -7.30653181417243        4.83809909508622        0.16699907554784
C           -5.62106160052844        1.58504504025977        0.33445757321637
C           -4.50230056181336        0.93039259874010       -0.14662722714815
C           -4.13817145058072       -0.45670332359154       -0.26591002617635
C           -4.78624067887702       -1.64021082213928        0.03316088861881
C           -4.15947809181160       -2.85398420556793       -0.25528897657311
C           -4.83578969375940       -4.12127559379602        0.04248266278144
C           -5.56489530284335       -4.27792291184558        1.22234986226850
C           -6.20001244705401       -5.47221684581398        1.50528110050312
C           -6.12832008881544       -6.52963405219364        0.61217410180950
C           -5.41258219341143       -6.38462838029620       -0.56582515950331
C           -4.76800031874580       -5.19489662548799       -0.84668325877122
C           -2.88622247720979       -2.85454588283149       -0.84586526564573
C           -2.21774591676070       -1.68365890319765       -1.14003448116815
C           -2.83844859643925       -0.48002013606766       -0.83508393244604
H            1.14220359232261       -1.78450841546288       -1.48287695886271
H            2.15730213634335       -3.92615700797474       -0.84557916774744
H            6.51195922374468       -3.88901865534994       -0.32247092038837
H            7.46440857862452       -6.05860906266057        0.32309862934629
H            6.02752415518196       -7.79257569123132        1.33474086469716
H            3.63068911475999       -7.33288097333211        1.70901006123868
H            2.67944865444710       -5.15532900812563        1.08478933008004
H            5.64861025089251       -1.92812753006729        0.63495938914520
H            6.53374030226466        0.66748617612382        0.73702515534922
H            7.32634022674000        2.04151973509388        2.45816306587241
H            9.38815017517544        3.12610858266728        3.23205905635185
H           10.33462589613682        5.03132436695281        1.97876550284728
H            9.20561071397727        5.83519767568825       -0.06465544381634
H            7.15454341213816        4.74058175445686       -0.85320015426776
H            4.90245227396243        4.50968796116469       -0.23894419742598
H            2.82256478831397        3.47593339274588       -1.04666024413776
H            2.23241863499321        2.23223979067018       -3.10904226736015
H            0.12304459468731        3.07447873567352       -4.09449139413158
H           -2.05020640014245        2.37292302725237       -3.13145404091688
H           -2.56868301526819        3.63040162960278       -0.98923047100041
H           -4.57169379685112        4.77595950236052       -0.13526741090888
H           -7.14981025727954        2.37912313301621        2.48046940004860
H           -9.13251328541067        3.56774517826848        3.30698014550404
H           -9.95365285969969        5.57826122417115        2.13230094106052
H           -8.77827701084641        6.38468652411956        0.11646275911672
H           -6.80752173817274        5.18666922996368       -0.72538780843676
H           -6.46716285115734        1.02231149524633        0.69753952800749
H           -5.77987792439016       -1.62695236218779        0.45408575817244
H           -5.60801688991608       -3.46486162493876        1.93225084540328
H           -6.75207567422091       -5.58077829607032        2.42778125641252
H           -6.62831996731415       -7.46136697551054        0.83240298107125
H           -5.35818139526832       -7.20310239095549       -1.26918979158874
H           -4.22765627339438       -5.08335706329866       -1.77537177675154
H           -2.40782301390657       -3.79877170891700       -1.05672525005099
H           -1.24052813542633       -1.70642590746574       -1.59641283776706

          :  Hamiltonian                  GFN2-xTB          :
         :: gradient norm              0.000203008616 Eh/a0 ::
         :: HOMO-LUMO gap              0.164390081524 eV    ::
         :: SCC energy              -147.176653916924 Eh    ::
         :: -> dispersion             -0.131935129249 Eh    ::
         :: -> Gsolv                  -0.067362770429 Eh    ::
         :: repulsion energy           2.788793051394 Eh    ::

    * Orbital Energies and Occupations

         #    Occupation            Energy/Eh            Energy/eV
      -------------------------------------------------------------
         1        2.0000           -0.6878537             -18.7175
       ...           ...                  ...                  ...
       124        2.0000           -0.4068828             -11.0718
       125        2.0000           -0.4064924             -11.0612
       126        2.0000           -0.4064230             -11.0593
       127        2.0000           -0.4018477             -10.9348
       128        2.0000           -0.3983465             -10.8396
       129        2.0000           -0.3977093             -10.8222
       130        2.0000           -0.3945376             -10.7359
       131        2.0000           -0.3903315             -10.6215
       132        2.0000           -0.3842238             -10.4553
       133        2.0000           -0.3840459             -10.4504
       134        1.6714           -0.3668739              -9.9831
       135        1.3286           -0.3655166              -9.9462
       136        0.9531           -0.2611233              -7.1055 (HOMO)
       137        0.0340           -0.2550820              -6.9411 (LUMO)
       138        0.0083           -0.2537155              -6.9039
       139        0.0024           -0.2525436              -6.8721
       140        0.0023           -0.2524956              -6.8708
       141        0.0000           -0.2441582              -6.6439
       142                         -0.2385715              -6.4919
       143                         -0.2250388              -6.1236
       144                         -0.2245673              -6.1108
       145                         -0.2245130              -6.1093
       146                         -0.2241613              -6.0997
       147                         -0.2240889              -6.0978
       ...                                ...                  ...
       267                          1.1635336              31.6614
      -------------------------------------------------------------
                  HL-Gap            0.0060412 Eh            0.1644 eV

     #   Z          covCN         q      C6AA      α(0)
     1   7 N        0.911    -0.398    30.300     7.961
     2   6 C        1.906     0.099    28.643     8.643
     3   6 C        2.962    -0.051    29.257     8.872
     4   6 C        2.910     0.039    27.128     8.541
     5   7 N        2.800    -0.016    21.550     6.895
     6   6 C        3.075     0.051    26.779     8.484
     7   6 C        2.908    -0.034    28.856     8.808
     8   6 C        2.926    -0.038    28.956     8.825
     9   6 C        2.976     0.011    27.759     8.642
    10   6 C        2.977     0.013    27.725     8.637
    11   6 C        2.924    -0.033    28.821     8.804
    12   6 C        2.918    -0.029    28.729     8.789
    13   6 C        2.919    -0.029    28.728     8.789
    14   6 C        2.918    -0.029    28.718     8.788
    15   6 C        2.924    -0.032    28.799     8.800
    16   6 C        2.916    -0.034    28.857     8.809
    17   6 C        3.061    -0.014    28.301     8.724
    18   6 C        3.059    -0.014    28.300     8.724
    19   6 C        2.916    -0.034    28.848     8.808
    20   6 C        2.975     0.010    27.789     8.647
    21   6 C        2.976     0.012    27.744     8.640
    22   6 C        2.924    -0.033    28.825     8.805
    23   6 C        2.918    -0.029    28.730     8.790
    24   6 C        2.919    -0.030    28.743     8.792
    25   6 C        2.917    -0.029    28.734     8.790
    26   6 C        2.924    -0.033    28.830     8.805
    27   6 C        2.926    -0.041    29.015     8.834
    28   6 C        2.907    -0.042    29.040     8.836
    29   6 C        3.077     0.046    26.892     8.502
    30   6 C        2.914    -0.045    29.111     8.848
    31   6 C        2.913    -0.067    29.659     8.930
    32   6 C        2.914    -0.045    29.116     8.848
    33   6 C        2.911     0.040    27.100     8.536
    34   7 N        2.801    -0.018    21.594     6.902
    35   6 C        3.078     0.047    26.866     8.498
    36   6 C        2.907    -0.042    29.049     8.838
    37   6 C        2.926    -0.040    28.996     8.831
    38   6 C        2.975     0.010    27.795     8.648
    39   6 C        2.976     0.012    27.742     8.640
    40   6 C        2.924    -0.033    28.825     8.804
    41   6 C        2.918    -0.029    28.730     8.790
    42   6 C        2.919    -0.030    28.742     8.792
    43   6 C        2.918    -0.029    28.733     8.790
    44   6 C        2.924    -0.033    28.830     8.805
    45   6 C        2.916    -0.034    28.851     8.808
    46   6 C        3.060    -0.014    28.298     8.724
    47   6 C        3.061    -0.014    28.299     8.724
    48   6 C        2.916    -0.034    28.856     8.809
    49   6 C        2.976     0.011    27.771     8.644
    50   6 C        2.977     0.013    27.727     8.637
    51   6 C        2.924    -0.032    28.809     8.802
    52   6 C        2.918    -0.029    28.723     8.789
    53   6 C        2.919    -0.029    28.735     8.790
    54   6 C        2.918    -0.029    28.729     8.789
    55   6 C        2.924    -0.033    28.820     8.804
    56   6 C        2.926    -0.038    28.952     8.824
    57   6 C        2.908    -0.035    28.880     8.812
    58   6 C        3.077     0.052    26.762     8.482
    59   1 H        0.926     0.030     2.590     2.517
    60   1 H        0.926     0.042     2.420     2.433
    61   1 H        0.926     0.037     2.484     2.464
    62   1 H        0.926     0.036     2.503     2.474
    63   1 H        0.926     0.036     2.509     2.477
    64   1 H        0.926     0.035     2.515     2.480
    65   1 H        0.926     0.035     2.510     2.478
    66   1 H        0.926     0.048     2.351     2.398
    67   1 H        0.926     0.046     2.369     2.407
    68   1 H        0.926     0.036     2.507     2.476
    69   1 H        0.926     0.034     2.524     2.485
    70   1 H        0.926     0.034     2.527     2.486
    71   1 H        0.926     0.034     2.525     2.485
    72   1 H        0.926     0.036     2.503     2.474
    73   1 H        0.926     0.043     2.411     2.428
    74   1 H        0.926     0.040     2.453     2.449
    75   1 H        0.926     0.032     2.551     2.498
    76   1 H        0.926     0.026     2.645     2.543
    77   1 H        0.926     0.032     2.558     2.501
    78   1 H        0.926     0.039     2.460     2.453
    79   1 H        0.926     0.043     2.408     2.427
    80   1 H        0.926     0.036     2.507     2.476
    81   1 H        0.926     0.035     2.523     2.484
    82   1 H        0.926     0.034     2.526     2.485
    83   1 H        0.926     0.034     2.524     2.484
    84   1 H        0.926     0.036     2.503     2.474
    85   1 H        0.926     0.046     2.369     2.407
    86   1 H        0.926     0.047     2.357     2.401
    87   1 H        0.926     0.036     2.502     2.473
    88   1 H        0.926     0.035     2.511     2.478
    89   1 H        0.926     0.035     2.513     2.479
    90   1 H        0.926     0.035     2.514     2.479
    91   1 H        0.926     0.036     2.507     2.476
    92   1 H        0.926     0.042     2.417     2.431
    93   1 H        0.926     0.029     2.598     2.520

molecular dipole:
                 x           y           z       tot (Debye)
 q only:        0.057       0.044      -0.584
   full:        0.060       0.315      -0.975       2.608

 projected vibrational frequencies (cm⁻¹)
eigval :       -0.00    -0.00     0.00     0.00     0.00     0.00
eigval :        6.54     8.19     9.90    23.29    30.30    34.07
eigval :       35.72    39.03    40.25    43.80    44.33    51.51
eigval :       58.01    59.12    70.16    78.28    83.39    92.23
eigval :      102.18   113.22   118.46   129.32   131.02   147.77
eigval :      150.08   159.38   170.60   193.58   208.74   214.24
eigval :      218.96   234.24   240.02   247.60   266.12   275.80
eigval :      285.37   293.74   301.31   310.54   322.64   341.55
eigval :      357.12   368.68   370.39   370.91   371.41   372.52
eigval :      378.10   383.85   386.44   389.51   395.22   419.90
eigval :      426.81   429.29   444.18   462.28   472.72   474.90
eigval :      476.00   483.73   492.77   496.32   507.33   524.44
eigval :      550.71   552.37   558.52   565.94   578.82   581.07
eigval :      585.14   585.97   590.06   591.80   596.10   603.04
eigval :      607.52   619.68   621.20   625.86   630.42   634.07
eigval :      664.56   664.95   668.83   671.25   678.05   683.61
eigval :      684.88   701.49   702.29   714.86   729.36   733.00
eigval :      734.68   746.10   753.76   754.93   756.76   757.92
eigval :      760.04   808.25   816.50   819.06   820.05   851.61
eigval :      855.27   859.04   860.25   861.85   863.25   863.48
eigval :      871.74   872.81   873.63   875.64   880.90   893.95
eigval :      895.18   899.89   899.96   901.15   903.36   903.77
eigval :      905.32   905.76   906.85   908.18   925.18   927.31
eigval :      928.52   930.36   930.63   930.70   931.73   931.88
eigval :      966.95   967.10   974.43   978.10  1012.69  1021.59
eigval :     1023.04  1059.65  1063.12  1063.68  1064.83  1077.03
eigval :     1080.62  1083.17  1083.40  1083.46  1084.59  1118.27
eigval :     1119.56  1119.83  1120.72  1121.24  1131.13  1136.51
eigval :     1143.97  1179.41  1180.26  1180.51  1180.72  1185.61
eigval :     1185.76  1194.78  1194.88  1195.74  1199.34  1199.44
eigval :     1211.64  1214.68  1216.32  1228.13  1235.18  1243.48
eigval :     1251.48  1258.32  1262.47  1271.85  1273.27  1278.56
eigval :     1279.01  1279.16  1279.25  1281.73  1296.54  1317.40
eigval :     1317.49  1317.67  1318.32  1319.21  1320.21  1320.91
eigval :     1339.98  1350.92  1354.01  1362.48  1366.32  1397.90
eigval :     1400.00  1419.04  1423.52  1423.94  1424.44  1428.03
eigval :     1431.47  1440.80  1441.19  1459.06  1462.03  1465.26
eigval :     1474.30  1475.90  1478.90  1479.75  1484.90  1498.24
eigval :     1504.80  1507.39  1534.33  1536.39  1544.79  1547.52
eigval :     1556.89  1568.72  1569.83  1570.66  1570.79  1586.07
eigval :     1589.75  1590.33  1593.37  2195.60  3069.28  3069.73
eigval :     3069.85  3070.24  3070.91  3071.13  3071.34  3071.65
eigval :     3078.54  3079.45  3079.67  3079.78  3079.94  3080.54
eigval :     3082.76  3082.83  3083.05  3083.07  3084.35  3084.78
eigval :     3087.30  3089.01  3090.36  3090.67  3090.81  3091.26
eigval :     3091.96  3092.11  3094.15  3094.43  3096.76  3097.55
eigval :     3098.70  3100.77  3109.38

   temp. (K)  partition function   enthalpy   heat capacity  entropy
                                   cal/mol     cal/K/mol   cal/K/mol   J/K/mol
 298.15  VIB  0.152E+23            27401.729    171.422    172.258
         ROT  0.196E+09              888.752      2.981     40.924
         INT  0.298E+31            28290.482    174.403    213.182
         TR   0.194E+29             1481.254      4.968     45.655
         TOT                       29771.7356   179.3713   258.8367  1082.9728

       T/K    H(0)-H(T)+PV         H(T)/Eh          T*S/Eh         G(T)/Eh
   ------------------------------------------------------------------------
    298.15    0.474443E-01    0.752918E+00    0.122982E+00    0.629936E+00
   ------------------------------------------------------------------------

         :::::::::::::::::::::::::::::::::::::::::::::::::::::
         ::                  THERMODYNAMIC                  ::
         :::::::::::::::::::::::::::::::::::::::::::::::::::::
         :: total free energy        -143.757924436304 Eh   ::
         ::.................................................::
         :: total energy             -144.387860864480 Eh   ::
         :: zero point energy           0.705473823018 Eh   ::
         :: G(RRHO) w/o ZPVE           -0.075537394842 Eh   ::
         :: G(RRHO) contrib.            0.629936428176 Eh   ::
         :::::::::::::::::::::::::::::::::::::::::::::::::::::

           -------------------------------------------------
          | TOTAL ENERGY             -144.387860864480 Eh   |
          | TOTAL ENTHALPY           -143.634942760770 Eh   |
          | TOTAL FREE ENERGY        -143.757924436304 Eh   |
          | GRADIENT NORM               0.000204752234 Eh/α |
          | HOMO-LUMO GAP               0.164390509957 eV   |
           -------------------------------------------------

 * finished run on 2025/07/20 at 06:19:50.260
