   * xtb version 6.7.1 (edcfbbe) compiled by 'albert@albert-system' on 2024-07-22

   ID    Z sym.   atoms
    1    7 N      1, 5, 34
    2    6 C      2-4, 6-33, 35-58
    3    1 H      59-93

          program call               : xtb data2507/toluene/2PCzBN/2PCzBN.xyz --gfn 2 --gbsa toluene --ohess vtight --parallel 40 --molden --ceasefiles --namespace data2507/toluene/2PCzBN/2PCzBN_toluene_S0_preOpt
      * Solvation model:               GBSA
        Solvent                        toluene
        Solvent mass                       9.2140E+01 g/mol
          :  Hamiltonian                  GFN2-xTB          :
 * total energy  :  -144.4574941 Eh     change       -0.2029026E-08 Eh
 * total energy  :  -144.4728621 Eh     change       -0.1536798E-01 Eh
 * total energy  :  -144.4765456 Eh     change       -0.3683508E-02 Eh
 * total energy  :  -144.4775765 Eh     change       -0.1030851E-02 Eh
 * total energy  :  -144.4783724 Eh     change       -0.7959260E-03 Eh
 * total energy  :  -144.4787147 Eh     change       -0.3422955E-03 Eh
 * total energy  :  -144.4789840 Eh     change       -0.2692498E-03 Eh
 * total energy  :  -144.4792589 Eh     change       -0.2749438E-03 Eh
 * total energy  :  -144.4794660 Eh     change       -0.2071421E-03 Eh
 * total energy  :  -144.4796853 Eh     change       -0.2192730E-03 Eh
 * total energy  :  -144.4811245 Eh     change       -0.1048343E-05 Eh
 * total energy  :  -144.4811254 Eh     change       -0.9672016E-06 Eh
 * total energy  :  -144.4811263 Eh     change       -0.8514726E-06 Eh
 * total energy  :  -144.4811271 Eh     change       -0.7839797E-06 Eh
 * total energy  :  -144.4811277 Eh     change       -0.6778036E-06 Eh
 * total energy  :  -144.4811284 Eh     change       -0.6362336E-06 Eh
 * total energy  :  -144.4811290 Eh     change       -0.6175350E-06 Eh
 * total energy  :  -144.4811296 Eh     change       -0.6248099E-06 Eh
 * total energy  :  -144.4811296 Eh     change       -0.4120352E-08 Eh
   *** GEOMETRY OPTIMIZATION CONVERGED AFTER 68 ITERATIONS ***

 final structure:
================
93
 xtb: 6.7.1 (edcfbbe)
N            0.00020379319555        0.00053982647772        1.25495796379677
C            0.00016507854063        0.00030032394720        0.10696547227234
C            0.00014508547273        0.00012142654989       -1.30434914861024
C            1.21038073374342       -0.12391213874132       -2.01115712202530
N            2.41688489111450       -0.26849587864883       -1.32385147477897
C            2.71383828106594       -1.24730164515729       -0.39115516792873
C            1.95193774549264       -2.32358817640743        0.03616322192187
C            2.51003694270674       -3.18415947807756        0.95965721265962
C            3.81093548005270       -3.00872358645787        1.44964366484515
C            4.35973820211656       -3.95686521795255        2.43260029355357
C            5.66865727562478       -4.42117841954147        2.31998842774037
C            6.18115800522047       -5.31620320918837        3.24112223867537
C            5.39669212510213       -5.75945164579884        4.29319345955574
C            4.09529168416765       -5.30139707972305        4.41756977595015
C            3.57983896754687       -4.40968393896060        3.49480531353715
C            4.58045526647663       -1.94721244786875        0.98998725990859
C            4.03679343929676       -1.06623909430941        0.06820109238458
C            4.55744509601351        0.08434100711327       -0.62144328847083
C            5.77323514698429        0.74895382216917       -0.58074740340946
C            5.96303572741924        1.86806878132789       -1.38282827056213
C            7.24531909571874        2.59027457836876       -1.35874887337944
C            8.45155071599857        1.89304718371097       -1.33432021067896
C            9.65717429979524        2.56976264528754       -1.31209671202328
C            9.67914419505012        3.95480653302561       -1.30944207905750
C            8.48630762244772        4.65863166027245       -1.33084621537862
C            7.27996448589761        3.98323183839639       -1.35750436130950
C            4.92391591684335        2.31045796387330       -2.21221189062496
C            3.70650431219028        1.66176815102240       -2.27155356198094
C            3.53134176200814        0.53750806912789       -1.47921704007477
C            1.19755298291756       -0.10690365040250       -3.40141227988381
C            0.00019323813750       -0.00027730148742       -4.08712085630588
C           -1.19718347666273        0.10653554043518       -3.40147536453492
C           -1.21007166423340        0.12394123021182       -2.01122090695643
N           -2.41662738493008        0.26858386898407       -1.32403048923204
C           -2.71370786849639        1.24739775217482       -0.39137512124690
C           -1.95197361897318        2.32382099816662        0.03589954008677
C           -2.51022055094935        3.18437611418110        0.95932448630864
C           -3.81110262236697        3.00878418740196        1.44929511287791
C           -4.36009745434207        3.95685033915200        2.43221571193844
C           -5.66908212983305        4.42095683732386        2.31951127269100
C           -6.18181907038564        5.31582879314361        3.24066075116398
C           -5.39752542711997        5.75912655256362        4.29283969124314
C           -4.09605337609516        5.30129597626352        4.41729252864594
C           -3.58036207490192        4.40973958191189        3.49450867182780
C           -4.58046744589835        1.94715143346109        0.98966430394416
C           -4.03666532902585        1.06622018562339        0.06792747427622
C           -4.55720156040241       -0.08439704295485       -0.62173280834712
C           -5.77298911773302       -0.74901573899758       -0.58115330866162
C           -5.96273582716365       -1.86807479842078       -1.38332281187478
C           -7.24506059272885       -2.59020961709472       -1.35943737298930
C           -8.45124882756862       -1.89290265750843       -1.33507718179299
C           -9.65691790504503       -2.56954017058204       -1.31299393272058
C           -9.67897598188741       -3.95458299602466       -1.31042354661560
C           -8.48618403487879       -4.65848603536841       -1.33177735121677
C           -7.27979435397869       -3.98316333861627       -1.35829094615252
C           -4.92353317547612       -2.31044225522354       -2.21261198071672
C           -3.70610939031094       -1.66175921900037       -2.27180900341132
C           -3.53102752576179       -0.53750079366724       -1.47944982488475
H            0.95389444475196       -2.49626005228519       -0.33930078139971
H            1.93519477866449       -4.03358850989878        1.29758923872516
H            6.28071402495978       -4.09223664872999        1.49240310365432
H            7.19636989099515       -5.67197038012617        3.13661234690768
H            5.79765722838525       -6.45819072438547        5.01302960344925
H            3.47925976802292       -5.63947699902112        5.23875059533398
H            2.56967910091298       -4.04244121669835        3.60671927967370
H            5.58472328192110       -1.79946315247439        1.35695480649727
H            6.55341077961916        0.41526436220898        0.08633409455122
H            8.44179796864307        0.81259916821388       -1.35224773093492
H           10.58441447284751        2.01462378459783       -1.29879755351936
H           10.62122712057154        4.48325906327686       -1.29030573415408
H            8.49629788029409        5.73941336954753       -1.32399002492409
H            6.35332353794656        4.53915587434012       -1.35587949745098
H            5.08782790991748        3.17603291160472       -2.83675659944419
H            2.91860242256359        2.02602501892529       -2.91386107113695
H            2.13101702337026       -0.20248057670006       -3.93385009454819
H            0.00020312670596       -0.00044947773297       -5.16606279746059
H           -2.13062908170417        0.20193479681674       -3.93397631892205
H           -0.95395345024910        2.49662513043856       -0.33956383919741
H           -1.93551547112940        4.03391760935042        1.29720835351944
H           -6.28100676520553        4.09196786404068        1.49184687759398
H           -7.19707930504958        5.67143557807953        3.13607703351725
H           -5.79867959111493        6.45773190325262        5.01270034834608
H           -3.48015041630157        5.63942616655620        5.23854899471451
H           -2.57014888780579        4.04266159029032        3.60648190494984
H           -5.58472199456858        1.79927544122561        1.35661696914795
H           -6.55322217102521       -0.41534593488065        0.08587046270338
H           -8.44142080299325       -0.81245477191400       -1.35295839704561
H          -10.58412495532431       -2.01434462990386       -1.29976826130879
H          -10.62109379451158       -4.48297533845524       -1.29139848365068
H           -8.49624923857005       -5.73926665873714       -1.32498031373705
H           -6.35318692114025       -4.53914189401652       -1.35661260605107
H           -5.08738486611121       -3.17599270995105       -2.83720604028567
H           -2.91814485548560       -2.02602558632816       -2.91403290201239

          :  Hamiltonian                  GFN2-xTB          :
         :: gradient norm              0.000066877442 Eh/a0 ::
         :: HOMO-LUMO gap              2.140896397865 eV    ::
         :: SCC energy              -147.293032186269 Eh    ::
         :: -> dispersion             -0.131143572553 Eh    ::
         :: -> Gsolv                  -0.063827433299 Eh    ::
         :: repulsion energy           2.811902569058 Eh    ::

    * Orbital Energies and Occupations

         #    Occupation            Energy/Eh            Energy/eV
      -------------------------------------------------------------
         1        2.0000           -0.6954271             -18.9235
       ...           ...                  ...                  ...
       123        2.0000           -0.4135736             -11.2539
       124        2.0000           -0.4034278             -10.9778
       125        2.0000           -0.4034229             -10.9777
       126        2.0000           -0.4022838             -10.9467
       127        2.0000           -0.4022826             -10.9467
       128        2.0000           -0.4016951             -10.9307
       129        2.0000           -0.4010089             -10.9120
       130        2.0000           -0.3937362             -10.7141
       131        2.0000           -0.3936722             -10.7124
       132        2.0000           -0.3813212             -10.3763
       133        2.0000           -0.3812950             -10.3756
       134        2.0000           -0.3665148              -9.9734
       135        2.0000           -0.3663273              -9.9683 (HOMO)
       136                         -0.2876508              -7.8274 (LUMO)
       137                         -0.2614673              -7.1149
       138                         -0.2506434              -6.8204
       139                         -0.2491266              -6.7791
       140                         -0.2462119              -6.6998
       141                         -0.2461073              -6.6969
       142                         -0.2343358              -6.3766
       143                         -0.2320003              -6.3130
       144                         -0.2215404              -6.0284
       145                         -0.2215392              -6.0284
       146                         -0.2204576              -5.9990
       ...                                ...                  ...
       267                          1.1523168              31.3561
      -------------------------------------------------------------
                  HL-Gap            0.0786765 Eh            2.1409 eV

     #   Z          covCN         q      C6AA      α(0)
     1   7 N        0.911    -0.275    27.099     7.529
     2   6 C        1.909     0.133    27.861     8.524
     3   6 C        2.974    -0.014    28.347     8.733
     4   6 C        2.916     0.074    26.350     8.418
     5   7 N        2.802    -0.051    22.223     7.002
     6   6 C        3.070     0.047    26.878     8.501
     7   6 C        2.908    -0.048    29.195     8.860
     8   6 C        2.929    -0.036    28.902     8.817
     9   6 C        2.976     0.001    27.995     8.679
    10   6 C        2.977     0.010    27.792     8.648
    11   6 C        2.925    -0.035    28.882     8.813
    12   6 C        2.918    -0.031    28.774     8.796
    13   6 C        2.920    -0.033    28.818     8.803
    14   6 C        2.918    -0.031    28.765     8.795
    15   6 C        2.925    -0.035    28.870     8.811
    16   6 C        2.918    -0.038    28.942     8.822
    17   6 C        3.064    -0.016    28.353     8.732
    18   6 C        3.063    -0.016    28.339     8.730
    19   6 C        2.918    -0.037    28.931     8.820
    20   6 C        2.976     0.001    28.009     8.681
    21   6 C        2.977     0.010    27.797     8.648
    22   6 C        2.925    -0.035    28.880     8.813
    23   6 C        2.918    -0.031    28.770     8.796
    24   6 C        2.920    -0.033    28.817     8.803
    25   6 C        2.918    -0.031    28.771     8.796
    26   6 C        2.925    -0.036    28.884     8.814
    27   6 C        2.929    -0.038    28.935     8.822
    28   6 C        2.908    -0.053    29.305     8.877
    29   6 C        3.072     0.045    26.912     8.506
    30   6 C        2.920    -0.044    29.099     8.846
    31   6 C        2.917    -0.018    28.469     8.750
    32   6 C        2.920    -0.044    29.100     8.846
    33   6 C        2.916     0.074    26.350     8.418
    34   7 N        2.802    -0.051    22.223     7.002
    35   6 C        3.070     0.047    26.878     8.501
    36   6 C        2.908    -0.048    29.194     8.860
    37   6 C        2.929    -0.036    28.902     8.817
    38   6 C        2.976     0.001    27.995     8.679
    39   6 C        2.977     0.010    27.792     8.648
    40   6 C        2.925    -0.035    28.882     8.813
    41   6 C        2.918    -0.031    28.774     8.796
    42   6 C        2.920    -0.033    28.818     8.803
    43   6 C        2.918    -0.031    28.765     8.795
    44   6 C        2.925    -0.035    28.870     8.811
    45   6 C        2.918    -0.038    28.942     8.822
    46   6 C        3.064    -0.016    28.353     8.732
    47   6 C        3.063    -0.016    28.339     8.730
    48   6 C        2.918    -0.037    28.931     8.820
    49   6 C        2.976     0.001    28.009     8.681
    50   6 C        2.977     0.010    27.797     8.648
    51   6 C        2.925    -0.035    28.880     8.813
    52   6 C        2.918    -0.031    28.770     8.796
    53   6 C        2.920    -0.033    28.817     8.803
    54   6 C        2.918    -0.031    28.771     8.796
    55   6 C        2.925    -0.036    28.884     8.814
    56   6 C        2.929    -0.038    28.935     8.822
    57   6 C        2.908    -0.053    29.305     8.877
    58   6 C        3.072     0.045    26.912     8.506
    59   1 H        0.926     0.020     2.737     2.587
    60   1 H        0.926     0.036     2.497     2.471
    61   1 H        0.926     0.032     2.555     2.499
    62   1 H        0.926     0.031     2.569     2.507
    63   1 H        0.926     0.031     2.578     2.511
    64   1 H        0.926     0.031     2.578     2.511
    65   1 H        0.926     0.031     2.572     2.508
    66   1 H        0.926     0.040     2.455     2.450
    67   1 H        0.926     0.038     2.476     2.460
    68   1 H        0.926     0.032     2.559     2.501
    69   1 H        0.926     0.031     2.578     2.511
    70   1 H        0.926     0.030     2.586     2.515
    71   1 H        0.926     0.030     2.583     2.513
    72   1 H        0.926     0.031     2.569     2.507
    73   1 H        0.926     0.038     2.473     2.459
    74   1 H        0.926     0.032     2.560     2.502
    75   1 H        0.926     0.061     2.183     2.310
    76   1 H        0.926     0.065     2.142     2.288
    77   1 H        0.926     0.061     2.182     2.310
    78   1 H        0.926     0.020     2.737     2.587
    79   1 H        0.926     0.036     2.497     2.471
    80   1 H        0.926     0.032     2.554     2.499
    81   1 H        0.926     0.031     2.569     2.507
    82   1 H        0.926     0.031     2.578     2.511
    83   1 H        0.926     0.031     2.578     2.511
    84   1 H        0.926     0.031     2.572     2.508
    85   1 H        0.926     0.040     2.455     2.450
    86   1 H        0.926     0.038     2.476     2.460
    87   1 H        0.926     0.032     2.559     2.501
    88   1 H        0.926     0.031     2.578     2.511
    89   1 H        0.926     0.030     2.586     2.515
    90   1 H        0.926     0.030     2.583     2.513
    91   1 H        0.926     0.031     2.569     2.507
    92   1 H        0.926     0.038     2.473     2.459
    93   1 H        0.926     0.032     2.560     2.502

molecular dipole:
                 x           y           z       tot (Debye)
 q only:       -0.000      -0.000      -1.778
   full:       -0.000      -0.000      -2.189       5.563

 projected vibrational frequencies (cm⁻¹)
eigval :       -0.00    -0.00    -0.00    -0.00     0.00     0.00
eigval :        5.99     7.55     8.62    25.32    30.15    31.50
eigval :       34.42    36.18    37.50    41.17    42.29    46.46
eigval :       56.05    61.47    65.98    75.62    83.43    91.05
eigval :       99.37   112.80   122.17   122.47   137.33   152.18
eigval :      159.70   163.85   181.63   187.95   207.90   213.56
eigval :      214.89   236.95   244.78   244.81   269.32   274.88
eigval :      279.82   304.23   307.00   316.00   319.30   351.97
eigval :      355.95   370.60   370.61   372.73   372.76   375.18
eigval :      380.61   385.59   397.30   398.57   408.50   430.12
eigval :      431.86   435.55   457.26   475.42   475.61   477.26
eigval :      482.77   500.86   502.48   515.33   542.71   544.74
eigval :      552.68   558.99   562.13   569.79   573.16   585.93
eigval :      586.02   591.14   591.77   599.95   603.49   608.73
eigval :      620.06   623.74   627.57   631.02   640.75   666.01
eigval :      666.23   672.72   672.78   682.38   684.73   684.81
eigval :      694.78   706.76   706.82   716.68   739.56   739.97
eigval :      751.41   756.21   758.25   758.27   764.57   769.63
eigval :      809.15   820.96   821.05   823.86   825.98   856.12
eigval :      863.81   872.82   872.84   874.53   874.76   879.80
eigval :      880.10   881.33   881.97   895.62   901.02   901.18
eigval :      901.31   901.45   905.12   905.31   909.76   910.10
eigval :      910.32   913.15   914.49   929.47   929.57   929.90
eigval :      930.10   930.72   931.76   931.77   934.12   934.16
eigval :      971.06   971.13   980.48   981.03  1024.93  1026.48
eigval :     1035.70  1070.42  1071.36  1071.56  1073.45  1085.21
eigval :     1085.60  1086.37  1086.41  1101.95  1120.20  1120.20
eigval :     1120.34  1120.42  1129.99  1153.79  1157.88  1157.91
eigval :     1179.27  1179.27  1181.14  1181.57  1181.80  1189.96
eigval :     1193.57  1200.00  1200.02  1201.89  1203.30  1212.65
eigval :     1219.51  1220.23  1221.81  1225.44  1240.83  1248.89
eigval :     1277.86  1278.45  1281.00  1281.01  1281.25  1281.27
eigval :     1294.22  1301.77  1303.81  1304.88  1305.68  1316.54
eigval :     1316.57  1317.36  1318.03  1341.71  1344.34  1348.25
eigval :     1355.73  1358.29  1382.76  1407.00  1407.26  1425.45
eigval :     1425.98  1428.67  1428.67  1431.64  1431.81  1446.40
eigval :     1447.75  1459.52  1460.04  1466.06  1466.31  1492.44
eigval :     1492.49  1495.08  1495.09  1545.78  1559.63  1564.90
eigval :     1567.64  1574.97  1575.28  1581.14  1581.15  1583.14
eigval :     1583.31  1593.18  1593.28  1596.51  1596.66  1601.89
eigval :     1601.93  1612.47  1612.97  2354.80  3065.31  3065.32
eigval :     3065.45  3065.45  3066.18  3066.19  3067.06  3067.07
eigval :     3072.31  3072.34  3075.32  3075.33  3075.75  3075.77
eigval :     3077.53  3077.54  3078.54  3078.56  3078.79  3078.82
eigval :     3087.28  3087.30  3087.57  3087.57  3088.15  3088.22
eigval :     3089.26  3089.27  3090.77  3090.80  3093.12  3093.15
eigval :     3095.19  3104.58  3110.42

   temp. (K)  partition function   enthalpy   heat capacity  entropy
                                   cal/mol     cal/K/mol   cal/K/mol   J/K/mol
 298.15  VIB  0.230E+23            27133.911    168.843    171.014
         ROT  0.983E+08              888.752      2.981     39.554
         INT  0.226E+31            28022.664    171.824    210.568
         TR   0.194E+29             1481.254      4.968     45.655
         TOT                       29503.9177   176.7922   256.2228  1072.0361

       T/K    H(0)-H(T)+PV         H(T)/Eh          T*S/Eh         G(T)/Eh
   ------------------------------------------------------------------------
    298.15    0.470175E-01    0.758185E+00    0.121740E+00    0.636445E+00
   ------------------------------------------------------------------------

         :::::::::::::::::::::::::::::::::::::::::::::::::::::
         ::                  THERMODYNAMIC                  ::
         :::::::::::::::::::::::::::::::::::::::::::::::::::::
         :: total free energy        -143.844684612504 Eh   ::
         ::.................................................::
         :: total energy             -144.481129618629 Eh   ::
         :: zero point energy           0.711167230218 Eh   ::
         :: G(RRHO) w/o ZPVE           -0.074722224092 Eh   ::
         :: G(RRHO) contrib.            0.636445006126 Eh   ::
         :::::::::::::::::::::::::::::::::::::::::::::::::::::

           -------------------------------------------------
          | TOTAL ENERGY             -144.481129618629 Eh   |
          | TOTAL ENTHALPY           -143.722944902835 Eh   |
          | TOTAL FREE ENERGY        -143.844684612504 Eh   |
          | GRADIENT NORM               0.000066849605 Eh/α |
          | HOMO-LUMO GAP               2.140896442557 eV   |
           -------------------------------------------------

 * finished run on 2025/07/20 at 06:13:02.042
