   * xtb version 6.7.1 (edcfbbe) compiled by 'albert@albert-system' on 2024-07-22

   ID    Z sym.   atoms
    1    7 N      1, 5, 34
    2    6 C      2-4, 6-33, 35-58
    3    1 H      59-93

          program call               : xtb data2507/toluene/2PCzBN/2PCzBN_toluene_S0_crest.xyz --gfn 2 --gbsa toluene --ohess vtight --parallel 40 --molden --ceasefiles --namespace data2507/toluene/2PCzBN/2PCzBN_toluene_S0_finalOpt
      * Solvation model:               GBSA
        Solvent                        toluene
        Solvent mass                       9.2140E+01 g/mol
          :  Hamiltonian                  GFN2-xTB          :
 * total energy  :  -144.4816598 Eh     change       -0.1073033E-08 Eh
 * total energy  :  -144.4817010 Eh     change       -0.4120362E-04 Eh
 * total energy  :  -144.4817231 Eh     change       -0.2213753E-04 Eh
 * total energy  :  -144.4817309 Eh     change       -0.7754677E-05 Eh
 * total energy  :  -144.4817385 Eh     change       -0.7651760E-05 Eh
 * total energy  :  -144.4817457 Eh     change       -0.7186272E-05 Eh
 * total energy  :  -144.4817515 Eh     change       -0.5772164E-05 Eh
 * total energy  :  -144.4817563 Eh     change       -0.4813108E-05 Eh
 * total energy  :  -144.4817612 Eh     change       -0.4876682E-05 Eh
 * total energy  :  -144.4817663 Eh     change       -0.5115733E-05 Eh
 * total energy  :  -144.4818346 Eh     change       -0.2629823E-05 Eh
 * total energy  :  -144.4818372 Eh     change       -0.2520420E-05 Eh
 * total energy  :  -144.4818393 Eh     change       -0.2178661E-05 Eh
 * total energy  :  -144.4818412 Eh     change       -0.1885577E-05 Eh
 * total energy  :  -144.4818430 Eh     change       -0.1754565E-05 Eh
 * total energy  :  -144.4818448 Eh     change       -0.1839784E-05 Eh
 * total energy  :  -144.4818469 Eh     change       -0.2095784E-05 Eh
 * total energy  :  -144.4818492 Eh     change       -0.2244802E-05 Eh
 * total energy  :  -144.4818492 Eh     change       -0.4523855E-08 Eh
   *** GEOMETRY OPTIMIZATION CONVERGED AFTER 44 ITERATIONS ***

 final structure:
================
93
 xtb: 6.7.1 (edcfbbe)
N           -0.04640510456058       -0.48044269240577        1.20866623320213
C           -0.00665472136283        0.05119469124593        0.19179809840535
C            0.03169959244732        0.78266072656413       -1.01377368132892
C            1.26435018545249        1.16074926288523       -1.57814227730845
N            2.46260692187587        0.70521413061580       -1.03140684343747
C            2.78360159595274       -0.60838864311515       -0.73042237335896
C            2.07130357413188       -1.77337015782882       -0.96705825213175
C            2.63796395407466       -2.97147513194771       -0.58255278450043
C            3.90629368232766       -3.03755926451439        0.00828868733544
C            4.46017609957208       -4.33831160921105        0.41747572925930
C            5.79399924653672       -4.65590173754357        0.17014013031158
C            6.31090212821838       -5.87837261939904        0.55840784933825
C            5.50610059863900       -6.80166063235841        1.20541611954296
C            4.17928046594753       -6.49520610719493        1.45949883819870
C            3.65932916638338       -5.27532157886105        1.06733975052024
C            4.63666646003324       -1.87077063253357        0.19618048902518
C            4.08015936456952       -0.65650573920840       -0.17373784216764
C            4.56079861735561        0.69905678403117       -0.13392669344214
C            5.74057218401825        1.27420775142568        0.31217024680068
C            5.90142726363903        2.65154052518985        0.22175329089005
C            7.14674862158088        3.28935595349324        0.67843046556752
C            7.76433651836355        2.87894337105084        1.85815765116941
C            8.93200877252509        3.48135232430144        2.28914884563190
C            9.50559984442069        4.50104529287401        1.54743764316670
C            8.90236051910316        4.91514517529104        0.37130729749536
C            7.73271076707155        4.31621056189346       -0.05913052414558
C            4.86244792017886        3.43584638868920       -0.29637375454346
C            3.67674030641211        2.88420739988241       -0.73927005840095
C            3.53731078375178        1.50594321385997       -0.67667867310440
C            1.27651099422773        2.01533778323309       -2.67650462102060
C            0.09014495165007        2.48979979145585       -3.20706102962693
C           -1.12740627146526        2.10292563021742       -2.67412749304986
C           -1.17042525232268        1.24080934122723       -1.58454682239331
N           -2.39657893518768        0.84418472045092       -1.04863146801573
C           -3.40774195640336        1.69437198981109       -0.63430443376151
C           -3.44218080255703        3.08011003538387       -0.60144729648935
C           -4.57849159698885        3.68688006421902       -0.10448722082920
C           -5.66982027247177        2.94780234380486        0.37141863235578
C           -6.85639639937382        3.64124003675392        0.89824260772562
C           -7.48840242755610        3.18582558127686        2.05369526518134
C           -8.60256216650961        3.83609612351025        2.55139019501612
C           -9.10736478040188        4.95058227540658        1.90179626785633
C           -8.48831304889719        5.41165895715313        0.75162302832821
C           -7.37171273956784        4.76460420148948        0.25480307529236
C           -5.61762006598246        1.55908862891777        0.35534604897302
C           -4.48917449380056        0.92909746327362       -0.14572064729391
C           -4.11292057590344       -0.45215980094314       -0.28974004922502
C           -4.76319304434869       -1.64660713393286       -0.02267119824395
C           -4.13075629102685       -2.84652953698637       -0.32412558706992
C           -4.80369999746004       -4.12845400711983       -0.05852018969272
C           -5.49908249321108       -4.33149914270635        1.13169255389034
C           -6.13206592799354       -5.53522330378769        1.38184672399731
C           -6.08565892418170       -6.55508492063286        0.44559631644676
C           -5.40082676512261       -6.36304730474938       -0.74304279545798
C           -4.76309419578005       -5.16167347640721       -0.99246698789284
C           -2.85338643353134       -2.83039755384433       -0.89876856723972
C           -2.18679380838194       -1.65208316530186       -1.16687580848787
C           -2.81409185939375       -0.45953359308293       -0.84358547899982
H            1.10236136461381       -1.75779004057098       -1.44237718090242
H            2.09677173740193       -3.88859475308055       -0.76185822799576
H            6.42285615008668       -3.94583709161921       -0.34764564578071
H            7.34601352780400       -6.11298924624112        0.35447996969768
H            5.91099265078439       -7.75557489543146        1.51073174391468
H            3.54723483704038       -7.20913298293865        1.96831761552764
H            2.62837437242178       -5.03414211390010        1.28394003657386
H            5.61871101285213       -1.90557819367493        0.64269129048888
H            6.52998992414971        0.65525694153570        0.71035322988630
H            7.31242289892389        2.09656109054788        2.45097439562416
H            9.39557550272255        3.15581191234866        3.20958284599424
H           10.41809847479450        4.97097198265052        1.88465086092642
H            9.34708762454353        5.70736140836646       -0.21411173921247
H            7.27715687178940        4.63319846036979       -0.98628742388785
H            4.98474664959320        4.50834876732656       -0.32713006777736
H            2.88320801994027        3.51542528646661       -1.10958854617453
H            2.22225656772777        2.28973045749837       -3.11650640453212
H            0.11367083862770        3.14981784092010       -4.06035730128049
H           -2.05307840697244        2.44939336230504       -3.10611962925021
H           -2.60496786370872        3.67175419321169       -0.94028743008552
H           -4.61863835729415        4.76497413464744       -0.05702902814668
H           -7.08908078475567        2.32775346666687        2.57521328172114
H           -9.07782110089547        3.47385293237369        3.45195112164164
H           -9.97874582398827        5.45740661554694        2.29030440399059
H           -8.87917457789118        6.27876114609236        0.23834376221264
H           -6.90463468647339        5.12018438929715       -0.65240886686895
H           -6.45130573761541        0.97518043291118        0.71448286693927
H           -5.76155164507853       -1.64302105698840        0.38775418091164
H           -5.52494223641345       -3.54536056374524        1.87263758451577
H           -6.66189055711122       -5.67976710879998        2.31266353016294
H           -6.58153513748501       -7.49481368696290        0.64083775350446
H           -5.36490762966185       -7.15299315505167       -1.47982247555566
H           -4.24479561317691       -5.01285427045207       -1.92896463204496
H           -2.37012242790958       -3.76928278371133       -1.12507739169662
H           -1.20793351270808       -1.66964734906195       -1.62208274121478

          :  Hamiltonian                  GFN2-xTB          :
         :: gradient norm              0.000113452064 Eh/a0 ::
         :: HOMO-LUMO gap              2.148854080156 eV    ::
         :: SCC energy              -147.294317029049 Eh    ::
         :: -> dispersion             -0.132146243426 Eh    ::
         :: -> Gsolv                  -0.063647753836 Eh    ::
         :: repulsion energy           2.812467866369 Eh    ::

    * Orbital Energies and Occupations

         #    Occupation            Energy/Eh            Energy/eV
      -------------------------------------------------------------
         1        2.0000           -0.6946111             -18.9013
       ...           ...                  ...                  ...
       123        2.0000           -0.4124036             -11.2221
       124        2.0000           -0.4034117             -10.9774
       125        2.0000           -0.4032407             -10.9727
       126        2.0000           -0.4028158             -10.9612
       127        2.0000           -0.4026772             -10.9574
       128        2.0000           -0.4025003             -10.9526
       129        2.0000           -0.4012769             -10.9193
       130        2.0000           -0.3940004             -10.7213
       131        2.0000           -0.3935135             -10.7080
       132        2.0000           -0.3817559             -10.3881
       133        2.0000           -0.3815068             -10.3813
       134        2.0000           -0.3679840             -10.0134
       135        2.0000           -0.3654930              -9.9456 (HOMO)
       136                         -0.2865241              -7.7967 (LUMO)
       137                         -0.2609499              -7.1008
       138                         -0.2508877              -6.8270
       139                         -0.2493858              -6.7861
       140                         -0.2464203              -6.7054
       141                         -0.2463086              -6.7024
       142                         -0.2345193              -6.3816
       143                         -0.2319303              -6.3111
       144                         -0.2215281              -6.0281
       145                         -0.2213616              -6.0236
       146                         -0.2209270              -6.0117
       ...                                ...                  ...
       267                          1.1514394              31.3323
      -------------------------------------------------------------
                  HL-Gap            0.0789689 Eh            2.1489 eV

     #   Z          covCN         q      C6AA      α(0)
     1   7 N        0.911    -0.278    27.179     7.540
     2   6 C        1.910     0.132    27.867     8.525
     3   6 C        2.975    -0.014    28.366     8.736
     4   6 C        2.915     0.073    26.360     8.419
     5   7 N        2.801    -0.048    22.174     6.994
     6   6 C        3.069     0.047    26.886     8.502
     7   6 C        2.909    -0.047    29.167     8.856
     8   6 C        2.929    -0.036    28.904     8.817
     9   6 C        2.977     0.002    27.987     8.678
    10   6 C        2.977     0.010    27.793     8.648
    11   6 C        2.925    -0.035    28.880     8.813
    12   6 C        2.918    -0.031    28.771     8.796
    13   6 C        2.920    -0.033    28.814     8.803
    14   6 C        2.918    -0.031    28.763     8.795
    15   6 C        2.925    -0.035    28.867     8.811
    16   6 C        2.918    -0.038    28.939     8.822
    17   6 C        3.064    -0.016    28.345     8.730
    18   6 C        3.063    -0.015    28.326     8.728
    19   6 C        2.918    -0.037    28.930     8.820
    20   6 C        2.976     0.001    27.995     8.679
    21   6 C        2.977     0.010    27.796     8.648
    22   6 C        2.925    -0.035    28.876     8.812
    23   6 C        2.918    -0.031    28.766     8.795
    24   6 C        2.920    -0.033    28.815     8.803
    25   6 C        2.918    -0.031    28.773     8.796
    26   6 C        2.925    -0.036    28.886     8.814
    27   6 C        2.929    -0.037    28.933     8.821
    28   6 C        2.908    -0.052    29.299     8.876
    29   6 C        3.070     0.045    26.922     8.508
    30   6 C        2.920    -0.046    29.144     8.853
    31   6 C        2.917    -0.019    28.480     8.751
    32   6 C        2.920    -0.046    29.134     8.851
    33   6 C        2.917     0.074    26.357     8.419
    34   7 N        2.802    -0.050    22.213     7.000
    35   6 C        3.071     0.045    26.910     8.506
    36   6 C        2.908    -0.052    29.300     8.876
    37   6 C        2.929    -0.037    28.932     8.821
    38   6 C        2.976     0.001    28.006     8.681
    39   6 C        2.977     0.010    27.797     8.648
    40   6 C        2.925    -0.035    28.878     8.813
    41   6 C        2.918    -0.031    28.768     8.795
    42   6 C        2.920    -0.033    28.817     8.803
    43   6 C        2.918    -0.031    28.774     8.796
    44   6 C        2.925    -0.036    28.887     8.814
    45   6 C        2.918    -0.037    28.932     8.820
    46   6 C        3.064    -0.016    28.338     8.729
    47   6 C        3.064    -0.016    28.350     8.731
    48   6 C        2.918    -0.038    28.937     8.821
    49   6 C        2.976     0.001    27.999     8.680
    50   6 C        2.977     0.010    27.791     8.647
    51   6 C        2.925    -0.035    28.868     8.811
    52   6 C        2.918    -0.031    28.764     8.795
    53   6 C        2.920    -0.033    28.816     8.803
    54   6 C        2.918    -0.031    28.771     8.796
    55   6 C        2.925    -0.035    28.881     8.813
    56   6 C        2.929    -0.037    28.912     8.818
    57   6 C        2.909    -0.048    29.188     8.859
    58   6 C        3.071     0.047    26.870     8.499
    59   1 H        0.926     0.019     2.754     2.595
    60   1 H        0.926     0.037     2.495     2.470
    61   1 H        0.926     0.032     2.552     2.498
    62   1 H        0.926     0.031     2.567     2.505
    63   1 H        0.926     0.031     2.575     2.509
    64   1 H        0.926     0.031     2.575     2.510
    65   1 H        0.926     0.031     2.572     2.508
    66   1 H        0.926     0.040     2.451     2.448
    67   1 H        0.926     0.039     2.468     2.457
    68   1 H        0.926     0.031     2.566     2.505
    69   1 H        0.926     0.030     2.581     2.512
    70   1 H        0.926     0.030     2.585     2.514
    71   1 H        0.926     0.031     2.576     2.510
    72   1 H        0.926     0.032     2.553     2.499
    73   1 H        0.926     0.039     2.464     2.455
    74   1 H        0.926     0.034     2.532     2.488
    75   1 H        0.926     0.061     2.183     2.310
    76   1 H        0.926     0.064     2.154     2.295
    77   1 H        0.926     0.060     2.193     2.316
    78   1 H        0.926     0.032     2.554     2.499
    79   1 H        0.926     0.038     2.470     2.458
    80   1 H        0.926     0.031     2.568     2.506
    81   1 H        0.926     0.030     2.582     2.513
    82   1 H        0.926     0.030     2.586     2.515
    83   1 H        0.926     0.031     2.577     2.511
    84   1 H        0.926     0.032     2.556     2.500
    85   1 H        0.926     0.038     2.473     2.459
    86   1 H        0.926     0.039     2.460     2.453
    87   1 H        0.926     0.032     2.562     2.503
    88   1 H        0.926     0.031     2.570     2.507
    89   1 H        0.926     0.031     2.577     2.510
    90   1 H        0.926     0.031     2.575     2.509
    91   1 H        0.926     0.031     2.572     2.508
    92   1 H        0.926     0.036     2.496     2.471
    93   1 H        0.926     0.018     2.768     2.602

molecular dipole:
                 x           y           z       tot (Debye)
 q only:        0.126       0.995      -1.439
   full:        0.127       1.187      -1.789       5.466

 projected vibrational frequencies (cm⁻¹)
eigval :       -0.00    -0.00     0.00     0.00     0.00     0.00
eigval :        6.55    11.40    11.62    25.25    35.75    36.29
eigval :       38.70    39.61    42.11    43.33    45.34    52.63
eigval :       57.28    61.06    73.05    77.08    83.24    90.59
eigval :      104.11   114.76   122.76   131.93   132.55   151.99
eigval :      153.36   161.01   173.27   195.39   207.11   217.71
eigval :      221.94   233.49   246.63   252.18   269.73   276.67
eigval :      285.55   298.30   305.82   312.89   328.37   342.23
eigval :      360.18   372.18   372.79   373.25   374.59   378.98
eigval :      386.12   395.25   395.67   397.68   403.29   427.36
eigval :      434.61   435.64   448.54   474.57   475.65   482.88
eigval :      485.87   499.31   502.98   527.95   528.94   543.87
eigval :      555.29   557.36   567.67   570.75   579.70   586.26
eigval :      586.74   589.86   591.77   595.54   603.97   608.65
eigval :      617.75   625.00   625.35   632.24   641.65   667.97
eigval :      669.23   672.20   674.51   681.37   685.09   685.67
eigval :      689.98   706.52   707.05   718.14   739.42   740.04
eigval :      752.23   757.07   759.02   759.28   765.10   772.40
eigval :      804.00   812.43   821.24   823.90   827.64   856.40
eigval :      863.55   871.24   872.51   873.20   874.83   877.98
eigval :      879.70   880.42   881.69   895.58   900.53   901.64
eigval :      902.14   902.66   903.32   904.92   907.52   909.79
eigval :      911.19   913.94   915.99   924.84   927.60   930.48
eigval :      930.55   931.00   931.31   932.31   932.72   934.13
eigval :      971.23   971.29   980.46   981.18  1024.47  1026.72
eigval :     1035.78  1070.62  1071.18  1071.98  1073.49  1084.86
eigval :     1085.52  1085.78  1086.58  1104.57  1120.01  1120.36
eigval :     1120.90  1120.97  1130.46  1150.04  1157.30  1159.53
eigval :     1180.34  1180.88  1181.31  1182.21  1182.85  1191.47
eigval :     1192.02  1199.45  1199.96  1202.21  1202.64  1213.01
eigval :     1217.59  1219.88  1222.17  1226.07  1240.34  1248.90
eigval :     1277.30  1277.69  1279.59  1280.73  1280.88  1281.17
eigval :     1294.29  1301.21  1303.95  1304.99  1305.60  1316.52
eigval :     1316.60  1317.39  1318.11  1342.14  1345.00  1347.40
eigval :     1355.18  1358.13  1382.48  1406.34  1407.20  1424.88
eigval :     1425.82  1428.60  1428.66  1431.37  1431.77  1445.70
eigval :     1447.96  1459.38  1459.83  1465.87  1466.41  1492.34
eigval :     1492.59  1494.93  1495.19  1545.29  1559.54  1565.16
eigval :     1567.57  1574.92  1575.53  1581.09  1581.15  1583.11
eigval :     1583.41  1593.21  1593.47  1596.47  1596.72  1601.91
eigval :     1602.11  1612.50  1613.39  2353.75  3065.55  3065.96
eigval :     3066.00  3066.63  3066.88  3066.97  3067.28  3067.71
eigval :     3074.94  3075.40  3075.79  3076.05  3076.14  3078.28
eigval :     3078.33  3078.48  3078.62  3079.67  3079.79  3080.63
eigval :     3087.61  3087.74  3087.95  3088.15  3088.38  3089.00
eigval :     3089.52  3090.81  3090.87  3092.05  3093.21  3094.16
eigval :     3094.65  3108.39  3112.84

   temp. (K)  partition function   enthalpy   heat capacity  entropy
                                   cal/mol     cal/K/mol   cal/K/mol   J/K/mol
 298.15  VIB  0.385E+22            27036.173    169.529    169.684
         ROT  0.195E+09              888.752      2.981     40.916
         INT  0.752E+30            27924.925    172.510    210.600
         TR   0.194E+29             1481.254      4.968     45.655
         TOT                       29406.1792   177.4780   256.2544  1072.1684

       T/K    H(0)-H(T)+PV         H(T)/Eh          T*S/Eh         G(T)/Eh
   ------------------------------------------------------------------------
    298.15    0.468617E-01    0.758270E+00    0.121755E+00    0.636515E+00
   ------------------------------------------------------------------------

         :::::::::::::::::::::::::::::::::::::::::::::::::::::
         ::                  THERMODYNAMIC                  ::
         :::::::::::::::::::::::::::::::::::::::::::::::::::::
         :: total free energy        -143.845334044282 Eh   ::
         ::.................................................::
         :: total energy             -144.481849161277 Eh   ::
         :: zero point energy           0.711408119882 Eh   ::
         :: G(RRHO) w/o ZPVE           -0.074893002886 Eh   ::
         :: G(RRHO) contrib.            0.636515116995 Eh   ::
         :::::::::::::::::::::::::::::::::::::::::::::::::::::

           -------------------------------------------------
          | TOTAL ENERGY             -144.481849161277 Eh   |
          | TOTAL ENTHALPY           -143.723579312043 Eh   |
          | TOTAL FREE ENERGY        -143.845334044282 Eh   |
          | GRADIENT NORM               0.000113543080 Eh/α |
          | HOMO-LUMO GAP               2.148852729636 eV   |
           -------------------------------------------------

 * finished run on 2025/07/20 at 06:19:38.670
