   * xtb version 6.7.1 (edcfbbe) compiled by 'albert@albert-system' on 2024-07-22

   ID    Z sym.   atoms
    1    7 N      1, 5, 34
    2    6 C      2-4, 6-33, 35-58
    3    1 H      59-93

          program call               : xtb data2507/toluene/2PCzBN/2PCzBN_toluene_T1_crest.xyz --gfn 2 --uhf 2 --gbsa toluene --ohess vtight --parallel 40 --molden --ceasefiles --namespace data2507/toluene/2PCzBN/2PCzBN_toluene_T1_finalOpt
      * Solvation model:               GBSA
        Solvent                        toluene
        Solvent mass                       9.2140E+01 g/mol
          :  Hamiltonian                  GFN2-xTB          :
 * total energy  :  -144.3876656 Eh     change       -0.4699902E-07 Eh
 * total energy  :  -144.3877475 Eh     change       -0.8196424E-04 Eh
 * total energy  :  -144.3877732 Eh     change       -0.2563338E-04 Eh
 * total energy  :  -144.3877871 Eh     change       -0.1390860E-04 Eh
 * total energy  :  -144.3877971 Eh     change       -0.1004494E-04 Eh
 * total energy  :  -144.3878068 Eh     change       -0.9687207E-05 Eh
 * total energy  :  -144.3878132 Eh     change       -0.6393032E-05 Eh
 * total energy  :  -144.3878199 Eh     change       -0.6650669E-05 Eh
 * total energy  :  -144.3878243 Eh     change       -0.4460050E-05 Eh
 * total energy  :  -144.3878286 Eh     change       -0.4248793E-05 Eh
 * total energy  :  -144.3878415 Eh     change       -0.2144980E-05 Eh
 * total energy  :  -144.3878434 Eh     change       -0.1870394E-05 Eh
 * total energy  :  -144.3878450 Eh     change       -0.1659388E-05 Eh
 * total energy  :  -144.3878466 Eh     change       -0.1575316E-05 Eh
 * total energy  :  -144.3878479 Eh     change       -0.1263251E-05 Eh
 * total energy  :  -144.3878488 Eh     change       -0.8799437E-06 Eh
 * total energy  :  -144.3878495 Eh     change       -0.6914548E-06 Eh
 * total energy  :  -144.3878502 Eh     change       -0.6932484E-06 Eh
 * total energy  :  -144.3878502 Eh     change       -0.6687543E-08 Eh
   *** GEOMETRY OPTIMIZATION CONVERGED AFTER 22 ITERATIONS ***

 final structure:
================
93
 xtb: 6.7.1 (edcfbbe)
N           -0.00482504629005       -0.50273918502729        1.27008934027628
C            0.00686114929059        0.08378748319466        0.26323329829535
C            0.01668314302657        0.77335189268555       -0.92797700512319
C            1.24845679085147        1.21310922189419       -1.53433222799882
N            2.46356163497934        0.77122342510903       -1.00110430285378
C            2.81294311186485       -0.53663990997528       -0.75101326885378
C            2.11886856496492       -1.70751853828421       -1.02335760089916
C            2.70680327358090       -2.90845451021393       -0.68367380221400
C            3.98149206635782       -2.97160826073091       -0.09913274635962
C            4.56244970830605       -4.27029906328296        0.25773205813519
C            5.91697856727582       -4.53145242141483        0.04577800745975
C            6.45849897225113       -5.75839067637614        0.37940808288990
C            5.66114317016805       -6.74423861645129        0.93903958081053
C            4.31577041787141       -6.49496166779993        1.16011468624184
C            3.76939184916750       -5.27214526172539        0.81954659501764
C            4.69384855376908       -1.79331168134002        0.13153335637732
C            4.11724457538111       -0.57975332723101       -0.19353236299457
C            4.56647751295638        0.78451847360114       -0.11095147952353
C            5.73346605520938        1.37811723889646        0.33297186218164
C            5.85836265400861        2.76756963836349        0.27709387526215
C            7.09348263062325        3.41777005869947        0.72685832579653
C            7.77500220986137        2.95434978071055        1.85375898091872
C            8.93601649508717        3.57125603510211        2.27896355623935
C            9.44505224669829        4.65703389792218        1.58382301079285
C            8.78065808170686        5.12396018092545        0.46057091577239
C            7.61486057533499        4.51437335605345        0.03781472815353
C            4.78852182051014        3.54106931904357       -0.20361145735358
C            3.61195311970106        2.96839102379264       -0.64446118025500
C            3.50938881168030        1.58359908813918       -0.62006503136104
C            1.23425684959986        2.07461186705639       -2.60806471968872
C            0.03175241928385        2.52986889325656       -3.15385445002534
C           -1.17918727058306        2.09663026693093       -2.60620752667891
C           -1.20616737861856        1.23347815441479       -1.53504308936775
N           -2.42875210347767        0.80589632204421       -1.00469145703532
C           -3.45628601124744        1.63208741718172       -0.60556587015473
C           -3.52618682119669        3.01901301399887       -0.59740565749301
C           -4.68791603692106        3.60816681164119       -0.13898763797165
C           -5.77366177432733        2.84851486363046        0.32678516257553
C           -6.99065801214530        3.51646985253109        0.80036621473263
C           -7.67202361133671        3.04455820861991        1.92359474068300
C           -8.81512715329120        3.67794968668258        2.37259271641245
C           -9.30584485934628        4.78900334607198        1.70486474744508
C           -8.64135764574887        5.26457791089902        0.58535597527520
C           -7.49315419477030        4.63838446814293        0.13909791769703
C           -5.68293664872511        1.45549043390696        0.34610360902268
C           -4.53185119855969        0.84567647734315       -0.11714434515506
C           -4.11331618917634       -0.52621705735746       -0.23174038485770
C           -4.72017671423105       -1.73361389818414        0.05769833603074
C           -4.04491280020427       -2.92320953152845       -0.22294161697982
C           -4.67737317785104       -4.21492427724972        0.06512873634083
C           -5.42886668205807       -4.39537751511337        1.22764877227646
C           -6.02612886423990       -5.61141353335283        1.49989824715689
C           -5.89306855122335       -6.66864287352595        0.61355710805854
C           -5.15278662976903       -6.50134197538198       -0.54618374817248
C           -4.54683967260416       -5.28918201365331       -0.81661900470356
C           -2.76563605032197       -2.87438121751875       -0.79879098462249
C           -2.13944954873151       -1.67874047487370       -1.08553859810362
C           -2.80684680794682       -0.49923665648148       -0.78528776543362
H            1.14861425778756       -1.68351552735778       -1.49357679219053
H            2.18322011729999       -3.82771482307699       -0.89729707751933
H            6.54017028652081       -3.77519649728742       -0.40877525227793
H            7.50698307463161       -5.94892009373526        0.20078245753714
H            6.08598191829292       -7.70175025126644        1.20228607852362
H            3.69034689966440       -7.25724314750573        1.60216251943561
H            2.72503955236561       -5.07592981742067        1.01406809900273
H            5.67451999561419       -1.82806216737755        0.58055263041875
H            6.54793619921059        0.77128482062209        0.69731644389669
H            7.37346874161141        2.12265987205119        2.41409489571828
H            9.44602044371606        3.20631787615035        3.15891570823227
H           10.35420330321465        5.13656144994839        1.91565627453872
H            9.17563851316245        5.96627727340193       -0.08909841314267
H            7.11424692064421        4.87212771458022       -0.84999971681419
H            4.87909028083572        4.61652053072272       -0.20023018701252
H            2.79234922153165        3.58147405223843       -0.98749736577972
H            2.17191957306126        2.36755861808535       -3.05766940539398
H            0.03701612717941        3.18017391042298       -4.01254307650058
H           -2.11226667396502        2.40827574520720       -3.05275546440387
H           -2.69262882378097        3.62011390304395       -0.92800020791976
H           -4.75347524546161        4.68505844730258       -0.10941161542920
H           -7.28410059351725        2.19231034515465        2.46216495068119
H           -9.32532824572193        3.30611847021409        3.24954145163694
H          -10.20103961373362        5.28149955808338        2.05510203853256
H           -9.02212376794892        6.12705984420714        0.05736436480618
H           -6.99207266973027        5.00356396264250       -0.74544416476868
H           -6.51125877048930        0.85941642919187        0.69676253732568
H           -5.71930659982869       -1.75764206674675        0.46490522692551
H           -5.51965242568270       -3.58265597732754        1.93339495353581
H           -6.59677469058876       -5.73714362960644        2.40880504534389
H           -6.36382192334232       -7.61745815110075        0.82515001935899
H           -5.04949632626736       -7.31989207809704       -1.24399587305167
H           -3.98859866157538       -5.16137215763079       -1.73249671109320
H           -2.24828437127976       -3.79873958579684       -1.00500338790101
H           -1.15831856436231       -1.66478996984027       -1.53329843224649

          :  Hamiltonian                  GFN2-xTB          :
         :: gradient norm              0.000068220893 Eh/a0 ::
         :: HOMO-LUMO gap              0.167498424289 eV    ::
         :: SCC energy              -147.176539730121 Eh    ::
         :: -> dispersion             -0.132047989384 Eh    ::
         :: -> Gsolv                  -0.067345438499 Eh    ::
         :: repulsion energy           2.788689570227 Eh    ::

    * Orbital Energies and Occupations

         #    Occupation            Energy/Eh            Energy/eV
      -------------------------------------------------------------
         1        2.0000           -0.6878562             -18.7175
       ...           ...                  ...                  ...
       124        2.0000           -0.4068521             -11.0710
       125        2.0000           -0.4065060             -11.0616
       126        2.0000           -0.4064090             -11.0590
       127        2.0000           -0.4018360             -10.9345
       128        2.0000           -0.3983396             -10.8394
       129        2.0000           -0.3977287             -10.8227
       130        2.0000           -0.3946340             -10.7385
       131        2.0000           -0.3902529             -10.6193
       132        2.0000           -0.3841781             -10.4540
       133        2.0000           -0.3840758             -10.4512
       134        1.6604           -0.3667892              -9.9808
       135        1.3396           -0.3655256              -9.9465
       136        0.9556           -0.2612690              -7.1095 (HOMO)
       137        0.0320           -0.2551130              -6.9420 (LUMO)
       138        0.0076           -0.2537240              -6.9042
       139        0.0025           -0.2526773              -6.8757
       140        0.0023           -0.2525843              -6.8732
       141        0.0000           -0.2442949              -6.6476
       142                         -0.2385945              -6.4925
       143                         -0.2249971              -6.1225
       144                         -0.2245650              -6.1107
       145                         -0.2244827              -6.1085
       146                         -0.2241512              -6.0995
       147                         -0.2240743              -6.0974
       ...                                ...                  ...
       267                          1.1632160              31.6527
      -------------------------------------------------------------
                  HL-Gap            0.0061560 Eh            0.1675 eV

     #   Z          covCN         q      C6AA      α(0)
     1   7 N        0.911    -0.398    30.294     7.960
     2   6 C        1.906     0.099    28.642     8.643
     3   6 C        2.962    -0.051    29.254     8.872
     4   6 C        2.910     0.039    27.121     8.539
     5   7 N        2.800    -0.016    21.558     6.896
     6   6 C        3.076     0.051    26.775     8.484
     7   6 C        2.908    -0.035    28.861     8.809
     8   6 C        2.927    -0.038    28.951     8.824
     9   6 C        2.976     0.011    27.762     8.643
    10   6 C        2.977     0.013    27.725     8.637
    11   6 C        2.924    -0.033    28.821     8.804
    12   6 C        2.918    -0.029    28.729     8.790
    13   6 C        2.919    -0.029    28.729     8.790
    14   6 C        2.918    -0.029    28.718     8.788
    15   6 C        2.924    -0.032    28.799     8.801
    16   6 C        2.916    -0.034    28.856     8.809
    17   6 C        3.060    -0.014    28.300     8.724
    18   6 C        3.060    -0.014    28.298     8.724
    19   6 C        2.916    -0.034    28.846     8.807
    20   6 C        2.975     0.010    27.792     8.647
    21   6 C        2.976     0.012    27.744     8.640
    22   6 C        2.924    -0.033    28.826     8.805
    23   6 C        2.918    -0.029    28.730     8.790
    24   6 C        2.919    -0.030    28.744     8.792
    25   6 C        2.917    -0.029    28.734     8.790
    26   6 C        2.924    -0.033    28.831     8.805
    27   6 C        2.926    -0.041    29.009     8.833
    28   6 C        2.907    -0.042    29.042     8.836
    29   6 C        3.077     0.046    26.890     8.502
    30   6 C        2.914    -0.045    29.116     8.848
    31   6 C        2.913    -0.067    29.657     8.930
    32   6 C        2.914    -0.045    29.117     8.848
    33   6 C        2.910     0.040    27.107     8.537
    34   7 N        2.800    -0.017    21.582     6.900
    35   6 C        3.078     0.047    26.874     8.499
    36   6 C        2.907    -0.042    29.046     8.837
    37   6 C        2.926    -0.040    29.000     8.831
    38   6 C        2.975     0.010    27.794     8.648
    39   6 C        2.976     0.012    27.743     8.640
    40   6 C        2.924    -0.033    28.825     8.804
    41   6 C        2.918    -0.029    28.730     8.790
    42   6 C        2.919    -0.030    28.743     8.792
    43   6 C        2.918    -0.029    28.733     8.790
    44   6 C        2.924    -0.033    28.830     8.805
    45   6 C        2.916    -0.034    28.849     8.808
    46   6 C        3.060    -0.014    28.298     8.723
    47   6 C        3.061    -0.014    28.300     8.724
    48   6 C        2.916    -0.034    28.855     8.809
    49   6 C        2.976     0.011    27.771     8.644
    50   6 C        2.976     0.013    27.728     8.638
    51   6 C        2.924    -0.033    28.810     8.802
    52   6 C        2.918    -0.029    28.723     8.789
    53   6 C        2.919    -0.029    28.734     8.790
    54   6 C        2.918    -0.029    28.729     8.789
    55   6 C        2.924    -0.033    28.820     8.804
    56   6 C        2.926    -0.038    28.956     8.825
    57   6 C        2.908    -0.035    28.877     8.811
    58   6 C        3.076     0.051    26.771     8.483
    59   1 H        0.926     0.030     2.591     2.517
    60   1 H        0.926     0.042     2.419     2.432
    61   1 H        0.926     0.037     2.485     2.465
    62   1 H        0.926     0.036     2.503     2.474
    63   1 H        0.926     0.036     2.509     2.477
    64   1 H        0.926     0.035     2.516     2.480
    65   1 H        0.926     0.035     2.511     2.478
    66   1 H        0.926     0.047     2.351     2.398
    67   1 H        0.926     0.046     2.368     2.406
    68   1 H        0.926     0.036     2.506     2.476
    69   1 H        0.926     0.034     2.525     2.485
    70   1 H        0.926     0.034     2.528     2.486
    71   1 H        0.926     0.034     2.525     2.485
    72   1 H        0.926     0.036     2.503     2.474
    73   1 H        0.926     0.043     2.410     2.428
    74   1 H        0.926     0.040     2.452     2.449
    75   1 H        0.926     0.032     2.551     2.498
    76   1 H        0.926     0.026     2.644     2.543
    77   1 H        0.926     0.032     2.556     2.500
    78   1 H        0.926     0.039     2.457     2.451
    79   1 H        0.926     0.043     2.409     2.427
    80   1 H        0.926     0.036     2.506     2.476
    81   1 H        0.926     0.035     2.523     2.484
    82   1 H        0.926     0.034     2.526     2.486
    83   1 H        0.926     0.034     2.525     2.485
    84   1 H        0.926     0.036     2.504     2.474
    85   1 H        0.926     0.046     2.369     2.407
    86   1 H        0.926     0.047     2.356     2.400
    87   1 H        0.926     0.036     2.501     2.473
    88   1 H        0.926     0.035     2.511     2.478
    89   1 H        0.926     0.035     2.513     2.479
    90   1 H        0.926     0.035     2.514     2.480
    91   1 H        0.926     0.036     2.506     2.475
    92   1 H        0.926     0.042     2.417     2.431
    93   1 H        0.926     0.029     2.596     2.520

molecular dipole:
                 x           y           z       tot (Debye)
 q only:        0.037       0.003      -0.628
   full:        0.031       0.281      -1.016       2.681

 projected vibrational frequencies (cm⁻¹)
eigval :       -0.00    -0.00     0.00     0.00     0.00     0.00
eigval :      -11.95     7.99    10.22    17.55    26.87    35.65
eigval :       38.20    38.57    39.48    42.80    44.22    52.40
eigval :       57.33    59.02    70.81    78.11    83.73    92.28
eigval :      102.45   114.27   118.89   130.11   130.50   147.57
eigval :      150.05   158.95   171.04   193.68   209.50   214.85
eigval :      219.28   235.11   239.99   247.54   266.46   275.77
eigval :      285.73   294.20   301.56   310.68   323.17   341.93
eigval :      357.67   368.42   369.47   370.57   371.47   372.42
eigval :      378.52   383.47   386.58   389.68   394.96   419.26
eigval :      427.76   429.60   443.40   461.76   472.52   474.06
eigval :      475.59   483.81   492.20   496.19   506.65   524.46
eigval :      550.97   552.41   559.09   565.94   578.86   581.63
eigval :      585.11   585.91   590.05   592.06   595.82   602.90
eigval :      607.48   619.17   620.92   625.87   630.45   634.11
eigval :      663.17   665.51   669.37   670.07   677.95   683.84
eigval :      684.96   702.51   702.88   714.89   727.66   732.99
eigval :      733.77   745.74   752.97   755.01   755.41   756.82
eigval :      759.80   807.74   817.37   818.75   819.26   851.53
eigval :      858.32   859.37   860.89   861.54   863.07   863.72
eigval :      872.27   872.78   873.62   874.59   884.89   893.57
eigval :      894.93   899.36   900.47   901.00   902.59   904.03
eigval :      905.57   905.76   906.50   908.20   927.15   927.19
eigval :      927.62   928.15   929.96   930.38   930.90   931.43
eigval :      966.87   966.99   974.23   978.06  1012.51  1021.73
eigval :     1023.12  1059.53  1063.38  1064.10  1064.87  1076.43
eigval :     1082.43  1083.34  1083.56  1083.82  1084.62  1118.05
eigval :     1119.90  1120.24  1120.91  1121.45  1130.55  1135.71
eigval :     1143.33  1179.27  1180.28  1180.87  1180.94  1185.03
eigval :     1185.52  1195.10  1195.23  1195.90  1199.65  1200.46
eigval :     1211.81  1215.32  1217.68  1228.90  1235.65  1244.93
eigval :     1252.03  1258.99  1261.06  1272.16  1272.43  1279.19
eigval :     1279.26  1279.74  1279.76  1282.09  1296.67  1317.53
eigval :     1317.64  1317.75  1318.38  1319.85  1320.44  1321.51
eigval :     1339.77  1351.25  1353.75  1362.30  1365.93  1398.33
eigval :     1400.16  1419.03  1423.52  1424.09  1424.34  1428.08
eigval :     1431.44  1441.12  1441.30  1459.26  1462.25  1465.28
eigval :     1474.49  1476.15  1478.26  1479.76  1484.75  1498.86
eigval :     1505.48  1507.70  1534.82  1535.72  1545.35  1547.47
eigval :     1556.25  1568.75  1569.53  1570.06  1571.05  1586.11
eigval :     1589.96  1590.13  1593.34  2194.91  3069.22  3069.79
eigval :     3070.17  3070.23  3070.93  3071.05  3071.55  3071.87
eigval :     3079.61  3079.70  3080.00  3080.02  3080.75  3080.79
eigval :     3082.87  3082.92  3083.05  3083.11  3084.20  3084.24
eigval :     3088.40  3089.38  3090.32  3090.73  3091.13  3091.36
eigval :     3092.03  3092.15  3094.33  3094.47  3096.33  3097.18
eigval :     3099.77  3101.14  3109.03

   temp. (K)  partition function   enthalpy   heat capacity  entropy
                                   cal/mol     cal/K/mol   cal/K/mol   J/K/mol
 298.15  VIB  0.113E+23            27399.163    171.393    171.865
         ROT  0.196E+09              888.752      2.981     40.921
         INT  0.221E+31            28287.916    174.374    212.786
         TR   0.194E+29             1481.254      4.968     45.655
         TOT                       29769.1696   179.3421   258.4411  1081.3176

       T/K    H(0)-H(T)+PV         H(T)/Eh          T*S/Eh         G(T)/Eh
   ------------------------------------------------------------------------
    298.15    0.474402E-01    0.752948E+00    0.122794E+00    0.630154E+00
   ------------------------------------------------------------------------

         :::::::::::::::::::::::::::::::::::::::::::::::::::::
         ::                  THERMODYNAMIC                  ::
         :::::::::::::::::::::::::::::::::::::::::::::::::::::
         :: total free energy        -143.757695846740 Eh   ::
         ::.................................................::
         :: total energy             -144.387850159118 Eh   ::
         :: zero point energy           0.705507829386 Eh   ::
         :: G(RRHO) w/o ZPVE           -0.075353517008 Eh   ::
         :: G(RRHO) contrib.            0.630154312378 Eh   ::
         :::::::::::::::::::::::::::::::::::::::::::::::::::::

           -------------------------------------------------
          | TOTAL ENERGY             -144.387850159118 Eh   |
          | TOTAL ENTHALPY           -143.634902138254 Eh   |
          | TOTAL FREE ENERGY        -143.757695846740 Eh   |
          | GRADIENT NORM               0.000068715840 Eh/α |
          | HOMO-LUMO GAP               0.167513321574 eV   |
           -------------------------------------------------

 * finished run on 2025/07/20 at 06:29:52.600
