   * xtb version 6.7.1 (edcfbbe) compiled by 'albert@albert-system' on 2024-07-22

   ID    Z sym.   atoms
    1    8 O      1
    2    6 C      2-16, 18-33
    3    7 N      17
    4    1 H      34-54

          program call               : xtb data2507/toluene/PCBP/PCBP_toluene_S0_crest.xyz --gfn 2 --gbsa toluene --ohess vtight --parallel 40 --molden --ceasefiles --namespace data2507/toluene/PCBP/PCBP_toluene_S0_finalOpt
      * Solvation model:               GBSA
        Solvent                        toluene
        Solvent mass                       9.2140E+01 g/mol
          :  Hamiltonian                  GFN2-xTB          :
 * total energy  :   -84.1220459 Eh     change       -0.4848616E-08 Eh
 * total energy  :   -84.1221042 Eh     change       -0.5827426E-04 Eh
 * total energy  :   -84.1221169 Eh     change       -0.1266572E-04 Eh
 * total energy  :   -84.1221197 Eh     change       -0.2785018E-05 Eh
 * total energy  :   -84.1221225 Eh     change       -0.2802133E-05 Eh
 * total energy  :   -84.1221254 Eh     change       -0.2979700E-05 Eh
 * total energy  :   -84.1221274 Eh     change       -0.1954417E-05 Eh
 * total energy  :   -84.1221273 Eh     change        0.1314629E-06 Eh
 * total energy  :   -84.1221289 Eh     change       -0.1629588E-05 Eh
 * total energy  :   -84.1221288 Eh     change        0.1205273E-06 Eh
 * total energy  :   -84.1221539 Eh     change       -0.4828932E-06 Eh
 * total energy  :   -84.1221541 Eh     change       -0.2108585E-06 Eh
 * total energy  :   -84.1221546 Eh     change       -0.5274961E-06 Eh
 * total energy  :   -84.1221554 Eh     change       -0.8195163E-06 Eh
 * total energy  :   -84.1221562 Eh     change       -0.7531860E-06 Eh
 * total energy  :   -84.1221567 Eh     change       -0.4908602E-06 Eh
 * total energy  :   -84.1221570 Eh     change       -0.3000860E-06 Eh
 * total energy  :   -84.1221572 Eh     change       -0.1746981E-06 Eh
 * total energy  :   -84.1221572 Eh     change       -0.1777730E-07 Eh
   *** GEOMETRY OPTIMIZATION CONVERGED AFTER 29 ITERATIONS ***

 final structure:
================
54
 xtb: 6.7.1 (edcfbbe)
O            6.44589164952437       -2.22861723153323        0.63413843209154
C            5.97409821456453       -1.14920225732727        0.30452986941218
C            6.84576443522021       -0.00949591114158       -0.07079361870255
C            6.47533344793252        0.90116455635395       -1.05960032694287
C            7.33089861224059        1.93089591092981       -1.40655186472672
C            8.55389884184774        2.06790687097275       -0.76843163343864
C            8.93341311328187        1.15921690279845        0.20740521189282
C            8.08941583516566        0.11876496732191        0.54633503350370
C            4.51167758545195       -0.92675094164500        0.25975987535498
C            3.67364147527411       -2.00061337392175       -0.04244157178980
C            2.30619703394781       -1.83233912495698       -0.08901313236455
C            1.73277003271250       -0.59230822567392        0.19659888000510
C            0.27576583863985       -0.41390470227812        0.14708610004545
C           -0.38608433467244        0.34907960340309        1.10848473508435
C           -1.75686283474787        0.50663944041596        1.06773280961873
C           -2.49950019106741       -0.08286094282996        0.04762173755766
N           -3.89123772969634        0.07838200455033       -0.00108824646243
C           -4.57127029551629        1.27847508048390        0.07014667441299
C           -4.07586555093181        2.57283140591283        0.14650818346225
C           -4.98618446385379        3.61221074837952        0.17592414264985
C           -6.35904753243779        3.37914486760644        0.12183236751465
C           -6.85741202059092        2.09518438821460        0.02275261053652
C           -5.96197378018047        1.03367630531816       -0.00930860432603
C           -6.11984314757110       -0.38932215188544       -0.12704501824516
C           -7.22638933661876       -1.22388484686847       -0.22197719025562
C           -7.02261971254958       -2.58729412114950       -0.30147214762096
C           -5.73594313255692       -3.12186407456210       -0.27279428264795
C           -4.61987645345287       -2.31231820227252       -0.17890322549689
C           -4.81709613865803       -0.93957431503873       -0.12215572112050
C           -1.84586046384925       -0.83731395637955       -0.92361625290570
C           -0.47737177540303       -1.00612099277826       -0.86626413664362
C            2.57200116126055        0.47085364340696        0.53223715490392
C            3.94259545213033        0.31177601173272        0.55732810020560
H            5.53036298920732        0.78554101148933       -1.56960671587255
H            7.04270710472851        2.63018797515487       -2.17747018540430
H            9.21467844027194        2.87891200394773       -1.03687320458049
H            9.88936996250949        1.25910654180855        0.69980095495552
H            8.37072936939490       -0.60419859312555        1.29868732805649
H            4.12072404489017       -2.96212889453297       -0.25089723333964
H            1.67115342977492       -2.67356410575260       -0.32357012376836
H            0.17534415094169        0.79563667260197        1.91548723464024
H           -2.26303373067391        1.07476057260603        1.83397242366641
H           -3.01406810592750        2.76591022187881        0.17183263870429
H           -4.62552432268843        4.62875017200489        0.23794871231473
H           -7.03895903890478        4.21812130668245        0.14988274153834
H           -7.92075510262612        1.91574751588028       -0.03455480217880
H           -8.22419264458408       -0.81091381991134       -0.22850055022261
H           -7.86956947451721       -3.25346505027648       -0.37792437200780
H           -5.60813955708420       -4.19359256863767       -0.32098132250271
H           -3.62871859011853       -2.73836166958111       -0.13963068320164
H           -2.41580465729168       -1.27643373177672       -1.72880839768491
H            0.01955634140118       -1.57869754505765       -1.63519229026880
H            2.14399919068016        1.43695428103349        0.75465148891014
H            4.57692816647506        1.14239000250607        0.82939481668778

          :  Hamiltonian                  GFN2-xTB          :
         :: gradient norm              0.000100276489 Eh/a0 ::
         :: HOMO-LUMO gap              1.911036830735 eV    ::
         :: SCC energy               -85.681682324564 Eh    ::
         :: -> dispersion             -0.068238889409 Eh    ::
         :: -> Gsolv                  -0.039385646613 Eh    ::
         :: repulsion energy           1.559525150070 Eh    ::

    * Orbital Energies and Occupations

         #    Occupation            Energy/Eh            Energy/eV
      -------------------------------------------------------------
         1        2.0000           -0.7092875             -19.3007
       ...           ...                  ...                  ...
        66        2.0000           -0.4231422             -11.5143
        67        2.0000           -0.4222700             -11.4906
        68        2.0000           -0.4188548             -11.3976
        69        2.0000           -0.4183492             -11.3839
        70        2.0000           -0.4179483             -11.3730
        71        2.0000           -0.4159924             -11.3197
        72        2.0000           -0.4153640             -11.3026
        73        2.0000           -0.4148398             -11.2884
        74        2.0000           -0.4053482             -11.0301
        75        2.0000           -0.3987813             -10.8514
        76        2.0000           -0.3934962             -10.7076
        77        2.0000           -0.3787647             -10.3067
        78        2.0000           -0.3625102              -9.8644 (HOMO)
        79                         -0.2922809              -7.9534 (LUMO)
        80                         -0.2534928              -6.8979
        81                         -0.2443787              -6.6499
        82                         -0.2356840              -6.4133
        83                         -0.2332762              -6.3478
        84                         -0.2325694              -6.3285
        85                         -0.2238460              -6.0912
        86                         -0.2221528              -6.0451
        87                         -0.1948210              -5.3013
        88                         -0.1862856              -5.0691
        89                         -0.1829402              -4.9781
       ...                                ...                  ...
       153                          0.7441328              20.2489
      -------------------------------------------------------------
                  HL-Gap            0.0702293 Eh            1.9110 eV

     #   Z          covCN         q      C6AA      α(0)
     1   8 O        0.858    -0.425    22.193     6.316
     2   6 C        2.829     0.227    23.246     7.901
     3   6 C        2.972    -0.013    28.344     8.733
     4   6 C        2.921    -0.026    28.640     8.776
     5   6 C        2.918    -0.026    28.657     8.779
     6   6 C        2.920    -0.022    28.548     8.762
     7   6 C        2.917    -0.026    28.654     8.778
     8   6 C        2.924    -0.017    28.442     8.746
     9   6 C        2.972    -0.016    28.409     8.743
    10   6 C        2.922    -0.018    28.453     8.747
    11   6 C        2.922    -0.032    28.797     8.800
    12   6 C        2.976     0.021    27.543     8.609
    13   6 C        2.976     0.009    27.824     8.652
    14   6 C        2.924    -0.032    28.789     8.799
    15   6 C        2.920    -0.042    29.048     8.838
    16   6 C        2.912     0.064    26.564     8.452
    17   7 N        2.802    -0.045    22.104     6.983
    18   6 C        3.074     0.047    26.866     8.498
    19   6 C        2.910    -0.052    29.288     8.874
    20   6 C        2.924    -0.035    28.872     8.812
    21   6 C        2.920    -0.043    29.058     8.840
    22   6 C        2.912    -0.035    28.866     8.810
    23   6 C        3.067    -0.018    28.399     8.738
    24   6 C        3.067    -0.018    28.400     8.739
    25   6 C        2.912    -0.035    28.867     8.810
    26   6 C        2.919    -0.043    29.057     8.840
    27   6 C        2.924    -0.035    28.871     8.812
    28   6 C        2.910    -0.052    29.289     8.874
    29   6 C        3.075     0.047    26.866     8.498
    30   6 C        2.920    -0.042    29.048     8.838
    31   6 C        2.924    -0.032    28.790     8.799
    32   6 C        2.923    -0.032    28.801     8.801
    33   6 C        2.919    -0.026    28.650     8.777
    34   1 H        0.926     0.044     2.402     2.424
    35   1 H        0.926     0.046     2.365     2.405
    36   1 H        0.926     0.047     2.361     2.403
    37   1 H        0.926     0.044     2.391     2.418
    38   1 H        0.926     0.043     2.410     2.428
    39   1 H        0.926     0.044     2.394     2.420
    40   1 H        0.926     0.047     2.364     2.404
    41   1 H        0.926     0.045     2.380     2.413
    42   1 H        0.926     0.045     2.388     2.416
    43   1 H        0.926     0.031     2.574     2.509
    44   1 H        0.926     0.030     2.584     2.514
    45   1 H        0.926     0.028     2.621     2.532
    46   1 H        0.926     0.030     2.589     2.516
    47   1 H        0.926     0.030     2.587     2.515
    48   1 H        0.926     0.028     2.622     2.532
    49   1 H        0.926     0.030     2.587     2.515
    50   1 H        0.926     0.031     2.578     2.511
    51   1 H        0.926     0.045     2.388     2.417
    52   1 H        0.926     0.045     2.385     2.415
    53   1 H        0.926     0.049     2.336     2.390
    54   1 H        0.926     0.044     2.392     2.418

molecular dipole:
                 x           y           z       tot (Debye)
 q only:       -0.256       1.437      -0.440
   full:       -0.220       1.459      -0.448       3.920

 projected vibrational frequencies (cm⁻¹)
eigval :       -0.00    -0.00     0.00     0.00     0.00     0.00
eigval :       14.32    16.98    27.23    39.14    40.70    58.57
eigval :       75.43    87.16    92.60   108.51   126.65   131.40
eigval :      146.30   175.46   192.38   218.17   231.46   253.16
eigval :      274.16   296.25   316.65   360.19   364.00   375.15
eigval :      383.51   386.85   392.48   400.30   412.94   425.10
eigval :      436.62   480.02   481.90   516.27   523.68   536.73
eigval :      543.01   558.91   582.11   585.92   596.01   601.59
eigval :      612.35   617.34   644.90   669.66   675.37   677.17
eigval :      693.21   710.01   714.25   724.25   755.19   769.14
eigval :      772.96   779.61   780.98   813.07   837.41   866.25
eigval :      872.91   873.35   877.04   881.34   897.37   902.49
eigval :      903.00   908.75   914.76   919.25   921.43   923.43
eigval :      927.82   928.80   933.21   933.34   933.78   937.49
eigval :      983.97  1004.37  1011.01  1022.33  1068.65  1071.94
eigval :     1076.69  1079.57  1115.76  1118.50  1131.95  1139.94
eigval :     1150.17  1172.91  1175.20  1178.22  1178.31  1181.32
eigval :     1188.20  1198.63  1204.96  1234.04  1241.97  1259.11
eigval :     1262.25  1268.40  1276.72  1293.21  1299.95  1301.63
eigval :     1313.60  1319.28  1321.60  1355.24  1360.08  1365.53
eigval :     1389.88  1410.42  1426.32  1426.75  1427.26  1459.23
eigval :     1467.68  1473.60  1486.30  1501.09  1550.57  1562.16
eigval :     1573.19  1577.04  1578.75  1587.23  1587.77  1596.21
eigval :     1597.00  1612.87  1648.57  3071.28  3071.79  3076.25
eigval :     3076.84  3077.46  3077.69  3078.38  3080.20  3081.81
eigval :     3083.02  3083.50  3084.87  3085.87  3088.17  3089.67
eigval :     3091.68  3092.10  3093.09  3093.69  3095.42  3095.65

   temp. (K)  partition function   enthalpy   heat capacity  entropy
                                   cal/mol     cal/K/mol   cal/K/mol   J/K/mol
 298.15  VIB  0.800E+11            14512.405     94.307     89.218
         ROT  0.362E+08              888.752      2.981     37.569
         INT  0.290E+19            15401.158     97.288    126.787
         TR   0.843E+28             1481.254      4.968     44.000
         TOT                       16882.4116   102.2564   170.7877   714.5756

       T/K    H(0)-H(T)+PV         H(T)/Eh          T*S/Eh         G(T)/Eh
   ------------------------------------------------------------------------
    298.15    0.269038E-01    0.441535E+00    0.811467E-01    0.360389E+00
   ------------------------------------------------------------------------

         :::::::::::::::::::::::::::::::::::::::::::::::::::::
         ::                  THERMODYNAMIC                  ::
         :::::::::::::::::::::::::::::::::::::::::::::::::::::
         :: total free energy         -83.761768584113 Eh   ::
         ::.................................................::
         :: total energy              -84.122157171811 Eh   ::
         :: zero point energy           0.414631479270 Eh   ::
         :: G(RRHO) w/o ZPVE           -0.054242891572 Eh   ::
         :: G(RRHO) contrib.            0.360388587698 Eh   ::
         :::::::::::::::::::::::::::::::::::::::::::::::::::::

           -------------------------------------------------
          | TOTAL ENERGY              -84.122157171811 Eh   |
          | TOTAL ENTHALPY            -83.680621857158 Eh   |
          | TOTAL FREE ENERGY         -83.761768584113 Eh   |
          | GRADIENT NORM               0.000100281284 Eh/α |
          | HOMO-LUMO GAP               1.911036723614 eV   |
           -------------------------------------------------

 * finished run on 2025/08/25 at 15:03:04.723
