   * xtb version 6.7.1 (edcfbbe) compiled by 'albert@albert-system' on 2024-07-22

   ID    Z sym.   atoms
    1    8 O      1
    2    6 C      2-16, 18-33
    3    7 N      17
    4    1 H      34-54

          program call               : xtb data2507/toluene/PCBP/PCBP.xyz --gfn 2 --gbsa toluene --ohess vtight --parallel 40 --molden --ceasefiles --namespace data2507/toluene/PCBP/PCBP_toluene_S0_preOpt
      * Solvation model:               GBSA
        Solvent                        toluene
        Solvent mass                       9.2140E+01 g/mol
          :  Hamiltonian                  GFN2-xTB          :
 * total energy  :   -84.1103581 Eh     change       -0.6160974E-08 Eh
 * total energy  :   -84.1186921 Eh     change       -0.8333929E-02 Eh
 * total energy  :   -84.1202665 Eh     change       -0.1574437E-02 Eh
 * total energy  :   -84.1207041 Eh     change       -0.4376399E-03 Eh
 * total energy  :   -84.1211022 Eh     change       -0.3980796E-03 Eh
 * total energy  :   -84.1212476 Eh     change       -0.1453716E-03 Eh
 * total energy  :   -84.1213608 Eh     change       -0.1132202E-03 Eh
 * total energy  :   -84.1214633 Eh     change       -0.1024654E-03 Eh
 * total energy  :   -84.1215497 Eh     change       -0.8640946E-04 Eh
 * total energy  :   -84.1216173 Eh     change       -0.6766518E-04 Eh
 * total energy  :   -84.1221437 Eh     change       -0.3415318E-05 Eh
 * total energy  :   -84.1221465 Eh     change       -0.2869990E-05 Eh
 * total energy  :   -84.1221484 Eh     change       -0.1818541E-05 Eh
 * total energy  :   -84.1221495 Eh     change       -0.1178642E-05 Eh
 * total energy  :   -84.1221503 Eh     change       -0.8019825E-06 Eh
 * total energy  :   -84.1221509 Eh     change       -0.5652717E-06 Eh
 * total energy  :   -84.1221514 Eh     change       -0.5321162E-06 Eh
 * total energy  :   -84.1221520 Eh     change       -0.5963173E-06 Eh
 * total energy  :   -84.1221520 Eh     change       -0.8138770E-08 Eh
   *** GEOMETRY OPTIMIZATION CONVERGED AFTER 44 ITERATIONS ***

 final structure:
================
54
 xtb: 6.7.1 (edcfbbe)
O            6.39472012319443       -2.32542621479209        1.18070434984823
C            5.95887528016021       -1.31989034391192        0.63715902468326
C            6.86937802133343       -0.28769335935701        0.08419618854509
C            6.56001210898983        0.41389800840468       -1.08036844816273
C            7.45073824218347        1.34420978259366       -1.58434640664462
C            8.64847421461149        1.58976901995160       -0.93106264549514
C            8.96726684218156        0.88777322074079        0.22108079206648
C            8.08817072694652       -0.05471698592082        0.71987402485380
C            4.50394100046476       -1.08314635597748        0.50563162346239
C            3.64577066266601       -2.18014623435030        0.41964306621774
C            2.28238000773556       -1.99996700271579        0.32121651090710
C            1.73388428305518       -0.71673821826543        0.32269571935458
C            0.28160869658671       -0.51931760535522        0.22663236260741
C           -0.59737911941767       -1.34609577892168        0.92525821794636
C           -1.96169896104914       -1.14961435804162        0.85517101768638
C           -2.48237033353516       -0.12861639175826        0.06377525660826
N           -3.86744499671255        0.07379619138834       -0.00956247398318
C           -4.51869922817935        1.27615543827262        0.18656615882332
C           -4.00009291495579        2.51815061611330        0.52585453218824
C           -4.88675626219481        3.56507593264096        0.69197264523353
C           -6.26000198473803        3.38784222204292        0.53433285816523
C           -6.78403068801888        2.14958980884609        0.21982661062946
C           -5.91265054781631        1.08143206245870        0.04790619704043
C           -6.10222333147476       -0.31036942795024       -0.25330529493249
C           -7.22363886472812       -1.08816969737389       -0.51269018023112
C           -7.04882825773601       -2.42822075891727       -0.79635444396390
C           -5.77466208992014       -2.99111688449167       -0.83804641721564
C           -4.64420935724013       -2.23803887727286       -0.58361675547469
C           -4.81494365789406       -0.89570157462090       -0.27447811078940
C           -1.61279071756043        0.69245780304803       -0.64996461517285
C           -0.24858781695557        0.50308271581709       -0.55940315145973
C            2.59325404580181        0.37756638949656        0.43008426531301
C            3.95891077956416        0.20115992407377        0.51958736089898
H            5.63523500123139        0.21107503872680       -1.60012815415521
H            7.21006408041811        1.88049078032635       -2.49040178587674
H            9.33698496243363        2.32322856591283       -1.32399696252640
H            9.90339877399433        1.07150601095150        0.72727261680122
H            8.32246296194234       -0.61667162197266        1.61271828530666
H            4.07435389184872       -3.17221106933250        0.41948441042899
H            1.63463364592780       -2.85869684817207        0.22666225347607
H           -0.20531209722177       -2.12897371067320        1.55727299201351
H           -2.63200674058974       -1.77481246802665        1.42601383252180
H           -2.93982339836472        2.66309894580331        0.66767518699449
H           -4.50699552411427        4.54225265998703        0.95322994417572
H           -6.92071519124399        4.23159288674820        0.67047089795724
H           -7.84945830993599        2.00896560332928        0.11353495114372
H           -8.21000355109832       -0.64883702127385       -0.49607035487266
H           -7.90807428488111       -3.05085629905442       -0.99893081391762
H           -5.66803561499800       -4.03907577906420       -1.07823984432895
H           -3.66088309709086       -2.68060375584858       -0.63529110351092
H           -2.01448196840167        1.46902364796763       -1.28370599536900
H            0.41454377392267        1.13673199709321       -1.12922157851390
H            2.18154245623666        1.37515572116029        0.46671896415249
H            4.60619332462745        1.05864064951071        0.62895641855041

          :  Hamiltonian                  GFN2-xTB          :
         :: gradient norm              0.000064020014 Eh/a0 ::
         :: HOMO-LUMO gap              1.904985461505 eV    ::
         :: SCC energy               -85.681576878466 Eh    ::
         :: -> dispersion             -0.068255010847 Eh    ::
         :: -> Gsolv                  -0.039407304033 Eh    ::
         :: repulsion energy           1.559424845889 Eh    ::

    * Orbital Energies and Occupations

         #    Occupation            Energy/Eh            Energy/eV
      -------------------------------------------------------------
         1        2.0000           -0.7092535             -19.2998
       ...           ...                  ...                  ...
        66        2.0000           -0.4227691             -11.5041
        67        2.0000           -0.4219433             -11.4817
        68        2.0000           -0.4188602             -11.3978
        69        2.0000           -0.4180945             -11.3769
        70        2.0000           -0.4179800             -11.3738
        71        2.0000           -0.4158159             -11.3149
        72        2.0000           -0.4153588             -11.3025
        73        2.0000           -0.4148397             -11.2884
        74        2.0000           -0.4053656             -11.0306
        75        2.0000           -0.3990671             -10.8592
        76        2.0000           -0.3934991             -10.7077
        77        2.0000           -0.3787879             -10.3073
        78        2.0000           -0.3625065              -9.8643 (HOMO)
        79                         -0.2924996              -7.9593 (LUMO)
        80                         -0.2532963              -6.8925
        81                         -0.2443634              -6.6495
        82                         -0.2356737              -6.4130
        83                         -0.2332462              -6.3470
        84                         -0.2326137              -6.3297
        85                         -0.2239719              -6.0946
        86                         -0.2221785              -6.0458
        87                         -0.1947128              -5.2984
        88                         -0.1863105              -5.0698
        89                         -0.1826885              -4.9712
       ...                                ...                  ...
       153                          0.7440682              20.2471
      -------------------------------------------------------------
                  HL-Gap            0.0700069 Eh            1.9050 eV

     #   Z          covCN         q      C6AA      α(0)
     1   8 O        0.858    -0.425    22.193     6.316
     2   6 C        2.829     0.226    23.247     7.901
     3   6 C        2.972    -0.013    28.341     8.732
     4   6 C        2.921    -0.026    28.642     8.776
     5   6 C        2.918    -0.026    28.659     8.779
     6   6 C        2.920    -0.022    28.552     8.762
     7   6 C        2.917    -0.026    28.655     8.778
     8   6 C        2.924    -0.017    28.444     8.746
     9   6 C        2.972    -0.016    28.414     8.744
    10   6 C        2.922    -0.018    28.449     8.747
    11   6 C        2.922    -0.032    28.795     8.800
    12   6 C        2.976     0.021    27.537     8.608
    13   6 C        2.976     0.008    27.827     8.653
    14   6 C        2.924    -0.031    28.785     8.798
    15   6 C        2.920    -0.042    29.047     8.838
    16   6 C        2.912     0.064    26.564     8.452
    17   7 N        2.801    -0.045    22.101     6.982
    18   6 C        3.075     0.047    26.867     8.498
    19   6 C        2.910    -0.052    29.290     8.874
    20   6 C        2.924    -0.035    28.872     8.812
    21   6 C        2.919    -0.043    29.057     8.840
    22   6 C        2.912    -0.035    28.866     8.810
    23   6 C        3.067    -0.018    28.399     8.738
    24   6 C        3.067    -0.018    28.399     8.738
    25   6 C        2.912    -0.035    28.866     8.810
    26   6 C        2.920    -0.043    29.056     8.840
    27   6 C        2.924    -0.035    28.871     8.812
    28   6 C        2.910    -0.052    29.287     8.874
    29   6 C        3.074     0.047    26.867     8.498
    30   6 C        2.920    -0.042    29.052     8.839
    31   6 C        2.924    -0.032    28.793     8.800
    32   6 C        2.923    -0.032    28.803     8.801
    33   6 C        2.919    -0.026    28.651     8.778
    34   1 H        0.926     0.044     2.402     2.424
    35   1 H        0.926     0.046     2.365     2.405
    36   1 H        0.926     0.047     2.362     2.403
    37   1 H        0.926     0.044     2.393     2.419
    38   1 H        0.926     0.043     2.415     2.430
    39   1 H        0.926     0.044     2.390     2.418
    40   1 H        0.926     0.046     2.364     2.404
    41   1 H        0.926     0.044     2.393     2.419
    42   1 H        0.926     0.044     2.393     2.419
    43   1 H        0.926     0.031     2.572     2.508
    44   1 H        0.926     0.030     2.584     2.514
    45   1 H        0.926     0.028     2.621     2.532
    46   1 H        0.926     0.030     2.588     2.516
    47   1 H        0.926     0.030     2.587     2.515
    48   1 H        0.926     0.028     2.622     2.532
    49   1 H        0.926     0.030     2.587     2.515
    50   1 H        0.926     0.031     2.577     2.511
    51   1 H        0.926     0.045     2.382     2.413
    52   1 H        0.926     0.046     2.372     2.408
    53   1 H        0.926     0.049     2.338     2.391
    54   1 H        0.926     0.045     2.388     2.417

molecular dipole:
                 x           y           z       tot (Debye)
 q only:       -0.223       1.324      -0.728
   full:       -0.186       1.341      -0.734       3.913

 projected vibrational frequencies (cm⁻¹)
eigval :       -0.00     0.00     0.00     0.00     0.00     0.00
eigval :       11.69    19.86    21.83    38.84    41.94    58.18
eigval :       71.43    86.05    94.88   107.31   121.42   131.58
eigval :      144.21   170.04   199.94   218.55   234.11   252.65
eigval :      272.38   293.84   317.37   359.57   367.31   378.59
eigval :      382.96   388.53   391.01   400.17   412.23   423.83
eigval :      436.06   480.19   487.41   515.37   521.03   534.87
eigval :      540.72   557.01   581.69   586.28   596.04   600.75
eigval :      611.10   618.12   646.96   670.81   673.01   679.03
eigval :      691.21   707.05   714.39   725.07   754.86   768.36
eigval :      773.30   779.49   780.71   811.56   835.71   864.68
eigval :      871.47   873.02   877.72   880.15   897.37   900.40
eigval :      903.23   908.22   914.51   916.68   919.65   923.32
eigval :      926.47   928.86   932.06   932.72   934.41   936.97
eigval :      984.09  1004.51  1010.79  1022.12  1069.06  1072.56
eigval :     1076.48  1079.34  1115.67  1118.36  1132.23  1140.04
eigval :     1150.24  1173.68  1175.08  1178.21  1178.29  1181.29
eigval :     1188.78  1199.10  1204.51  1234.60  1241.90  1259.61
eigval :     1262.20  1266.81  1276.34  1293.35  1299.75  1301.88
eigval :     1313.70  1319.15  1321.94  1354.99  1359.75  1365.36
eigval :     1390.36  1410.34  1426.45  1426.64  1426.99  1459.46
eigval :     1467.78  1473.48  1486.16  1500.70  1550.59  1562.36
eigval :     1572.95  1577.11  1579.07  1586.99  1587.96  1596.34
eigval :     1596.78  1612.56  1648.10  3070.32  3070.98  3075.80
eigval :     3076.13  3076.71  3077.29  3078.15  3080.47  3081.50
eigval :     3082.67  3083.32  3084.03  3085.37  3087.89  3089.56
eigval :     3090.78  3092.12  3092.44  3092.88  3095.01  3095.23

   temp. (K)  partition function   enthalpy   heat capacity  entropy
                                   cal/mol     cal/K/mol   cal/K/mol   J/K/mol
 298.15  VIB  0.110E+12            14532.708     94.288     89.588
         ROT  0.363E+08              888.752      2.981     37.572
         INT  0.400E+19            15421.461     97.269    127.160
         TR   0.843E+28             1481.254      4.968     44.000
         TOT                       16902.7145   102.2368   171.1602   716.1342

       T/K    H(0)-H(T)+PV         H(T)/Eh          T*S/Eh         G(T)/Eh
   ------------------------------------------------------------------------
    298.15    0.269362E-01    0.441462E+00    0.813237E-01    0.360139E+00
   ------------------------------------------------------------------------

         :::::::::::::::::::::::::::::::::::::::::::::::::::::
         ::                  THERMODYNAMIC                  ::
         :::::::::::::::::::::::::::::::::::::::::::::::::::::
         :: total free energy         -83.762013450410 Eh   ::
         ::.................................................::
         :: total energy              -84.122152029450 Eh   ::
         :: zero point energy           0.414526112329 Eh   ::
         :: G(RRHO) w/o ZPVE           -0.054387533289 Eh   ::
         :: G(RRHO) contrib.            0.360138579040 Eh   ::
         :::::::::::::::::::::::::::::::::::::::::::::::::::::

           -------------------------------------------------
          | TOTAL ENERGY              -84.122152029450 Eh   |
          | TOTAL ENTHALPY            -83.680689727015 Eh   |
          | TOTAL FREE ENERGY         -83.762013450410 Eh   |
          | GRADIENT NORM               0.000064022954 Eh/α |
          | HOMO-LUMO GAP               1.904984975808 eV   |
           -------------------------------------------------

 * finished run on 2025/08/25 at 15:01:13.047
