   * xtb version 6.7.1 (edcfbbe) compiled by 'albert@albert-system' on 2024-07-22

   ID    Z sym.   atoms
    1    8 O      1
    2    6 C      2-16, 18-33
    3    7 N      17
    4    1 H      34-54

          program call               : xtb data2507/toluene/PCBP/PCBP_toluene_S0_finalOpt.xtbopt.xyz --gfn 2 --uhf 2 --gbsa toluene --ohess vtight --parallel 40 --molden --ceasefiles --namespace data2507/toluene/PCBP/PCBP_toluene_T1_preOpt
      * Solvation model:               GBSA
        Solvent                        toluene
        Solvent mass                       9.2140E+01 g/mol
          :  Hamiltonian                  GFN2-xTB          :
 * total energy  :   -84.0283935 Eh     change       -0.2083021E-07 Eh
 * total energy  :   -84.0318276 Eh     change       -0.3434121E-02 Eh
 * total energy  :   -84.0330634 Eh     change       -0.1235805E-02 Eh
 * total energy  :   -84.0334117 Eh     change       -0.3482353E-03 Eh
 * total energy  :   -84.0337814 Eh     change       -0.3697813E-03 Eh
 * total energy  :   -84.0341187 Eh     change       -0.3372591E-03 Eh
 * total energy  :   -84.0344310 Eh     change       -0.3122639E-03 Eh
 * total energy  :   -84.0346183 Eh     change       -0.1873371E-03 Eh
 * total energy  :   -84.0347267 Eh     change       -0.1083866E-03 Eh
 * total energy  :   -84.0348119 Eh     change       -0.8519951E-04 Eh
 * total energy  :   -84.0358722 Eh     change       -0.2770188E-06 Eh
 * total energy  :   -84.0358725 Eh     change       -0.2581997E-06 Eh
 * total energy  :   -84.0358727 Eh     change       -0.1769943E-06 Eh
 * total energy  :   -84.0358728 Eh     change       -0.1185831E-06 Eh
 * total energy  :   -84.0358729 Eh     change       -0.1175045E-06 Eh
 * total energy  :   -84.0358730 Eh     change       -0.1341201E-06 Eh
 * total energy  :   -84.0358732 Eh     change       -0.1494300E-06 Eh
 * total energy  :   -84.0358733 Eh     change       -0.1391843E-06 Eh
 * total energy  :   -84.0358734 Eh     change       -0.9606809E-07 Eh
   *** GEOMETRY OPTIMIZATION CONVERGED AFTER 67 ITERATIONS ***

 final structure:
================
54
 xtb: 6.7.1 (edcfbbe)
O            6.41042387287778       -2.30821542356162       -0.51754235576659
C            5.93725144007654       -1.15612301671096       -0.33186717610127
C            6.86675912792032       -0.01401332938382       -0.18134076869751
C            6.61296194361086        1.22635723576343       -0.77024349966793
C            7.52894790702978        2.25397624171364       -0.64880752636092
C            8.71062306168187        2.06213787128631        0.05119688478232
C            8.98182349235221        0.82529106610609        0.61618756186164
C            8.07409173588393       -0.20810461979827        0.49270348879499
C            4.52021904041331       -0.92639552807966       -0.25142955205790
C            3.63232097751449       -1.95020231260056       -0.67661661401939
C            2.28207610553898       -1.78408974255171       -0.63633616601590
C            1.68871086416269       -0.59932746324424       -0.11920071099353
C            0.27161165934105       -0.42224626243894       -0.08354704070381
C           -0.35065021248099        0.50814583527089        0.79046308872218
C           -1.70704216166430        0.67874069475581        0.81853653718196
C           -2.54369188261804       -0.07914825252727       -0.02013291363068
N           -3.92044089898144        0.08472104301839        0.01417641330188
C           -4.59276312292101        1.29300926367740        0.02998662279758
C           -4.09058942103786        2.58619097257923       -0.05295026922519
C           -4.99673916699550        3.63205500041456       -0.04994144951347
C           -6.36834403578710        3.40373372097088        0.01756685873130
C           -6.87678382270492        2.11494175082504        0.06274887657676
C           -5.98781052689363        1.05312163486618        0.06371729404791
C           -6.15585518550903       -0.37852433377280        0.07389967365675
C           -7.26523371458657       -1.20572254413873        0.12781338331378
C           -7.06687611606200       -2.57732075710274        0.15956428422981
C           -5.78364764367325       -3.11704106076589        0.16155361447284
C           -4.66120513842784       -2.30934573680286        0.11027643113113
C           -4.85431980878232       -0.93491836400482        0.04025214076590
C           -1.95159933273964       -1.00939869622575       -0.89305819652411
C           -0.59420585773855       -1.16923989862643       -0.92602587463280
C            2.58484050109867        0.38858779595408        0.37451945891884
C            3.93846244318489        0.23880918091789        0.30803776571120
H            5.71074516755218        1.37163879254985       -1.34659227026102
H            7.32389116429403        3.20878246482611       -1.11164565203286
H            9.42203182359813        2.86934766820215        0.14585824398558
H            9.90650998133552        0.66418313540923        1.15169869759088
H            8.27693207616956       -1.17938445065001        0.92144212485099
H            4.07080104525021       -2.86372098495429       -1.05318804861299
H            1.65122485064453       -2.59463515723168       -0.96834498332124
H            0.25430977702482        1.06242253194619        1.48963912276393
H           -2.15256765838694        1.35649321685296        1.53144043353104
H           -3.03162832329399        2.77397856905301       -0.13449361167759
H           -4.63120729798022        4.64615015081465       -0.10811853777818
H           -7.04513175953829        4.24482575516088        0.01968779221113
H           -7.94132213888532        1.94099840775815        0.08983420155905
H           -8.26080835593465       -0.79035826506208        0.15182744323517
H           -7.91875438157455       -3.23936306982560        0.19828473761856
H           -5.65970218804437       -4.18827841867393        0.21104638169929
H           -3.67178277077913       -2.73756411418752        0.14149820154546
H           -2.57783523437022       -1.55649927123564       -1.58203501953573
H           -0.17016636675249       -1.84689248359130       -1.64944584631175
H            2.18958797666440        1.30324682180789        0.78912517788865
H            4.58128004520954        1.00726977915737        0.71092957043719

          :  Hamiltonian                  GFN2-xTB          :
         :: gradient norm              0.000029306228 Eh/a0 ::
         :: HOMO-LUMO gap              0.702038873467 eV    ::
         :: SCC energy               -85.578318474913 Eh    ::
         :: -> dispersion             -0.068093200005 Eh    ::
         :: -> Gsolv                  -0.047824516290 Eh    ::
         :: repulsion energy           1.542445040854 Eh    ::

    * Orbital Energies and Occupations

         #    Occupation            Energy/Eh            Energy/eV
      -------------------------------------------------------------
         1        2.0000           -0.6970614             -18.9680
       ...           ...                  ...                  ...
        67        2.0000           -0.4268841             -11.6161
        68        2.0000           -0.4223096             -11.4916
        69        2.0000           -0.4210270             -11.4567
        70        2.0000           -0.4196969             -11.4205
        71        2.0000           -0.4115370             -11.1985
        72        2.0000           -0.4057131             -11.0400
        73        2.0000           -0.4031582             -10.9705
        74        2.0000           -0.4013080             -10.9201
        75        2.0000           -0.3961627             -10.7801
        76        2.0000           -0.3921239             -10.6702
        77        1.7824           -0.3749521             -10.2030
        78        1.2176           -0.3725207             -10.1368
        79        1.0000           -0.2874650              -7.8223 (HOMO)
        80        0.0000           -0.2616658              -7.1203 (LUMO)
        81                         -0.2507472              -6.8232
        82                         -0.2403121              -6.5392
        83                         -0.2329520              -6.3389
        84                         -0.2224113              -6.0521
        85                         -0.2209840              -6.0133
        86                         -0.2154459              -5.8626
        87                         -0.2053175              -5.5870
        88                         -0.2027731              -5.5177
        89                         -0.1687424              -4.5917
        90                         -0.1167755              -3.1776
       ...                                ...                  ...
       153                          0.7265951              19.7717
      -------------------------------------------------------------
                  HL-Gap            0.0257992 Eh            0.7020 eV

     #   Z          covCN         q      C6AA      α(0)
     1   8 O        0.858    -0.489    23.539     6.505
     2   6 C        2.831     0.182    24.107     8.046
     3   6 C        2.972    -0.008    28.216     8.713
     4   6 C        2.921    -0.034    28.851     8.808
     5   6 C        2.918    -0.031    28.763     8.795
     6   6 C        2.919    -0.033    28.831     8.805
     7   6 C        2.918    -0.030    28.761     8.794
     8   6 C        2.924    -0.025    28.633     8.775
     9   6 C        2.967    -0.018    28.445     8.748
    10   6 C        2.916    -0.030    28.742     8.791
    11   6 C        2.916    -0.035    28.878     8.812
    12   6 C        2.969    -0.003    28.101     8.695
    13   6 C        2.968     0.018    27.602     8.618
    14   6 C        2.919    -0.035    28.872     8.811
    15   6 C        2.913    -0.039    28.959     8.824
    16   6 C        2.912     0.050    26.868     8.500
    17   7 N        2.799     0.008    21.118     6.825
    18   6 C        3.069     0.045    26.920     8.508
    19   6 C        2.909    -0.039    28.957     8.824
    20   6 C        2.922    -0.029    28.731     8.790
    21   6 C        2.920    -0.029    28.726     8.789
    22   6 C        2.912    -0.027    28.669     8.780
    23   6 C        3.063    -0.008    28.153     8.701
    24   6 C        3.063    -0.008    28.154     8.701
    25   6 C        2.912    -0.027    28.668     8.780
    26   6 C        2.920    -0.029    28.726     8.789
    27   6 C        2.922    -0.029    28.731     8.790
    28   6 C        2.909    -0.038    28.956     8.824
    29   6 C        3.069     0.045    26.920     8.507
    30   6 C        2.913    -0.039    28.959     8.824
    31   6 C        2.920    -0.035    28.867     8.811
    32   6 C        2.916    -0.034    28.857     8.809
    33   6 C        2.911    -0.041    29.008     8.832
    34   1 H        0.926     0.035     2.521     2.483
    35   1 H        0.926     0.037     2.489     2.467
    36   1 H        0.926     0.036     2.496     2.471
    37   1 H        0.926     0.034     2.527     2.486
    38   1 H        0.926     0.030     2.588     2.516
    39   1 H        0.926     0.029     2.594     2.519
    40   1 H        0.926     0.036     2.501     2.473
    41   1 H        0.926     0.047     2.357     2.401
    42   1 H        0.926     0.050     2.323     2.383
    43   1 H        0.926     0.049     2.333     2.389
    44   1 H        0.926     0.045     2.377     2.411
    45   1 H        0.926     0.045     2.382     2.413
    46   1 H        0.926     0.048     2.351     2.398
    47   1 H        0.926     0.048     2.350     2.397
    48   1 H        0.926     0.045     2.382     2.414
    49   1 H        0.926     0.045     2.381     2.413
    50   1 H        0.926     0.049     2.338     2.391
    51   1 H        0.926     0.049     2.329     2.387
    52   1 H        0.926     0.046     2.368     2.407
    53   1 H        0.926     0.038     2.470     2.458
    54   1 H        0.926     0.031     2.569     2.506

molecular dipole:
                 x           y           z       tot (Debye)
 q only:       -6.444       1.963       0.397
   full:       -6.303       1.963       0.406      16.811

 projected vibrational frequencies (cm⁻¹)
eigval :       -0.00    -0.00    -0.00    -0.00     0.00     0.00
eigval :       14.68    15.41    29.46    40.36    47.05    60.14
eigval :       81.87    91.96    94.93   109.97   125.79   133.56
eigval :      151.95   177.55   204.78   219.79   227.50   263.96
eigval :      268.16   300.28   301.74   327.11   364.32   373.04
eigval :      377.93   380.64   388.56   398.28   406.27   417.93
eigval :      434.22   436.60   478.21   487.14   512.54   533.07
eigval :      536.42   547.75   559.04   576.88   583.90   586.29
eigval :      593.80   601.71   613.66   650.25   663.92   672.52
eigval :      673.49   681.56   706.98   713.11   750.34   755.08
eigval :      761.31   769.64   777.02   788.47   807.03   812.84
eigval :      828.87   867.91   870.05   872.11   890.94   894.46
eigval :      896.00   903.64   903.71   904.76   911.48   914.69
eigval :      916.27   919.01   923.28   925.63   928.67   935.72
eigval :      961.25   983.19   996.33  1009.27  1028.43  1066.94
eigval :     1070.12  1078.14  1109.88  1117.35  1132.92  1137.07
eigval :     1152.38  1165.33  1170.27  1172.86  1174.95  1179.21
eigval :     1182.09  1200.95  1214.16  1222.22  1234.62  1255.80
eigval :     1261.48  1268.16  1274.21  1277.40  1283.89  1296.67
eigval :     1310.08  1319.86  1327.13  1333.07  1344.47  1362.90
eigval :     1399.04  1404.22  1409.75  1418.00  1424.10  1434.60
eigval :     1440.80  1449.29  1452.38  1460.03  1467.76  1473.24
eigval :     1477.03  1546.55  1560.52  1562.13  1566.65  1568.90
eigval :     1572.48  1579.70  1594.09  3066.41  3068.12  3072.25
eigval :     3076.47  3078.57  3079.74  3083.99  3084.63  3084.93
eigval :     3085.75  3086.77  3087.74  3091.14  3091.73  3092.07
eigval :     3098.22  3099.64  3104.05  3104.69  3106.40  3108.68

   temp. (K)  partition function   enthalpy   heat capacity  entropy
                                   cal/mol     cal/K/mol   cal/K/mol   J/K/mol
 298.15  VIB  0.668E+11            14704.929     96.269     89.987
         ROT  0.365E+08              888.752      2.981     37.584
         INT  0.244E+19            15593.681     99.250    127.571
         TR   0.843E+28             1481.254      4.968     44.000
         TOT                       17074.9352   104.2184   171.5714   717.8547

       T/K    H(0)-H(T)+PV         H(T)/Eh          T*S/Eh         G(T)/Eh
   ------------------------------------------------------------------------
    298.15    0.272106E-01    0.438318E+00    0.815191E-01    0.356799E+00
   ------------------------------------------------------------------------

         :::::::::::::::::::::::::::::::::::::::::::::::::::::
         ::                  THERMODYNAMIC                  ::
         :::::::::::::::::::::::::::::::::::::::::::::::::::::
         :: total free energy         -83.679074459550 Eh   ::
         ::.................................................::
         :: total energy              -84.035873436953 Eh   ::
         :: zero point energy           0.411107441988 Eh   ::
         :: G(RRHO) w/o ZPVE           -0.054308464584 Eh   ::
         :: G(RRHO) contrib.            0.356798977403 Eh   ::
         :::::::::::::::::::::::::::::::::::::::::::::::::::::

           -------------------------------------------------
          | TOTAL ENERGY              -84.035873436953 Eh   |
          | TOTAL ENTHALPY            -83.597555353667 Eh   |
          | TOTAL FREE ENERGY         -83.679074459550 Eh   |
          | GRADIENT NORM               0.000029412115 Eh/α |
          | HOMO-LUMO GAP               0.702031443589 eV   |
           -------------------------------------------------

 * finished run on 2025/08/25 at 15:03:10.115
