   * xtb version 6.7.1 (edcfbbe) compiled by 'albert@albert-system' on 2024-07-22

   ID    Z sym.   atoms
    1    8 O      1
    2    6 C      2-16, 18-33
    3    7 N      17
    4    1 H      34-54

          program call               : xtb data2507/toluene/PCBP/PCBP_toluene_T1_crest.xyz --gfn 2 --uhf 2 --gbsa toluene --ohess vtight --parallel 40 --molden --ceasefiles --namespace data2507/toluene/PCBP/PCBP_toluene_T1_finalOpt
      * Solvation model:               GBSA
        Solvent                        toluene
        Solvent mass                       9.2140E+01 g/mol
          :  Hamiltonian                  GFN2-xTB          :
 * total energy  :   -84.0358547 Eh     change       -0.3144208E-08 Eh
 * total energy  :   -84.0359853 Eh     change       -0.1305753E-03 Eh
 * total energy  :   -84.0360227 Eh     change       -0.3741226E-04 Eh
 * total energy  :   -84.0360323 Eh     change       -0.9602859E-05 Eh
 * total energy  :   -84.0360398 Eh     change       -0.7472129E-05 Eh
 * total energy  :   -84.0360478 Eh     change       -0.7982370E-05 Eh
 * total energy  :   -84.0360539 Eh     change       -0.6154852E-05 Eh
 * total energy  :   -84.0360593 Eh     change       -0.5376336E-05 Eh
 * total energy  :   -84.0360648 Eh     change       -0.5517938E-05 Eh
 * total energy  :   -84.0360697 Eh     change       -0.4913840E-05 Eh
 * total energy  :   -84.0361119 Eh     change       -0.4904834E-06 Eh
 * total energy  :   -84.0361124 Eh     change       -0.4320829E-06 Eh
 * total energy  :   -84.0361127 Eh     change       -0.3780358E-06 Eh
 * total energy  :   -84.0361131 Eh     change       -0.3441003E-06 Eh
 * total energy  :   -84.0361134 Eh     change       -0.3336708E-06 Eh
 * total energy  :   -84.0361138 Eh     change       -0.3488806E-06 Eh
 * total energy  :   -84.0361141 Eh     change       -0.3828567E-06 Eh
 * total energy  :   -84.0361146 Eh     change       -0.4198935E-06 Eh
 * total energy  :   -84.0361146 Eh     change       -0.2762391E-08 Eh
   *** GEOMETRY OPTIMIZATION CONVERGED AFTER 44 ITERATIONS ***

 final structure:
================
54
 xtb: 6.7.1 (edcfbbe)
O            6.43224134046544       -2.07969542760374        0.98118502909895
C            5.95248630787733       -1.03704846017339        0.46205456541301
C            6.87231952784307        0.01266700635071       -0.02843035177326
C            6.63690224120484        0.70242925638605       -1.21939822954983
C            7.54084820894240        1.64804088374281       -1.66515936667544
C            8.69090895971931        1.91738560035609       -0.93866285566804
C            8.94565755255180        1.21629358398227        0.23020543287298
C            8.05074356234934        0.26435233234964        0.67713248295210
C            4.53250306354245       -0.83526123253838        0.36046306172241
C            3.66507420070176       -1.93768852562157        0.58371165187228
C            2.31191572858334       -1.80519888688884        0.51795220292486
C            1.69704543927141       -0.55512172910343        0.23379025143100
C            0.27802560530102       -0.40807748723595        0.15905691457918
C           -0.32504189099976        0.67306439044219       -0.53619495287974
C           -1.68248009594638        0.82763080320831       -0.59327741741587
C           -2.53694518014824       -0.09625711017132        0.03451435267918
N           -3.91364700988675        0.06429688161642       -0.01497303451703
C           -4.83772371075489       -0.93087181290511       -0.27657163167642
C           -4.63206564283878       -2.26227485326607       -0.61784758251334
C           -5.74598347232136       -3.04474063828625       -0.86657418173073
C           -7.03298086137605       -2.51883665001055       -0.79570215310223
C           -7.24293009941823       -1.18263714672460       -0.49229956133428
C           -6.14231444516145       -0.38199384480023       -0.23650657926059
C           -5.98715934860606        1.01757386202540        0.07169371795381
C           -6.88537444932410        2.05380678052871        0.26459233841559
C           -6.39013487303261        3.30690456904401        0.59027473709343
C           -5.02318715553353        3.51989040997616        0.74516102718283
C           -4.10820159387081        2.49845127057420        0.55970904186196
C           -4.59585297079627        1.24878372483074        0.19644072743203
C           -1.96309381667258       -1.18402738080761        0.71676144495289
C           -0.60494446781112       -1.33046012922536        0.77920418724848
C            2.57109318319338        0.55240048132972        0.05766698620368
C            3.92631443721835        0.42666981266250        0.13716091273521
H            5.76015220215899        0.47293996823028       -1.80759418797918
H            7.35045493139802        2.17360216346091       -2.59006825476739
H            9.39165946465524        2.66116311267085       -1.28857262976582
H            9.84649006473826        1.41068949816253        0.79460494238732
H            8.24073340418631       -0.29424770217606        1.58281376024985
H            4.12275154396345       -2.89667837540332        0.78240297932803
H            1.69830352765848       -2.68459825889145        0.64164065846388
H            0.30007451183081        1.36565739125672       -1.07665050086975
H           -2.11244495848331        1.63126581952417       -1.17241414804730
H           -3.63898464820165       -2.67399688186606       -0.70470738807072
H           -5.61201612854536       -4.08347425171070       -1.12831540692064
H           -7.87799556289340       -3.16052026235973       -0.99502175955050
H           -8.24044749097731       -0.77233042773692       -0.46233247331511
H           -7.94707577000957        1.88610081690861        0.16997134184347
H           -7.07398018452295        4.12845454992657        0.74165979926003
H           -4.66816855286580        4.50084976732624        1.02286507430339
H           -3.05404556048105        2.66881336139732        0.71128396011836
H           -2.60601470788802       -1.87173015241222        1.24551008735338
H           -0.19660186727224       -2.14128185347333        1.36083468495595
H            2.15176505904500        1.53684837189796       -0.08576537499215
H            4.54991111923732        1.30489724712181        0.05968750458831

          :  Hamiltonian                  GFN2-xTB          :
         :: gradient norm              0.000045277281 Eh/a0 ::
         :: HOMO-LUMO gap              0.705219871232 eV    ::
         :: SCC energy               -85.578622798217 Eh    ::
         :: -> dispersion             -0.068112413606 Eh    ::
         :: -> Gsolv                  -0.047820904163 Eh    ::
         :: repulsion energy           1.542508231332 Eh    ::

    * Orbital Energies and Occupations

         #    Occupation            Energy/Eh            Energy/eV
      -------------------------------------------------------------
         1        2.0000           -0.6970317             -18.9672
       ...           ...                  ...                  ...
        67        2.0000           -0.4265891             -11.6081
        68        2.0000           -0.4222973             -11.4913
        69        2.0000           -0.4211041             -11.4588
        70        2.0000           -0.4197508             -11.4220
        71        2.0000           -0.4115974             -11.2001
        72        2.0000           -0.4057444             -11.0409
        73        2.0000           -0.4029852             -10.9658
        74        2.0000           -0.4011986             -10.9172
        75        2.0000           -0.3961493             -10.7798
        76        2.0000           -0.3923135             -10.6754
        77        1.8052           -0.3751543             -10.2085
        78        1.1948           -0.3724581             -10.1351
        79        1.0000           -0.2875892              -7.8257 (HOMO)
        80        0.0000           -0.2616730              -7.1205 (LUMO)
        81                         -0.2505934              -6.8190
        82                         -0.2403089              -6.5391
        83                         -0.2330879              -6.3426
        84                         -0.2223772              -6.0512
        85                         -0.2209002              -6.0110
        86                         -0.2156267              -5.8675
        87                         -0.2051484              -5.5824
        88                         -0.2027568              -5.5173
        89                         -0.1686421              -4.5890
        90                         -0.1168351              -3.1792
       ...                                ...                  ...
       153                          0.7265232              19.7697
      -------------------------------------------------------------
                  HL-Gap            0.0259162 Eh            0.7052 eV

     #   Z          covCN         q      C6AA      α(0)
     1   8 O        0.858    -0.488    23.530     6.504
     2   6 C        2.831     0.181    24.117     8.047
     3   6 C        2.972    -0.008    28.223     8.714
     4   6 C        2.921    -0.034    28.855     8.809
     5   6 C        2.918    -0.031    28.762     8.795
     6   6 C        2.919    -0.034    28.835     8.806
     7   6 C        2.918    -0.031    28.763     8.795
     8   6 C        2.924    -0.025    28.635     8.775
     9   6 C        2.967    -0.017    28.438     8.747
    10   6 C        2.917    -0.030    28.741     8.791
    11   6 C        2.915    -0.035    28.872     8.811
    12   6 C        2.970    -0.003    28.102     8.695
    13   6 C        2.969     0.018    27.604     8.618
    14   6 C        2.919    -0.035    28.871     8.811
    15   6 C        2.914    -0.039    28.962     8.825
    16   6 C        2.912     0.051    26.862     8.499
    17   7 N        2.799     0.008    21.120     6.826
    18   6 C        3.068     0.045    26.921     8.508
    19   6 C        2.909    -0.039    28.957     8.824
    20   6 C        2.922    -0.029    28.731     8.790
    21   6 C        2.920    -0.029    28.726     8.789
    22   6 C        2.912    -0.027    28.669     8.780
    23   6 C        3.063    -0.008    28.153     8.701
    24   6 C        3.063    -0.008    28.153     8.701
    25   6 C        2.912    -0.027    28.669     8.780
    26   6 C        2.920    -0.029    28.726     8.789
    27   6 C        2.922    -0.029    28.731     8.790
    28   6 C        2.909    -0.039    28.959     8.824
    29   6 C        3.069     0.045    26.921     8.508
    30   6 C        2.914    -0.039    28.958     8.824
    31   6 C        2.919    -0.035    28.861     8.810
    32   6 C        2.917    -0.035    28.862     8.810
    33   6 C        2.911    -0.041    29.007     8.831
    34   1 H        0.926     0.035     2.520     2.482
    35   1 H        0.926     0.037     2.490     2.467
    36   1 H        0.926     0.036     2.498     2.472
    37   1 H        0.926     0.034     2.530     2.487
    38   1 H        0.926     0.030     2.589     2.516
    39   1 H        0.926     0.030     2.592     2.518
    40   1 H        0.926     0.036     2.501     2.473
    41   1 H        0.926     0.048     2.351     2.398
    42   1 H        0.926     0.050     2.319     2.381
    43   1 H        0.926     0.049     2.337     2.391
    44   1 H        0.926     0.045     2.380     2.413
    45   1 H        0.926     0.045     2.383     2.414
    46   1 H        0.926     0.048     2.350     2.397
    47   1 H        0.926     0.048     2.351     2.398
    48   1 H        0.926     0.045     2.382     2.414
    49   1 H        0.926     0.045     2.378     2.411
    50   1 H        0.926     0.049     2.333     2.388
    51   1 H        0.926     0.049     2.328     2.386
    52   1 H        0.926     0.046     2.372     2.409
    53   1 H        0.926     0.038     2.472     2.459
    54   1 H        0.926     0.031     2.566     2.505

molecular dipole:
                 x           y           z       tot (Debye)
 q only:       -6.467       1.763      -0.831
   full:       -6.326       1.769      -0.819      16.826

 projected vibrational frequencies (cm⁻¹)
eigval :       -0.00    -0.00     0.00     0.00     0.00     0.00
eigval :       15.44    21.90    26.79    39.63    47.80    62.29
eigval :       79.03    93.70   102.23   112.55   122.66   133.21
eigval :      152.01   174.58   208.56   220.30   229.81   264.34
eigval :      270.76   301.08   302.95   327.69   368.31   373.82
eigval :      379.00   388.53   389.46   397.29   403.31   418.33
eigval :      435.87   441.53   479.12   486.94   512.59   533.33
eigval :      533.56   549.36   562.78   577.43   583.33   587.16
eigval :      592.72   603.31   613.68   651.41   664.98   672.91
eigval :      675.02   683.21   708.40   714.16   750.56   754.96
eigval :      760.97   768.81   776.09   793.68   810.52   814.66
eigval :      832.94   868.77   869.23   870.74   889.48   894.69
eigval :      896.72   902.62   903.61   909.01   911.11   914.70
eigval :      917.02   918.36   924.59   924.84   927.61   935.75
eigval :      961.32   983.33   996.20  1009.17  1029.63  1067.55
eigval :     1071.08  1078.74  1110.45  1116.65  1132.97  1137.85
eigval :     1150.61  1166.03  1170.61  1174.18  1176.47  1176.97
eigval :     1182.76  1201.66  1214.12  1223.08  1235.10  1255.26
eigval :     1261.05  1267.30  1273.77  1277.29  1285.78  1297.31
eigval :     1310.69  1320.10  1327.34  1333.08  1344.18  1363.44
eigval :     1399.35  1404.83  1410.02  1417.46  1423.33  1434.87
eigval :     1440.14  1449.75  1452.83  1460.25  1467.64  1473.13
eigval :     1476.92  1545.65  1560.23  1562.45  1567.02  1569.07
eigval :     1572.59  1580.48  1594.35  3066.92  3068.12  3072.28
eigval :     3075.45  3077.29  3079.88  3084.19  3084.60  3084.95
eigval :     3086.59  3086.75  3088.15  3089.16  3090.64  3091.50
eigval :     3098.41  3099.67  3104.05  3104.68  3105.49  3107.34

   temp. (K)  partition function   enthalpy   heat capacity  entropy
                                   cal/mol     cal/K/mol   cal/K/mol   J/K/mol
 298.15  VIB  0.447E+11            14663.889     96.191     89.405
         ROT  0.365E+08              888.752      2.981     37.587
         INT  0.163E+19            15552.642     99.172    126.992
         TR   0.843E+28             1481.254      4.968     44.000
         TOT                       17033.8957   104.1402   170.9925   715.4325

       T/K    H(0)-H(T)+PV         H(T)/Eh          T*S/Eh         G(T)/Eh
   ------------------------------------------------------------------------
    298.15    0.271452E-01    0.438409E+00    0.812440E-01    0.357165E+00
   ------------------------------------------------------------------------

         :::::::::::::::::::::::::::::::::::::::::::::::::::::
         ::                  THERMODYNAMIC                  ::
         :::::::::::::::::::::::::::::::::::::::::::::::::::::
         :: total free energy         -83.678949844140 Eh   ::
         ::.................................................::
         :: total energy              -84.036114570171 Eh   ::
         :: zero point energy           0.411263529975 Eh   ::
         :: G(RRHO) w/o ZPVE           -0.054098803945 Eh   ::
         :: G(RRHO) contrib.            0.357164726031 Eh   ::
         :::::::::::::::::::::::::::::::::::::::::::::::::::::

           -------------------------------------------------
          | TOTAL ENERGY              -84.036114570171 Eh   |
          | TOTAL ENTHALPY            -83.597705799565 Eh   |
          | TOTAL FREE ENERGY         -83.678949844140 Eh   |
          | GRADIENT NORM               0.000045619723 Eh/α |
          | HOMO-LUMO GAP               0.705215594584 eV   |
           -------------------------------------------------

 * finished run on 2025/08/25 at 15:05:54.706
