   * xtb version 6.7.1 (edcfbbe) compiled by 'albert@albert-system' on 2024-07-22

   ID    Z sym.   atoms
    1    6 C      1-9, 11-23, 25-31, 33-46, 48-53
    2    7 N      10, 24, 32, 47
    3    1 H      54-89

          program call               : xtb data2507/gas/23AcCz-PM/23AcCz-PM_gas_S0_finalOpt.xtbopt.xyz --gfn 2 --spinpol --tblite --uhf 2 --ohess vtight --parallel 40 --molden --ceasefiles --namespace data2507/gas/23AcCz-PM/23AcCz-PM_gas_T1_preOpt
 * total energy  :  -134.9724644 Eh     change        0.5107401E-07 Eh
 * total energy  :  -134.9765744 Eh     change       -0.4109998E-02 Eh
 * total energy  :  -134.9782424 Eh     change       -0.1668064E-02 Eh
 * total energy  :  -134.9784498 Eh     change       -0.2073766E-03 Eh
 * total energy  :  -134.9788063 Eh     change       -0.3564785E-03 Eh
 * total energy  :  -134.9789455 Eh     change       -0.1391735E-03 Eh
 * total energy  :  -134.9790967 Eh     change       -0.1512732E-03 Eh
 * total energy  :  -134.9791813 Eh     change       -0.8461478E-04 Eh
 * total energy  :  -134.9792492 Eh     change       -0.6785043E-04 Eh
 * total energy  :  -134.9793318 Eh     change       -0.8263717E-04 Eh
 * total energy  :  -134.9805675 Eh     change       -0.8616551E-06 Eh
 * total energy  :  -134.9805683 Eh     change       -0.7914985E-06 Eh
 * total energy  :  -134.9805692 Eh     change       -0.8568123E-06 Eh
 * total energy  :  -134.9805700 Eh     change       -0.8431666E-06 Eh
 * total energy  :  -134.9805711 Eh     change       -0.1117047E-05 Eh
 * total energy  :  -134.9805723 Eh     change       -0.1186169E-05 Eh
 * total energy  :  -134.9805735 Eh     change       -0.1190091E-05 Eh
 * total energy  :  -134.9805749 Eh     change       -0.1427864E-05 Eh
 * total energy  :  -134.9805750 Eh     change       -0.7234490E-08 Eh
   *** GEOMETRY OPTIMIZATION CONVERGED AFTER 94 ITERATIONS ***

 final structure:
================
89
 xtb: 6.7.1 (edcfbbe)
C           -6.13728846592773       -2.72188740870521       -1.16977193968500
C           -5.46249158903148       -2.35638474237671        0.16572634855528
C           -6.52877386429577       -2.10339262740426        1.24826649513951
C           -4.59952820220325       -3.52175908457922        0.60685334304674
C           -5.17711093573160       -4.76303118305879        0.83428667843872
C           -4.43275341496120       -5.85176686135662        1.25116947419443
C           -3.07017824116049       -5.70986703470460        1.46097361764552
C           -2.46873801989038       -4.49115779980488        1.24266150567734
C           -3.21788805106946       -3.39144727064854        0.80543410601141
N           -2.58256592568314       -2.19020454450546        0.59050486003757
C           -1.16812105237874       -2.07737920099661        0.71976744061015
C           -0.32881841357409       -2.52400134967201       -0.30216582789607
C            1.00152588238150       -2.18738463988734       -0.29526975399770
C            1.53668565297786       -1.35231519610871        0.70817252058847
C            2.86529076064514       -0.84087544915381        0.56769246556350
C            3.32683765960657        0.30557259272107        1.23161683682966
C            4.59053428445322        0.78409240733596        0.93321629288814
C            5.15803230411834        1.99619157647088        1.48269113490764
C            6.48974202873131        2.32329660744898        1.18314099823241
C            7.06598841898117        3.47425979551817        1.67316710904066
C            6.33441902668284        4.33818717272252        2.47512719426742
C            5.01655276920579        4.03019567547517        2.77969049898387
C            4.43263278024097        2.87885801792797        2.29497326591356
N            5.36240418631103        0.08537026851539        0.04413745054804
C            4.90432067390479       -0.99509446537454       -0.55675002365900
C            5.76810776692635       -1.70697808111372       -1.49937030251975
C            7.02476721075442       -1.20106594275855       -1.82176852712306
C            7.84069571937648       -1.88001124033647       -2.70594990908037
C            7.41146067290722       -3.06825929468130       -3.27573382328744
C            6.16141085039092       -3.57684540858504       -2.95895016817479
C            5.34226336967517       -2.90137655020297       -2.07550200914532
N            3.69505730325948       -1.44672368638859       -0.33262443832022
C            0.69923004358784       -1.00856949090957        1.78838863520451
C           -0.62556046787840       -1.36803456969070        1.79320900784011
C           -3.26081403533848       -1.06088308315983        0.17847566355834
C           -2.53057630918098        0.11147416374592       -0.03668519073088
C           -3.19179397755480        1.24797445378441       -0.43968426980560
C           -4.59170269493240        1.25114338668932       -0.62966303224075
C           -5.30139259568911        0.07320955566502       -0.42910581673368
C           -4.65730356784286       -1.08569073701071       -0.03150915017178
C           -4.94232628271396        2.59147316464213       -0.99517323976265
C           -6.14180690487807        3.21343048697072       -1.32065612420732
C           -6.12576674656921        4.55468135012187       -1.64527578946309
C           -4.93263872188886        5.27468707234230       -1.66115025056170
C           -3.72594685961191        4.68031286796582       -1.34235407110241
C           -3.73612779077496        3.33796884372286       -0.99558347002025
N           -2.68362737321142        2.50881715996784       -0.66453717341534
C           -1.33950033122911        2.86325610443688       -0.45917508525528
C           -0.32423846919246        2.09637257607649       -1.02561153630308
C            0.99955621962300        2.39257537062339       -0.75783218645666
C            1.32443613203894        3.46631298706784        0.05438035354699
C            0.31623834854671        4.24622241858533        0.59670661492232
C           -1.01154846410338        3.94570831336857        0.35106745015931
H           -6.74409090041417       -3.61694356341158       -1.06602079013099
H           -5.37969960115152       -2.90594569004076       -1.92915684042918
H           -6.77713526514978       -1.91403051313057       -1.51316061555979
H           -7.13789223380294       -2.98865352937059        1.40741460542758
H           -6.04670488265091       -1.84411979132392        2.18893402598056
H           -7.18422158583202       -1.28588289383674        0.96211668947101
H           -6.23830098558918       -4.89199093406962        0.68472871985393
H           -4.91467953311273       -6.80312385668924        1.41660023023323
H           -2.47866025186518       -6.54825822323663        1.79619422616135
H           -1.40980561651585       -4.36873861282624        1.41087472174666
H           -0.74645972251768       -3.10557445089049       -1.11174444205126
H            1.65135639107011       -2.50444601801719       -1.09619903365121
H            2.68472909230536        0.82234156322984        1.92423179328733
H            7.05557768929026        1.64741177317489        0.56019309579146
H            8.09365262485792        3.70506345616685        1.43052140486308
H            6.78475994349261        5.24177533325900        2.85819587004154
H            4.43873534643866        4.69922109305315        3.40209623242568
H            3.40307978613703        2.67085125514227        2.54462942738417
H            7.34440144172716       -0.27423956433510       -1.37051686092431
H            8.81512072691806       -1.48458885761498       -2.95332695421463
H            8.05127948721994       -3.59858183565173       -3.96595534123454
H            5.82841761235057       -4.50392600590109       -3.40262025875836
H            4.36819646570138       -3.28624282690328       -1.81415143466544
H            1.09541648528839       -0.45192274409939        2.62320950995563
H           -1.27234033398768       -1.07093435601135        2.60661870321776
H           -1.46784641668473        0.13540990990867        0.12377774348718
H           -6.36890196840894        0.07757899088065       -0.58482562108806
H           -7.06472735882538        2.65318669927193       -1.32143502505512
H           -7.04761563013727        5.05644665583766       -1.89889208240311
H           -4.95080301311259        6.31997853419027       -1.93186232780389
H           -2.80418321521379        5.24135494505063       -1.37270194415256
H           -0.57570912177319        1.27519877224616       -1.67973750386205
H            1.78078371949668        1.78254911710361       -1.18610687163924
H            2.35935576730646        3.69336741101751        0.26204075651514
H            0.56416482992930        5.08652570401643        1.22834363080769
H           -1.79861963578333        4.53363560268543        0.79971175323974

 projected vibrational frequencies (cm⁻¹)
eigval :       -0.00    -0.00    -0.00     0.00     0.00     0.00
eigval :        6.44     8.18    13.00    23.84    27.57    30.94
eigval :       32.01    41.67    44.91    52.29    56.51    64.60
eigval :       71.28    79.01    83.48    92.43   102.64   108.22
eigval :      114.57   130.99   131.90   149.79   158.12   184.52
eigval :      193.00   195.85   202.48   207.58   208.22   212.31
eigval :      220.72   245.75   261.97   264.04   271.24   292.50
eigval :      298.24   313.07   330.45   334.23   339.58   365.83
eigval :      367.10   368.88   372.93   376.75   381.93   386.52
eigval :      403.43   405.32   415.92   423.02   424.35   429.01
eigval :      437.20   451.56   468.04   482.39   503.75   509.85
eigval :      529.77   537.59   539.64   543.53   552.97   555.85
eigval :      580.12   582.24   586.19   587.53   588.88   590.53
eigval :      595.53   602.00   608.02   621.89   636.74   641.26
eigval :      652.81   653.56   662.65   666.60   673.67   676.06
eigval :      679.74   681.24   695.39   704.58   740.91   747.90
eigval :      765.74   767.15   774.09   775.22   777.13   792.52
eigval :      813.85   820.41   828.71   836.45   840.84   855.62
eigval :      857.08   869.72   870.92   875.49   875.72   878.88
eigval :      884.23   887.02   898.72   902.01   905.57   909.36
eigval :      912.31   914.60   915.19   920.50   921.42   921.74
eigval :      922.59   922.68   928.64   932.26   934.78   937.86
eigval :      940.44   943.56   957.39   978.60   986.75   995.31
eigval :      999.47  1013.88  1035.55  1054.07  1067.10  1069.72
eigval :     1073.76  1075.63  1079.63  1080.96  1086.37  1088.25
eigval :     1110.62  1112.06  1119.17  1125.16  1128.16  1133.69
eigval :     1152.29  1154.51  1168.20  1172.19  1177.54  1179.19
eigval :     1179.79  1181.11  1181.41  1183.06  1192.77  1198.16
eigval :     1200.03  1207.20  1218.40  1233.32  1240.15  1249.50
eigval :     1251.94  1261.20  1265.94  1270.25  1276.37  1279.59
eigval :     1285.52  1289.66  1301.90  1316.24  1320.30  1321.55
eigval :     1327.18  1329.82  1331.25  1335.02  1352.26  1357.20
eigval :     1365.44  1374.30  1379.75  1394.78  1401.88  1413.79
eigval :     1419.02  1420.02  1431.74  1433.13  1433.88  1437.87
eigval :     1441.72  1453.94  1462.72  1465.11  1475.02  1479.11
eigval :     1481.18  1483.20  1484.90  1488.49  1489.20  1495.88
eigval :     1499.04  1503.46  1544.84  1553.96  1567.92  1572.37
eigval :     1580.78  1584.40  1585.01  1586.88  1590.46  1594.13
eigval :     1595.72  1600.46  1608.42  3028.69  3030.59  3042.41
eigval :     3044.95  3051.21  3054.71  3065.20  3069.00  3072.53
eigval :     3073.08  3074.20  3078.34  3078.42  3079.22  3082.71
eigval :     3082.82  3083.68  3083.77  3087.41  3087.82  3088.70
eigval :     3089.73  3090.77  3094.23  3094.52  3094.71  3094.75
eigval :     3096.20  3096.81  3097.35  3097.65  3098.71  3100.38
eigval :     3102.86  3115.02  3146.68

   temp. (K)  partition function   enthalpy   heat capacity  entropy
                                   cal/mol     cal/K/mol   cal/K/mol   J/K/mol
 298.15  VIB  0.293E+21            25592.978    160.663    160.318
         ROT  0.113E+09              888.752      2.981     39.823
         INT  0.329E+29            26481.731    163.644    200.141
         TR   0.172E+29             1481.254      4.968     45.415
         TOT                       27962.9846   168.6124   245.5560  1027.4064

       T/K    H(0)-H(T)+PV         H(T)/Eh          T*S/Eh         G(T)/Eh
   ------------------------------------------------------------------------
    298.15    0.445619E-01    0.736116E+00    0.116672E+00    0.619445E+00
   ------------------------------------------------------------------------

         :::::::::::::::::::::::::::::::::::::::::::::::::::::
         ::                  THERMODYNAMIC                  ::
         :::::::::::::::::::::::::::::::::::::::::::::::::::::
         :: total free energy        -134.361130190812 Eh   ::
         ::.................................................::
         :: total energy             -134.980574936766 Eh   ::
         :: zero point energy           0.691554488894 Eh   ::
         :: G(RRHO) w/o ZPVE           -0.072109742940 Eh   ::
         :: G(RRHO) contrib.            0.619444745954 Eh   ::
         :::::::::::::::::::::::::::::::::::::::::::::::::::::

           -------------------------------------------------
          | TOTAL ENERGY             -134.980574936766 Eh   |
          | TOTAL ENTHALPY           -134.244458595410 Eh   |
          | TOTAL FREE ENERGY        -134.361130190812 Eh   |
          | GRADIENT NORM               0.000072458339 Eh/α |
           -------------------------------------------------

 * finished run on 2025/09/12 at 18:09:55.254
