   * xtb version 6.7.1 (edcfbbe) compiled by 'albert@albert-system' on 2024-07-22

   ID    Z sym.   atoms
    1    6 C      1-9, 11-23, 25-31, 33-46, 48-53
    2    7 N      10, 24, 32, 47
    3    1 H      54-89

          program call               : xtb data2507/gas/23AcCz-PM/23AcCz-PM_gas_S0_crest.xyz --gfn 2 --ohess vtight --parallel 40 --molden --ceasefiles --namespace data2507/gas/23AcCz-PM/23AcCz-PM_gas_S0_finalOpt
          :  Hamiltonian                  GFN2-xTB          :
 * total energy  :  -135.0520431 Eh     change       -0.3080459E-08 Eh
 * total energy  :  -135.0520442 Eh     change       -0.1142436E-05 Eh
 * total energy  :  -135.0520455 Eh     change       -0.1313133E-05 Eh
 * total energy  :  -135.0520469 Eh     change       -0.1332793E-05 Eh
 * total energy  :  -135.0520482 Eh     change       -0.1299694E-05 Eh
 * total energy  :  -135.0520497 Eh     change       -0.1570866E-05 Eh
 * total energy  :  -135.0520515 Eh     change       -0.1733304E-05 Eh
 * total energy  :  -135.0520527 Eh     change       -0.1241000E-05 Eh
 * total energy  :  -135.0520535 Eh     change       -0.8140437E-06 Eh
 * total energy  :  -135.0520543 Eh     change       -0.7898043E-06 Eh
 * total energy  :  -135.0520572 Eh     change       -0.7250827E-06 Eh
 * total energy  :  -135.0520579 Eh     change       -0.7726429E-06 Eh
 * total energy  :  -135.0520586 Eh     change       -0.6847635E-06 Eh
 * total energy  :  -135.0520591 Eh     change       -0.4372608E-06 Eh
 * total energy  :  -135.0520594 Eh     change       -0.3163198E-06 Eh
 * total energy  :  -135.0520597 Eh     change       -0.3217292E-06 Eh
 * total energy  :  -135.0520601 Eh     change       -0.4432610E-06 Eh
 * total energy  :  -135.0520606 Eh     change       -0.4561911E-06 Eh
 * total energy  :  -135.0520606 Eh     change       -0.7841408E-08 Eh
   *** GEOMETRY OPTIMIZATION CONVERGED AFTER 22 ITERATIONS ***

 final structure:
================
89
 xtb: 6.7.1 (edcfbbe)
C           -6.20174738375414       -2.56278671655025       -1.21923317187111
C           -5.46883515271292       -2.29852467431898        0.10880083884831
C           -6.48489799413977       -2.12708999506055        1.25292386132487
C           -4.58990114566662       -3.49464721009875        0.42424826896647
C           -5.16455378988691       -4.74901424904041        0.57668786516873
C           -4.41320071231690       -5.86818659782857        0.88512144400264
C           -3.04695396800735       -5.74134698733149        1.06206436100140
C           -2.44945860623713       -4.50751096794058        0.91731482426142
C           -3.20561707261878       -3.38023877812172        0.58510794897822
N           -2.57534654540372       -2.15719424237356        0.44727179834602
C           -1.16389764645598       -2.05185715385761        0.54555963031509
C           -0.34920310875488       -2.47383856469677       -0.49917137714380
C            0.99866874430277       -2.17417719822592       -0.48416106446005
C            1.54249770306496       -1.42732321345279        0.55762243119160
C            2.92210058340377       -0.93660284383170        0.45369069778833
C            3.24302551796881        0.35643262906235        0.86510060403973
C            4.54965697323080        0.78676193139929        0.64035929251150
C            4.99778665652671        2.14899085108770        0.95628113111505
C            6.08625161670003        2.68098677320977        0.26688780409694
C            6.51715595718529        3.96804603454834        0.52280726326389
C            5.87170009175500        4.74015685816766        1.47541919035065
C            4.79722923441352        4.21534884047133        2.17465665286097
C            4.35990357591315        2.92892969438042        1.91861610936696
N            5.44523980063616       -0.02585096314266        0.08403834496753
C            5.05785695947198       -1.24847664353695       -0.25938744704735
C            6.05908007623956       -2.13312027389918       -0.86131507293636
C            7.37343887443892       -1.69985991683610       -1.02321290865413
C            8.31439549466439       -2.53704436879567       -1.59059930198439
C            7.95502524165732       -3.81136429033718       -2.00079244260258
C            6.64953983735384       -4.24850447834152       -1.84006760800039
C            5.70403883035936       -3.41617659824997       -1.27307823275192
N            3.82570159539134       -1.72810931293593       -0.11158388537400
C            0.74029431231527       -1.08573584665327        1.64362930402012
C           -0.60086140325750       -1.40909540704865        1.64445629459754
C           -3.26961929087658       -0.99720948219932        0.12917546434825
C           -2.55127352721069        0.18506027990624       -0.04848661606229
C           -3.23048304110750        1.34409418703412       -0.35586030352396
C           -4.63327773545186        1.35489632597114       -0.48000662109971
C           -5.33055090156112        0.16529372240164       -0.32413710339463
C           -4.66796661777782       -1.01535393189090       -0.02930237716724
C           -5.00451621450457        2.71584750445919       -0.74789208198480
C           -6.21721769968363        3.34927925292479       -0.98192433255864
C           -6.21935726582807        4.70805431205453       -1.23040176720927
C           -5.03106005060424        5.43252893561012       -1.26124239573913
C           -3.81008031904652        4.82482215452235       -1.03191293545415
C           -3.80322037335071        3.46599979996338       -0.75970450516557
N           -2.73363538409965        2.62094143151503       -0.52723623326116
C           -1.38543046147016        2.97393142543759       -0.38766800878484
C           -0.40101216131787        2.24767817473412       -1.05516271658760
C            0.93410282401459        2.55496772784322       -0.87011757767336
C            1.30333342690454        3.59746937825996       -0.03589736190853
C            0.32576889965749        4.33437833325001        0.61250292498639
C           -1.01168600552923        4.02458656406120        0.44626445127659
H           -6.80320015443358       -3.46554712147023       -1.15883976571517
H           -5.47776042984055       -2.68547362917350       -2.02269227858450
H           -6.85681861874701       -1.73402614843441       -1.47273783150659
H           -7.09094543891513       -3.02102783476523        1.37155935528433
H           -5.96007432415321       -1.94162543288959        2.18828147962112
H           -7.14844674956972       -1.28867807978411        1.06035874221630
H           -6.23106136126060       -4.86346631450157        0.45420598597085
H           -4.89305816248845       -6.82888333000230        0.99388908111672
H           -2.44496891486536       -6.60103367475201        1.31626791032267
H           -1.38505534982741       -4.40544757211328        1.06719177809593
H           -0.78744345589632       -3.00145278907447       -1.33347989236813
H            1.63827814912113       -2.46671116417800       -1.30258377965084
H            2.48901300155035        1.00887658416725        1.27276802076386
H            6.57647981992764        2.06745791356394       -0.47291568608960
H            7.35810420797239        4.37280763402497       -0.02087748339459
H            6.20725391821533        5.74695562318019        1.67599357442469
H            4.29771163710947        4.81135402242716        2.92464465509428
H            3.53190646048986        2.52778718626521        2.48411151081829
H            7.63715503834520       -0.70684312388329       -0.69457410148389
H            9.33286266099440       -2.19838595678131       -1.71410111739483
H            8.69280612284778       -4.46432810961069       -2.44408873479930
H            6.37118206991986       -5.24278154584984       -2.15812178590535
H            4.68436062399353       -3.74107059516779       -1.13731863089648
H            1.16628990625618       -0.56101274171077        2.48599367255508
H           -1.23633299787449       -1.11973970256375        2.46835791675249
H           -1.48122899663889        0.20612012165952        0.06277532359202
H           -6.40386930379963        0.17442801307736       -0.43285518692906
H           -7.13839973307747        2.78602415689872       -0.97316475516476
H           -7.15356307188904        5.21841141429983       -1.41262693026680
H           -5.06227025073867        6.49134098677044       -1.47244280981734
H           -2.89163561615596        5.39105607937167       -1.07548147480657
H           -0.68851876973944        1.45267477943777       -1.72661873673810
H            1.69098045816576        1.98100901260949       -1.38502961682976
H            2.34759044850981        3.83450291714751        0.10632314338454
H            0.60783246816941        5.14950658977081        1.26272170091571
H           -1.77218185491780        4.58091836775518        0.97366526121785

          :  Hamiltonian                  GFN2-xTB          :
         :: gradient norm              0.000055407982 Eh/a0 ::
         :: HOMO-LUMO gap              1.663204690208 eV    ::
         :: SCC energy              -137.546116294764 Eh    ::
         :: -> dispersion             -0.129026946875 Eh    ::
         :: repulsion energy           2.494055692463 Eh    ::

    * Orbital Energies and Occupations

         #    Occupation            Energy/Eh            Energy/eV
      -------------------------------------------------------------
         1        2.0000           -0.6742336             -18.3468
       ...           ...                  ...                  ...
       114        2.0000           -0.4090277             -11.1302
       115        2.0000           -0.4071047             -11.0779
       116        2.0000           -0.4054039             -11.0316
       117        2.0000           -0.4045241             -11.0077
       118        2.0000           -0.4033728             -10.9763
       119        2.0000           -0.3979016             -10.8275
       120        2.0000           -0.3968847             -10.7998
       121        2.0000           -0.3939539             -10.7200
       122        2.0000           -0.3911587             -10.6440
       123        2.0000           -0.3819890             -10.3945
       124        2.0000           -0.3600971              -9.7987
       125        2.0000           -0.3565000              -9.7009
       126        2.0000           -0.3406293              -9.2690 (HOMO)
       127                         -0.2795077              -7.6058 (LUMO)
       128                         -0.2717309              -7.3942
       129                         -0.2431677              -6.6169
       130                         -0.2400772              -6.5328
       131                         -0.2378529              -6.4723
       132                         -0.2324752              -6.3260
       133                         -0.2323242              -6.3219
       134                         -0.2306493              -6.2763
       135                         -0.2225168              -6.0550
       136                         -0.2164338              -5.8895
       137                         -0.2147873              -5.8447
       ...                                ...                  ...
       248                          0.7548400              20.5402
      -------------------------------------------------------------
                  HL-Gap            0.0611217 Eh            1.6632 eV

     #   Z          covCN         q      C6AA      α(0)
     1   6 C        3.761    -0.103    22.512     6.764
     2   6 C        3.909     0.022    20.144     6.379
     3   6 C        3.761    -0.103    22.511     6.764
     4   6 C        2.979    -0.014    28.362     8.736
     5   6 C        2.928    -0.036    28.900     8.816
     6   6 C        2.917    -0.045    29.119     8.849
     7   6 C        2.919    -0.033    28.823     8.804
     8   6 C        2.924    -0.059    29.459     8.901
     9   6 C        2.926     0.058    26.695     8.473
    10   7 N        2.756    -0.068    22.560     7.054
    11   6 C        2.931     0.071    26.404     8.427
    12   6 C        2.920    -0.038    28.939     8.822
    13   6 C        2.925    -0.024    28.613     8.772
    14   6 C        2.982     0.004    27.939     8.670
    15   6 C        2.974     0.111    25.546     8.291
    16   6 C        2.914    -0.066    29.650     8.929
    17   6 C        2.967     0.110    25.565     8.294
    18   6 C        2.980     0.004    27.919     8.667
    19   6 C        2.926    -0.024    28.602     8.770
    20   6 C        2.918    -0.027    28.685     8.783
    21   6 C        2.920    -0.026    28.660     8.779
    22   6 C        2.919    -0.029    28.719     8.788
    23   6 C        2.923    -0.030    28.752     8.793
    24   7 N        1.850    -0.270    27.850     7.821
    25   6 C        2.948     0.182    24.113     8.054
    26   6 C        2.985     0.002    27.985     8.678
    27   6 C        2.924    -0.026    28.663     8.780
    28   6 C        2.918    -0.028    28.711     8.787
    29   6 C        2.920    -0.026    28.646     8.777
    30   6 C        2.918    -0.028    28.709     8.786
    31   6 C        2.924    -0.027    28.666     8.780
    32   7 N        1.847    -0.270    27.864     7.823
    33   6 C        2.923    -0.031    28.777     8.797
    34   6 C        2.921    -0.038    28.942     8.822
    35   6 C        2.935     0.056    26.753     8.483
    36   6 C        2.917    -0.086    30.155     9.005
    37   6 C        3.085     0.045    26.890     8.501
    38   6 C        3.060    -0.030    28.684     8.783
    39   6 C        2.920    -0.040    28.996     8.830
    40   6 C        2.977    -0.022    28.550     8.765
    41   6 C        3.071    -0.016    28.330     8.727
    42   6 C        2.912    -0.035    28.871     8.811
    43   6 C        2.920    -0.042    29.034     8.836
    44   6 C        2.924    -0.035    28.883     8.813
    45   6 C        2.910    -0.052    29.280     8.873
    46   6 C        3.078     0.045    26.900     8.503
    47   7 N        2.800    -0.048    22.158     6.991
    48   6 C        2.912     0.066    26.522     8.445
    49   6 C        2.923    -0.043    29.069     8.842
    50   6 C        2.919    -0.028    28.689     8.783
    51   6 C        2.919    -0.034    28.856     8.809
    52   6 C        2.920    -0.029    28.715     8.787
    53   6 C        2.922    -0.043    29.075     8.842
    54   1 H        0.925     0.039     2.467     2.456
    55   1 H        0.925     0.031     2.574     2.509
    56   1 H        0.925     0.039     2.462     2.454
    57   1 H        0.925     0.039     2.467     2.456
    58   1 H        0.925     0.031     2.574     2.509
    59   1 H        0.925     0.039     2.463     2.454
    60   1 H        0.926     0.029     2.598     2.521
    61   1 H        0.926     0.025     2.655     2.548
    62   1 H        0.926     0.027     2.632     2.537
    63   1 H        0.926     0.024     2.669     2.555
    64   1 H        0.926     0.045     2.380     2.412
    65   1 H        0.926     0.055     2.263     2.353
    66   1 H        0.926     0.033     2.542     2.493
    67   1 H        0.926     0.053     2.277     2.360
    68   1 H        0.926     0.036     2.508     2.476
    69   1 H        0.926     0.034     2.525     2.485
    70   1 H        0.926     0.033     2.546     2.495
    71   1 H        0.926     0.032     2.554     2.499
    72   1 H        0.926     0.054     2.274     2.358
    73   1 H        0.926     0.034     2.530     2.487
    74   1 H        0.926     0.034     2.534     2.489
    75   1 H        0.926     0.034     2.527     2.486
    76   1 H        0.926     0.055     2.262     2.352
    77   1 H        0.926     0.038     2.480     2.463
    78   1 H        0.926     0.044     2.399     2.422
    79   1 H        0.926     0.025     2.661     2.551
    80   1 H        0.926     0.034     2.535     2.490
    81   1 H        0.926     0.028     2.617     2.530
    82   1 H        0.926     0.026     2.649     2.545
    83   1 H        0.926     0.026     2.639     2.540
    84   1 H        0.926     0.025     2.663     2.552
    85   1 H        0.926     0.039     2.463     2.454
    86   1 H        0.926     0.030     2.587     2.515
    87   1 H        0.926     0.032     2.555     2.499
    88   1 H        0.926     0.035     2.520     2.482
    89   1 H        0.926     0.041     2.437     2.441

molecular dipole:
                 x           y           z       tot (Debye)
 q only:        0.590       0.216       0.035
   full:        0.439       0.500       0.252       1.808

 projected vibrational frequencies (cm⁻¹)
eigval :       -0.00    -0.00     0.00     0.00     0.00     0.00
eigval :        7.60    11.65    16.74    26.17    28.43    30.53
eigval :       35.21    41.30    43.50    52.65    53.82    60.26
eigval :       71.49    76.42    83.60    94.17   102.11   107.26
eigval :      114.53   130.40   131.40   148.78   159.92   186.33
eigval :      191.00   196.24   203.21   208.75   211.06   220.44
eigval :      228.95   246.37   260.63   266.22   273.08   294.74
eigval :      297.71   316.69   330.42   336.07   337.98   366.02
eigval :      366.97   367.80   371.96   376.07   383.36   388.65
eigval :      403.24   410.74   417.47   426.25   431.36   436.75
eigval :      449.68   451.11   480.49   485.45   494.39   514.21
eigval :      533.81   540.50   545.37   551.26   561.52   585.53
eigval :      586.62   587.92   589.34   598.96   602.24   603.87
eigval :      605.73   618.48   631.76   635.06   637.27   655.87
eigval :      663.05   666.06   673.07   675.07   678.57   686.80
eigval :      690.47   702.24   705.02   738.07   741.92   765.31
eigval :      767.41   774.86   777.84   778.37   780.61   813.71
eigval :      826.49   835.76   841.56   846.56   856.14   867.64
eigval :      869.24   869.89   875.20   876.68   879.19   885.20
eigval :      892.63   900.40   905.06   910.49   910.99   913.49
eigval :      917.50   920.68   921.10   921.38   926.24   928.10
eigval :      929.26   931.60   933.42   933.70   934.51   937.79
eigval :      940.82   956.75   971.58   989.14   995.47  1013.49
eigval :     1014.53  1026.41  1037.40  1071.92  1076.17  1079.51
eigval :     1079.82  1081.23  1088.51  1089.61  1107.43  1112.12
eigval :     1115.53  1119.65  1126.31  1128.60  1130.77  1155.17
eigval :     1160.23  1170.18  1173.08  1179.18  1179.79  1180.85
eigval :     1181.50  1182.86  1185.81  1191.45  1196.73  1199.03
eigval :     1203.70  1220.06  1224.47  1240.97  1246.36  1248.89
eigval :     1256.04  1260.81  1266.16  1270.32  1278.25  1279.58
eigval :     1280.99  1293.29  1313.17  1316.82  1322.82  1323.89
eigval :     1328.45  1332.08  1341.73  1358.20  1363.74  1364.89
eigval :     1368.19  1387.49  1398.33  1402.60  1407.81  1420.57
eigval :     1427.24  1432.37  1435.40  1439.79  1442.04  1454.89
eigval :     1467.82  1470.61  1477.61  1483.40  1484.60  1485.50
eigval :     1490.27  1491.00  1495.00  1500.67  1505.67  1521.09
eigval :     1532.51  1563.07  1565.27  1579.54  1583.03  1583.41
eigval :     1585.72  1590.31  1592.97  1595.10  1596.14  1597.07
eigval :     1597.39  1605.24  1618.62  3026.31  3028.53  3039.36
eigval :     3042.21  3048.23  3052.25  3072.21  3073.96  3074.22
eigval :     3074.39  3077.25  3078.18  3078.21  3078.94  3079.15
eigval :     3080.61  3081.64  3086.05  3086.30  3087.02  3088.13
eigval :     3088.45  3090.46  3092.90  3093.02  3093.38  3094.13
eigval :     3094.60  3096.95  3097.41  3101.78  3104.83  3106.16
eigval :     3106.64  3107.30  3132.61

   temp. (K)  partition function   enthalpy   heat capacity  entropy
                                   cal/mol     cal/K/mol   cal/K/mol   J/K/mol
 298.15  VIB  0.107E+21            25360.087    158.929    158.418
         ROT  0.113E+09              888.752      2.981     39.837
         INT  0.122E+29            26248.839    161.910    198.255
         TR   0.172E+29             1481.254      4.968     45.415
         TOT                       27730.0929   166.8777   243.6702  1019.5161

       T/K    H(0)-H(T)+PV         H(T)/Eh          T*S/Eh         G(T)/Eh
   ------------------------------------------------------------------------
    298.15    0.441907E-01    0.739343E+00    0.115776E+00    0.623568E+00
   ------------------------------------------------------------------------

         :::::::::::::::::::::::::::::::::::::::::::::::::::::
         ::                  THERMODYNAMIC                  ::
         :::::::::::::::::::::::::::::::::::::::::::::::::::::
         :: total free energy        -134.428493046489 Eh   ::
         ::.................................................::
         :: total energy             -135.052060602300 Eh   ::
         :: zero point energy           0.695152414910 Eh   ::
         :: G(RRHO) w/o ZPVE           -0.071584859098 Eh   ::
         :: G(RRHO) contrib.            0.623567555811 Eh   ::
         :::::::::::::::::::::::::::::::::::::::::::::::::::::

           -------------------------------------------------
          | TOTAL ENERGY             -135.052060602300 Eh   |
          | TOTAL ENTHALPY           -134.312717471467 Eh   |
          | TOTAL FREE ENERGY        -134.428493046489 Eh   |
          | GRADIENT NORM               0.000055401894 Eh/α |
          | HOMO-LUMO GAP               1.663204815479 eV   |
           -------------------------------------------------

 * finished run on 2025/09/12 at 18:09:33.136
