   * xtb version 6.7.1 (edcfbbe) compiled by 'albert@albert-system' on 2024-07-22

   ID    Z sym.   atoms
    1    6 C      1-9, 11-23, 25-31, 33-46, 48-53
    2    7 N      10, 24, 32, 47
    3    1 H      54-89

          program call               : xtb data2507/gas/23AcCz-PM/23AcCz-PM.xyz --gfn 2 --ohess vtight --parallel 40 --molden --ceasefiles --namespace data2507/gas/23AcCz-PM/23AcCz-PM_gas_S0_preOpt
          :  Hamiltonian                  GFN2-xTB          :
 * total energy  :  -135.0231049 Eh     change       -0.1907381E-08 Eh
 * total energy  :  -135.0401407 Eh     change       -0.1703576E-01 Eh
 * total energy  :  -135.0464344 Eh     change       -0.6293734E-02 Eh
 * total energy  :  -135.0481954 Eh     change       -0.1760990E-02 Eh
 * total energy  :  -135.0490220 Eh     change       -0.8265550E-03 Eh
 * total energy  :  -135.0493838 Eh     change       -0.3617765E-03 Eh
 * total energy  :  -135.0495770 Eh     change       -0.1931996E-03 Eh
 * total energy  :  -135.0496843 Eh     change       -0.1072956E-03 Eh
 * total energy  :  -135.0497547 Eh     change       -0.7044011E-04 Eh
 * total energy  :  -135.0498417 Eh     change       -0.8701372E-04 Eh
 * total energy  :  -135.0520494 Eh     change       -0.3324837E-06 Eh
 * total energy  :  -135.0520497 Eh     change       -0.2911333E-06 Eh
 * total energy  :  -135.0520500 Eh     change       -0.2770184E-06 Eh
 * total energy  :  -135.0520503 Eh     change       -0.3007182E-06 Eh
 * total energy  :  -135.0520506 Eh     change       -0.3413691E-06 Eh
 * total energy  :  -135.0520510 Eh     change       -0.3751723E-06 Eh
 * total energy  :  -135.0520514 Eh     change       -0.3861560E-06 Eh
 * total energy  :  -135.0520517 Eh     change       -0.3683759E-06 Eh
 * total energy  :  -135.0520517 Eh     change       -0.2360224E-08 Eh
   *** GEOMETRY OPTIMIZATION CONVERGED AFTER 185 ITERATIONS ***

 final structure:
================
89
 xtb: 6.7.1 (edcfbbe)
C           -5.99961435379510       -2.76066504887708       -0.89803707548752
C           -5.22903239237668       -2.43763347261718        0.39522747410250
C           -6.20940110073853       -2.26170409183910        1.56939398634820
C           -4.30526170385983       -3.59921454921469        0.71191882674164
C           -4.83714218914052       -4.86427001537909        0.92058276426308
C           -4.04240593751313       -5.95285101584882        1.22999154083005
C           -2.67445899064804       -5.78349109678105        1.34894033032030
C           -2.11880012852414       -4.53809451961402        1.14755286969639
C           -2.91979983769008       -3.44196424234852        0.81644701794213
N           -2.33080826079109       -2.20632546819291        0.62281130107377
C           -0.91962856974654       -2.05971186659534        0.65558738999410
C           -0.14328169390027       -2.46587415468139       -0.42396952975258
C            1.19291335321768       -2.12188821405335       -0.47774330728236
C            1.76193096641855       -1.34761806412510        0.53013087459725
C            3.11603572376789       -0.80980303862809        0.35099866655358
C            3.41467938827142        0.49438106452505        0.74354433044465
C            4.69046540820840        0.96979029910994        0.44443124661159
C            5.10769328849712        2.34751504921126        0.73445010035192
C            6.13627434195329        2.91594134257203       -0.01522411528154
C            6.53508949953151        4.21801960355314        0.21557034574467
C            5.91715095797467        4.96920349144871        1.20254704757540
C            4.90282828366992        4.40851635492786        1.96124208756626
C            4.49765969836035        3.10684992628476        1.73074275889741
N            5.58031408578060        0.18841919249479       -0.16340818891432
C            5.21676398495829       -1.04746698771977       -0.48480046530583
C            6.21081653308170       -1.89606476700163       -1.14747491135194
C            7.49748307715932       -1.41708357724495       -1.38524664052815
C            8.43112551348552       -2.21955673803118       -2.01179544487344
C            8.09193701839392       -3.50435312284393       -2.40618347305124
C            6.81429713811291       -3.98703320600887       -2.16981126259664
C            5.87630309333042       -3.18959904502105       -1.54332699923071
N            4.01310489332244       -1.57003065826280       -0.26550161718358
C            1.00330551378624       -1.02387436822259        1.65235635510691
C           -0.32520609451296       -1.38984850607926        1.72110014172798
C           -3.06924018483210       -1.07491107318973        0.30193961963210
C           -2.39218668782094        0.12258029537520        0.07195604804209
C           -3.11490851847936        1.25281965777430       -0.24330484340270
C           -4.52066469440969        1.22000063546944       -0.32162333179188
C           -5.17738314922683        0.01602511623021       -0.10968065423308
C           -4.47109459477878       -1.13686316928728        0.19337128947001
C           -4.94013633412483        2.56163716597952       -0.61465312354463
C           -6.17769084822795        3.15317078986027       -0.82727965206342
C           -6.22760048276633        4.50351816656603       -1.11379946280624
C           -5.06272148196677        5.26043728355419       -1.20317189525959
C           -3.81780359650366        4.69475525024716       -0.99614781760805
C           -3.76243305211839        3.34514982158938       -0.68628975882982
N           -2.66162261624456        2.53797536273643       -0.46536631703417
C           -1.32043949875057        2.93289507040477       -0.38152998999537
C           -0.33785809280008        2.21648305257092       -1.06225309004979
C            0.99298983958545        2.56716777972190       -0.93172732937547
C            1.35895235449088        3.64291230575346       -0.13931341904036
C            0.38228387503347        4.36949497274078        0.52194271984343
C           -0.95025023454115        4.01701546011760        0.41006121490835
H           -5.30073563186304       -2.88609479934969       -1.72301646726453
H           -6.68696418080854       -1.95832256087027       -1.15108705692067
H           -6.57199098842119       -3.67790991141968       -0.79109687605529
H           -6.78431393939343       -3.16866938534345        1.73483421123983
H           -5.65816674210351       -2.03385659122372        2.47985950362419
H           -6.90372990814249       -1.44861221332891        1.37677026846470
H           -5.90373933205763       -5.01197628765273        0.84237179056279
H           -4.48988324239682       -6.92299905847481        1.38369787242740
H           -2.03863036080951       -6.61889119772714        1.60172567256928
H           -1.05261742720452       -4.40192199028638        1.25101323441001
H           -0.60431169767976       -3.01515496730152       -1.23157725504121
H            1.80112382307352       -2.40028447072117       -1.32452948741859
H            2.66295207148275        1.12128503105389        1.19322367837166
H            6.60554245720264        2.31839633419658       -0.78123424553353
H            7.32935607401698        4.65090354302924       -0.37465933805986
H            6.22755344429156        5.98770828822457        1.38356416001985
H            4.42540146443586        4.98836420090085        2.73779905245149
H            3.71727423486636        2.67820356263756        2.34188622153218
H            7.74597532536686       -0.41639679658677       -1.06821501837971
H            9.42809562671826       -1.84541696085766       -2.19423372760958
H            8.82380868211066       -4.12995493392664       -2.89625860892329
H            6.55179400965210       -4.98940942488116       -2.47568915380185
H            4.87837670070736       -3.55007639224503       -1.34859045096814
H            1.45231880690524       -0.47835945654408        2.46915722767520
H           -0.92906167737771       -1.11317552132589        2.57265817163236
H           -1.32031445246827        0.17760078205343        0.14866226527384
H           -6.25357002478806       -0.00813480567252       -0.18153293182685
H           -7.08118142767174        2.56437076305474       -0.77317527000564
H           -7.18166551671233        4.98146577966035       -1.28034331061315
H           -5.13170012471619        6.31131807806315       -1.44307240573937
H           -2.91820836828206        5.28540255213070       -1.08518332157561
H           -0.62394529819659        1.39472040079686       -1.70132719981127
H            1.74879607878986        2.00095193887230       -1.45669350407849
H            2.39989173152814        3.91365763879826       -0.03932156386101
H            0.66180505558968        5.21030720945815        1.13973914173077
H           -1.70885575529302        4.56608718981309        0.94770008903576

          :  Hamiltonian                  GFN2-xTB          :
         :: gradient norm              0.000036877952 Eh/a0 ::
         :: HOMO-LUMO gap              1.654829184333 eV    ::
         :: SCC energy              -137.546105559519 Eh    ::
         :: -> dispersion             -0.129133898475 Eh    ::
         :: repulsion energy           2.494053833961 Eh    ::

    * Orbital Energies and Occupations

         #    Occupation            Energy/Eh            Energy/eV
      -------------------------------------------------------------
         1        2.0000           -0.6743360             -18.3496
       ...           ...                  ...                  ...
       114        2.0000           -0.4090019             -11.1295
       115        2.0000           -0.4071594             -11.0794
       116        2.0000           -0.4054657             -11.0333
       117        2.0000           -0.4045453             -11.0082
       118        2.0000           -0.4033442             -10.9756
       119        2.0000           -0.3978402             -10.8258
       120        2.0000           -0.3969405             -10.8013
       121        2.0000           -0.3940323             -10.7222
       122        2.0000           -0.3911180             -10.6429
       123        2.0000           -0.3819194             -10.3926
       124        2.0000           -0.3602065              -9.8017
       125        2.0000           -0.3564259              -9.6988
       126        2.0000           -0.3405403              -9.2666 (HOMO)
       127                         -0.2797265              -7.6117 (LUMO)
       128                         -0.2718483              -7.3974
       129                         -0.2432310              -6.6187
       130                         -0.2400555              -6.5322
       131                         -0.2380059              -6.4765
       132                         -0.2324216              -6.3245
       133                         -0.2322878              -6.3209
       134                         -0.2306969              -6.2776
       135                         -0.2225898              -6.0570
       136                         -0.2163527              -5.8873
       137                         -0.2147256              -5.8430
       ...                                ...                  ...
       248                          0.7549012              20.5419
      -------------------------------------------------------------
                  HL-Gap            0.0608139 Eh            1.6548 eV

     #   Z          covCN         q      C6AA      α(0)
     1   6 C        3.761    -0.103    22.512     6.764
     2   6 C        3.909     0.022    20.144     6.379
     3   6 C        3.761    -0.103    22.511     6.764
     4   6 C        2.979    -0.014    28.363     8.736
     5   6 C        2.928    -0.036    28.900     8.816
     6   6 C        2.917    -0.045    29.120     8.849
     7   6 C        2.919    -0.033    28.823     8.804
     8   6 C        2.924    -0.059    29.458     8.901
     9   6 C        2.926     0.058    26.694     8.473
    10   7 N        2.756    -0.068    22.566     7.055
    11   6 C        2.932     0.072    26.401     8.427
    12   6 C        2.920    -0.038    28.935     8.821
    13   6 C        2.925    -0.024    28.611     8.772
    14   6 C        2.982     0.004    27.938     8.670
    15   6 C        2.974     0.111    25.546     8.291
    16   6 C        2.914    -0.066    29.648     8.929
    17   6 C        2.967     0.110    25.564     8.293
    18   6 C        2.980     0.004    27.919     8.667
    19   6 C        2.926    -0.024    28.602     8.770
    20   6 C        2.918    -0.027    28.685     8.783
    21   6 C        2.920    -0.026    28.660     8.779
    22   6 C        2.919    -0.029    28.719     8.788
    23   6 C        2.923    -0.030    28.751     8.793
    24   7 N        1.850    -0.270    27.850     7.822
    25   6 C        2.948     0.182    24.113     8.054
    26   6 C        2.985     0.002    27.985     8.678
    27   6 C        2.924    -0.026    28.663     8.780
    28   6 C        2.918    -0.028    28.711     8.787
    29   6 C        2.920    -0.026    28.645     8.777
    30   6 C        2.918    -0.028    28.708     8.786
    31   6 C        2.924    -0.027    28.666     8.780
    32   7 N        1.847    -0.270    27.865     7.823
    33   6 C        2.923    -0.031    28.776     8.797
    34   6 C        2.921    -0.038    28.941     8.822
    35   6 C        2.935     0.056    26.752     8.483
    36   6 C        2.917    -0.086    30.157     9.005
    37   6 C        3.085     0.045    26.890     8.501
    38   6 C        3.060    -0.030    28.685     8.783
    39   6 C        2.920    -0.040    28.995     8.830
    40   6 C        2.977    -0.022    28.550     8.765
    41   6 C        3.071    -0.016    28.330     8.727
    42   6 C        2.912    -0.035    28.871     8.811
    43   6 C        2.920    -0.042    29.034     8.836
    44   6 C        2.924    -0.036    28.884     8.813
    45   6 C        2.910    -0.052    29.281     8.873
    46   6 C        3.078     0.045    26.901     8.503
    47   7 N        2.800    -0.048    22.157     6.991
    48   6 C        2.912     0.066    26.522     8.445
    49   6 C        2.923    -0.043    29.069     8.842
    50   6 C        2.919    -0.027    28.687     8.783
    51   6 C        2.919    -0.034    28.854     8.809
    52   6 C        2.920    -0.029    28.714     8.787
    53   6 C        2.922    -0.043    29.075     8.842
    54   1 H        0.925     0.031     2.575     2.509
    55   1 H        0.925     0.039     2.462     2.454
    56   1 H        0.925     0.039     2.467     2.456
    57   1 H        0.925     0.039     2.468     2.457
    58   1 H        0.925     0.031     2.574     2.509
    59   1 H        0.925     0.039     2.463     2.454
    60   1 H        0.926     0.029     2.599     2.521
    61   1 H        0.926     0.025     2.656     2.548
    62   1 H        0.926     0.027     2.633     2.537
    63   1 H        0.926     0.024     2.673     2.557
    64   1 H        0.926     0.045     2.380     2.412
    65   1 H        0.926     0.055     2.260     2.351
    66   1 H        0.926     0.033     2.542     2.493
    67   1 H        0.926     0.054     2.276     2.359
    68   1 H        0.926     0.036     2.508     2.476
    69   1 H        0.926     0.034     2.525     2.485
    70   1 H        0.926     0.033     2.546     2.495
    71   1 H        0.926     0.032     2.555     2.500
    72   1 H        0.926     0.054     2.274     2.358
    73   1 H        0.926     0.034     2.529     2.487
    74   1 H        0.926     0.034     2.534     2.489
    75   1 H        0.926     0.034     2.526     2.486
    76   1 H        0.926     0.055     2.263     2.353
    77   1 H        0.926     0.038     2.479     2.462
    78   1 H        0.926     0.044     2.397     2.421
    79   1 H        0.926     0.025     2.664     2.552
    80   1 H        0.926     0.034     2.535     2.490
    81   1 H        0.926     0.028     2.617     2.530
    82   1 H        0.926     0.026     2.650     2.545
    83   1 H        0.926     0.026     2.639     2.540
    84   1 H        0.926     0.025     2.663     2.552
    85   1 H        0.926     0.039     2.464     2.455
    86   1 H        0.926     0.030     2.591     2.517
    87   1 H        0.926     0.032     2.556     2.500
    88   1 H        0.926     0.035     2.519     2.482
    89   1 H        0.926     0.041     2.436     2.441

molecular dipole:
                 x           y           z       tot (Debye)
 q only:        0.590       0.238       0.011
   full:        0.444       0.515       0.238       1.831

 projected vibrational frequencies (cm⁻¹)
eigval :       -0.00    -0.00     0.00     0.00     0.00     0.00
eigval :        7.43    11.74    16.74    25.96    28.28    30.47
eigval :       35.00    40.86    43.52    52.17    53.92    60.11
eigval :       71.63    76.04    83.70    94.16   102.40   107.08
eigval :      114.49   130.41   131.56   148.97   159.95   186.28
eigval :      191.05   196.28   202.96   208.66   210.86   220.38
eigval :      228.90   246.24   260.67   266.10   272.91   294.63
eigval :      297.83   316.65   330.47   336.01   337.91   366.00
eigval :      367.00   367.64   371.76   375.88   383.40   388.59
eigval :      403.38   410.65   417.81   426.40   431.19   436.70
eigval :      449.69   450.85   480.38   485.38   494.17   514.35
eigval :      533.82   540.48   545.34   551.11   561.51   585.54
eigval :      586.57   587.89   589.28   598.96   602.25   603.83
eigval :      605.79   618.44   631.60   635.00   637.23   655.88
eigval :      663.02   665.96   672.99   675.07   678.51   686.87
eigval :      690.40   702.22   705.14   738.01   741.96   765.30
eigval :      767.33   774.84   777.82   778.34   780.59   813.58
eigval :      826.03   835.77   841.41   846.43   856.06   867.50
eigval :      869.19   869.42   875.03   876.67   879.16   885.21
eigval :      892.69   900.39   905.01   910.38   910.97   913.46
eigval :      917.26   920.67   921.10   921.31   926.28   927.91
eigval :      929.19   931.58   933.43   933.69   934.48   937.80
eigval :      940.82   956.74   971.58   989.14   995.47  1013.51
eigval :     1014.51  1026.42  1037.36  1071.92  1076.16  1079.50
eigval :     1079.83  1081.22  1088.48  1089.59  1107.38  1112.10
eigval :     1115.35  1119.61  1126.15  1128.56  1130.81  1155.03
eigval :     1160.24  1170.10  1173.09  1179.16  1179.79  1180.85
eigval :     1181.51  1182.83  1185.66  1191.35  1196.69  1199.00
eigval :     1203.71  1220.05  1224.38  1240.94  1246.27  1248.91
eigval :     1256.05  1260.64  1266.15  1270.32  1278.22  1279.59
eigval :     1280.95  1293.27  1312.98  1316.81  1322.85  1323.90
eigval :     1328.45  1332.17  1342.11  1358.24  1363.73  1364.91
eigval :     1368.07  1387.53  1398.13  1402.58  1407.79  1420.55
eigval :     1427.30  1432.35  1435.40  1439.76  1442.15  1455.04
eigval :     1467.87  1470.61  1477.58  1483.40  1484.57  1485.44
eigval :     1490.28  1491.00  1495.09  1500.67  1505.69  1521.04
eigval :     1532.49  1563.17  1565.20  1579.54  1583.01  1583.42
eigval :     1585.73  1590.34  1592.97  1595.10  1596.14  1597.06
eigval :     1597.39  1605.25  1618.65  3026.32  3028.55  3039.34
eigval :     3042.17  3048.21  3052.21  3072.24  3074.08  3074.23
eigval :     3074.40  3077.10  3078.19  3078.23  3078.97  3079.15
eigval :     3080.71  3081.40  3086.05  3086.40  3087.08  3088.18
eigval :     3088.53  3089.96  3092.97  3093.01  3093.47  3094.12
eigval :     3094.58  3096.95  3097.19  3101.90  3104.87  3106.16
eigval :     3106.64  3107.76  3132.67

   temp. (K)  partition function   enthalpy   heat capacity  entropy
                                   cal/mol     cal/K/mol   cal/K/mol   J/K/mol
 298.15  VIB  0.113E+21            25364.094    158.912    158.457
         ROT  0.113E+09              888.752      2.981     39.830
         INT  0.128E+29            26252.846    161.892    198.287
         TR   0.172E+29             1481.254      4.968     45.415
         TOT                       27734.1002   166.8606   243.7023  1019.6503

       T/K    H(0)-H(T)+PV         H(T)/Eh          T*S/Eh         G(T)/Eh
   ------------------------------------------------------------------------
    298.15    0.441971E-01    0.739332E+00    0.115791E+00    0.623541E+00
   ------------------------------------------------------------------------

         :::::::::::::::::::::::::::::::::::::::::::::::::::::
         ::                  THERMODYNAMIC                  ::
         :::::::::::::::::::::::::::::::::::::::::::::::::::::
         :: total free energy        -134.428510347529 Eh   ::
         ::.................................................::
         :: total energy             -135.052051725556 Eh   ::
         :: zero point energy           0.695135092467 Eh   ::
         :: G(RRHO) w/o ZPVE           -0.071593714439 Eh   ::
         :: G(RRHO) contrib.            0.623541378028 Eh   ::
         :::::::::::::::::::::::::::::::::::::::::::::::::::::

           -------------------------------------------------
          | TOTAL ENERGY             -135.052051725556 Eh   |
          | TOTAL ENTHALPY           -134.312719531103 Eh   |
          | TOTAL FREE ENERGY        -134.428510347529 Eh   |
          | GRADIENT NORM               0.000036875276 Eh/α |
          | HOMO-LUMO GAP               1.654829540718 eV   |
           -------------------------------------------------

 * finished run on 2025/09/12 at 18:02:38.677
