   * xtb version 6.7.1 (edcfbbe) compiled by 'albert@albert-system' on 2024-07-22

   ID    Z sym.   atoms
    1    6 C      1-9, 11-23, 25-31, 33-46, 48-53
    2    7 N      10, 24, 32, 47
    3    1 H      54-89

          program call               : xtb data2507/gas/23AcCz-PM/23AcCz-PM_gas_T1_crest.xyz --gfn 2 --spinpol --tblite --uhf 2 --ohess vtight --parallel 40 --molden --ceasefiles --namespace data2507/gas/23AcCz-PM/23AcCz-PM_gas_T1_finalOpt
 * total energy  :  -134.9806489 Eh     change       -0.3994680E-07 Eh
 * total energy  :  -134.9806969 Eh     change       -0.4794969E-04 Eh
 * total energy  :  -134.9807162 Eh     change       -0.1931349E-04 Eh
 * total energy  :  -134.9807188 Eh     change       -0.2660368E-05 Eh
 * total energy  :  -134.9807226 Eh     change       -0.3725848E-05 Eh
 * total energy  :  -134.9807269 Eh     change       -0.4297996E-05 Eh
 * total energy  :  -134.9807323 Eh     change       -0.5393331E-05 Eh
 * total energy  :  -134.9807366 Eh     change       -0.4385874E-05 Eh
 * total energy  :  -134.9807389 Eh     change       -0.2252735E-05 Eh
 * total energy  :  -134.9807414 Eh     change       -0.2458795E-05 Eh
 * total energy  :  -134.9808288 Eh     change       -0.4023575E-06 Eh
 * total energy  :  -134.9808290 Eh     change       -0.2040401E-06 Eh
 * total energy  :  -134.9808292 Eh     change       -0.1806289E-06 Eh
 * total energy  :  -134.9808294 Eh     change       -0.1971731E-06 Eh
 * total energy  :  -134.9808296 Eh     change       -0.1928281E-06 Eh
 * total energy  :  -134.9808297 Eh     change       -0.1300912E-06 Eh
 * total energy  :  -134.9808298 Eh     change       -0.1393087E-06 Eh
 * total energy  :  -134.9808300 Eh     change       -0.1208030E-06 Eh
 * total energy  :  -134.9808300 Eh     change       -0.5795167E-07 Eh
   *** GEOMETRY OPTIMIZATION CONVERGED AFTER 104 ITERATIONS ***

 final structure:
================
89
 xtb: 6.7.1 (edcfbbe)
C           -6.32254630514589        2.10580449513948        1.67658813022849
C           -5.48829806629037        2.31374801065800        0.39859870485052
C           -6.41415325575859        2.58495260075942       -0.80225151247251
C           -4.59232582077844        3.51880871043878        0.60480639827735
C           -5.15572684267386        4.76008848819758        0.86567778844736
C           -4.38102071986035        5.88218673947307        1.09704385098847
C           -2.99960698607642        5.77332290139197        1.08614754388617
C           -2.41173922011822        4.55568334520985        0.82783064642294
C           -3.19391752633621        3.42311208912268        0.56846744508520
N           -2.57540954993010        2.22403832931865        0.29349739219286
C           -1.15680316642389        2.10637780898466        0.33244592126175
C           -0.55940399629374        1.40701322527855        1.38540468078883
C            0.77409679403536        1.09947635438192        1.33933547283383
C            1.57870449052508        1.48360763026410        0.24328963509605
C            2.93261840511766        1.02945843951768        0.18717596346833
C            3.89428763806150        1.47063416336283       -0.73675258692205
C            5.16365542803007        0.92357412917304       -0.69079842879704
C            6.25525730982454        1.29999482918355       -1.56527362083247
C            7.48479017237506        0.63485108077440       -1.44220189823189
C            8.55233014746685        0.95824910424179       -2.25024121844579
C            8.42990709700899        1.95484607007345       -3.20715979092160
C            7.22170407599165        2.62268851787316       -3.34137715955621
C            6.14853161001247        2.30457798676568       -2.53583551213773
N            5.42910505833674       -0.04471328378434        0.23912133582993
C            4.50482277531070       -0.44188439206927        1.09247028150897
C            4.83083111915851       -1.49185668945580        2.05886283935708
C            6.11926228326568       -2.01680127591499        2.11807529218278
C            6.42313489155009       -3.01239183313983        3.02632576002987
C            5.44556567025297       -3.49500635847270        3.88202606199229
C            4.16088839532468       -2.97721541369233        3.82808957129592
C            3.85361160231035       -1.98047869539080        2.92276902192407
N            3.30153437657571        0.07244185586640        1.09166829384804
C            0.97431859275736        2.25980398698867       -0.76591156633695
C           -0.36817770259425        2.55253081093118       -0.72718572239413
C           -3.28760387813312        1.07027540979960        0.04016081443380
C           -2.57526494310766       -0.08524935360886       -0.29630106937089
C           -3.25982438234736       -1.26937626987155       -0.44515271649010
C           -4.66916336163323       -1.31488218802931       -0.35116543940046
C           -5.36759989561136       -0.14276717970498       -0.08749714172200
C           -4.69734924775296        1.05008673287308        0.11889937946003
C           -5.04280479118796       -2.67567907880223       -0.59705692526301
C           -6.26155836087523       -3.34313877233641       -0.62733454809595
C           -6.26721223412383       -4.70073239106310       -0.87432300223790
C           -5.07710106402194       -5.39773368085983       -1.07479199158385
C           -3.85192571748294       -4.75812113525197       -1.05000174686221
C           -3.83880020068859       -3.38964388897054       -0.82671057399224
N           -2.76826314936297       -2.52353828208143       -0.73263165167147
C           -1.40455646203126       -2.82425286587451       -0.88546106889120
C           -0.48433619979480       -2.36798994644170        0.05566661430406
C            0.86575165385429       -2.60523601964771       -0.12249668635842
C            1.30658222074161       -3.32071750448690       -1.22337645470885
C            0.39133768606890       -3.79702053691114       -2.14728914658050
C           -0.95945682658714       -3.54423604668105       -1.98916956758363
H           -6.91934262449747        2.98606958873112        1.89813052242880
H           -5.66394444865318        1.91573498702165        2.52193879084917
H           -6.99285315534880        1.25812914321075        1.56674114588526
H           -7.01643368069084        3.47350240512651       -0.63576008116958
H           -5.81955465938171        2.73549852341724       -1.70127966333595
H           -7.08367260901129        1.74637809700042       -0.97087747100798
H           -6.22994598140763        4.86135826175859        0.89528891220127
H           -4.85286504210741        6.83249233092759        1.29442431611957
H           -2.38185787865679        6.63681280431467        1.28100479065373
H           -1.33693903395224        4.46206808387957        0.82757883605061
H           -1.17189648110932        1.08977894198978        2.21784093440636
H            1.23778917875968        0.54526148428336        2.14055946897861
H            3.64463146924637        2.23277078394430       -1.45480234466220
H            7.57528199133800       -0.14074511683546       -0.69702249724480
H            9.48976040130163        0.43222239146826       -2.13703335449622
H            9.26609566037884        2.20974057919987       -3.84111032948790
H            7.11849455140392        3.40173191811800       -4.08363672304277
H            5.22361683702735        2.84603819393774       -2.66283382764028
H            6.86983891723987       -1.63044979842193        1.44578894116834
H            7.42447676493709       -3.41543400650846        3.06979816314563
H            5.68460451684031       -4.27398538024785        4.59123843510849
H            3.39905262756267       -3.35377408947619        4.49519444325716
H            2.85794318325022       -1.56622328611380        2.87221698223671
H            1.55385230901267        2.59562419298017       -1.61135355225867
H           -0.83112237725701        3.10480963423661       -1.53276030370704
H           -1.50952414531184       -0.05050714613906       -0.44069939316998
H           -6.44478105033229       -0.17905310928609       -0.04133032479868
H           -7.18241761673894       -2.80613962508082       -0.45616853015153
H           -7.20387744439712       -5.23703658660347       -0.90466193751165
H           -5.11267881603916       -6.46273260293925       -1.25025494394397
H           -2.93474934200120       -5.31004115342274       -1.18863757596084
H           -0.83136175592257       -1.83233532126980        0.92614927330994
H            1.57672716189214       -2.22891840749909        0.59740860454988
H            2.36137892523116       -3.50480403781504       -1.35988614046502
H            0.73124560410559       -4.35609849495491       -3.00659315654523
H           -1.67064673264475       -3.88464676305932       -2.72704706661090

 projected vibrational frequencies (cm⁻¹)
eigval :       -0.00    -0.00    -0.00    -0.00     0.00     0.00
eigval :       -4.16     6.11     8.36    12.82    28.16    30.50
eigval :       32.68    36.76    42.69    50.45    58.06    59.10
eigval :       69.21    79.47    83.73    90.56    98.80   105.98
eigval :      114.06   128.86   132.45   152.91   160.96   179.59
eigval :      192.96   198.80   201.93   205.50   207.70   211.37
eigval :      222.32   243.59   261.00   264.14   270.94   293.83
eigval :      299.34   316.09   332.08   335.14   339.88   365.58
eigval :      367.31   368.02   370.81   377.29   381.34   385.92
eigval :      405.07   408.64   409.76   423.96   427.19   428.85
eigval :      436.71   452.98   466.88   482.30   501.65   510.99
eigval :      529.65   537.28   539.93   543.99   552.52   555.46
eigval :      581.08   581.25   586.32   586.94   588.50   590.56
eigval :      595.11   601.97   608.38   623.00   635.89   641.66
eigval :      651.89   653.16   662.03   666.77   673.24   675.16
eigval :      679.99   681.48   695.46   704.47   738.83   747.59
eigval :      763.64   765.57   773.90   774.64   776.97   790.32
eigval :      810.46   818.02   836.39   837.73   840.70   854.03
eigval :      855.28   869.00   870.54   875.11   875.81   879.03
eigval :      883.71   886.97   898.22   901.72   905.18   908.80
eigval :      909.85   914.88   915.25   919.71   921.21   921.64
eigval :      921.98   922.77   928.56   932.06   933.24   935.32
eigval :      939.16   940.87   957.38   977.34   985.86   995.47
eigval :      999.69  1013.87  1033.84  1051.10  1067.11  1070.28
eigval :     1073.83  1075.93  1079.60  1081.99  1087.05  1087.72
eigval :     1111.19  1111.79  1119.35  1124.75  1128.29  1135.17
eigval :     1152.39  1154.63  1168.06  1171.51  1177.68  1179.14
eigval :     1179.84  1181.00  1181.63  1183.27  1193.35  1199.15
eigval :     1199.84  1207.01  1218.21  1231.09  1240.71  1247.08
eigval :     1250.13  1261.20  1266.54  1270.45  1276.88  1279.75
eigval :     1284.62  1289.45  1299.95  1316.67  1320.19  1322.54
eigval :     1327.27  1328.77  1331.27  1333.98  1352.76  1356.94
eigval :     1365.23  1375.51  1381.83  1395.52  1401.92  1413.07
eigval :     1419.79  1421.26  1431.71  1433.08  1433.30  1437.50
eigval :     1441.33  1453.84  1464.58  1466.53  1474.52  1480.04
eigval :     1480.97  1483.04  1484.07  1488.46  1489.20  1497.70
eigval :     1499.05  1503.44  1544.65  1556.43  1567.59  1572.57
eigval :     1581.18  1584.17  1584.76  1586.80  1591.16  1594.44
eigval :     1595.86  1599.91  1607.19  3028.61  3030.54  3042.41
eigval :     3044.94  3051.21  3054.71  3066.82  3068.96  3069.14
eigval :     3073.07  3073.38  3078.19  3078.23  3079.52  3082.80
eigval :     3083.05  3085.05  3086.71  3087.65  3087.84  3090.15
eigval :     3090.46  3092.06  3093.91  3094.65  3095.13  3095.39
eigval :     3096.12  3097.36  3097.49  3097.88  3099.68  3102.67
eigval :     3105.07  3115.93  3133.94

   temp. (K)  partition function   enthalpy   heat capacity  entropy
                                   cal/mol     cal/K/mol   cal/K/mol   J/K/mol
 298.15  VIB  0.226E+22            25652.164    160.417    162.241
         ROT  0.114E+09              888.752      2.981     39.855
         INT  0.258E+30            26540.916    163.398    202.096
         TR   0.172E+29             1481.254      4.968     45.415
         TOT                       28022.1701   168.3663   247.5108  1035.5853

       T/K    H(0)-H(T)+PV         H(T)/Eh          T*S/Eh         G(T)/Eh
   ------------------------------------------------------------------------
    298.15    0.446562E-01    0.736056E+00    0.117600E+00    0.618456E+00
   ------------------------------------------------------------------------

         :::::::::::::::::::::::::::::::::::::::::::::::::::::
         ::                  THERMODYNAMIC                  ::
         :::::::::::::::::::::::::::::::::::::::::::::::::::::
         :: total free energy        -134.362374129577 Eh   ::
         ::.................................................::
         :: total energy             -134.980830052965 Eh   ::
         :: zero point energy           0.691400131084 Eh   ::
         :: G(RRHO) w/o ZPVE           -0.072944207697 Eh   ::
         :: G(RRHO) contrib.            0.618455923387 Eh   ::
         :::::::::::::::::::::::::::::::::::::::::::::::::::::

           -------------------------------------------------
          | TOTAL ENERGY             -134.980830052965 Eh   |
          | TOTAL ENTHALPY           -134.244773751354 Eh   |
          | TOTAL FREE ENERGY        -134.362374129577 Eh   |
          | GRADIENT NORM               0.000049421649 Eh/α |
           -------------------------------------------------

 * finished run on 2025/09/12 at 18:19:44.464
