   * xtb version 6.7.1 (edcfbbe) compiled by 'albert@albert-system' on 2024-07-22

   ID    Z sym.   atoms
    1    6 C      1-12, 14-33
    2    7 N      13
    3    1 H      34-66

          program call               : xtb data2507/gas/t-BuPCz/t-BuPCz.xyz --gfn 2 --ohess vtight --parallel 40 --molden --ceasefiles --namespace data2507/gas/t-BuPCz/t-BuPCz_gas_S0_preOpt
          :  Hamiltonian                  GFN2-xTB          :
 * total energy  :   -88.3152365 Eh     change       -0.3815089E-08 Eh
 * total energy  :   -88.3241536 Eh     change       -0.8917085E-02 Eh
 * total energy  :   -88.3262377 Eh     change       -0.2084097E-02 Eh
 * total energy  :   -88.3268757 Eh     change       -0.6379984E-03 Eh
 * total energy  :   -88.3272104 Eh     change       -0.3347229E-03 Eh
 * total energy  :   -88.3273052 Eh     change       -0.9477384E-04 Eh
 * total energy  :   -88.3274007 Eh     change       -0.9552573E-04 Eh
 * total energy  :   -88.3275024 Eh     change       -0.1016867E-03 Eh
 * total energy  :   -88.3276079 Eh     change       -0.1055170E-03 Eh
 * total energy  :   -88.3277040 Eh     change       -0.9614156E-04 Eh
 * total energy  :   -88.3282679 Eh     change       -0.7011433E-06 Eh
 * total energy  :   -88.3282687 Eh     change       -0.8630213E-06 Eh
 * total energy  :   -88.3282695 Eh     change       -0.7776833E-06 Eh
 * total energy  :   -88.3282701 Eh     change       -0.5964847E-06 Eh
 * total energy  :   -88.3282706 Eh     change       -0.4548597E-06 Eh
 * total energy  :   -88.3282709 Eh     change       -0.3594777E-06 Eh
 * total energy  :   -88.3282712 Eh     change       -0.2560272E-06 Eh
 * total energy  :   -88.3282713 Eh     change       -0.1542745E-06 Eh
 * total energy  :   -88.3282714 Eh     change       -0.9844496E-07 Eh
   *** GEOMETRY OPTIMIZATION CONVERGED AFTER 67 ITERATIONS ***

 final structure:
================
66
 xtb: 6.7.1 (edcfbbe)
C           -7.25381185548341        2.65904470333316       -1.39689654452937
C           -7.10823918092150        2.11615401856646        0.03183044053877
C           -8.43090946020742        1.48108832359390        0.48376785917689
C           -6.80387399555450        3.29471605956896        0.96057823382164
C           -6.01754668449685        1.05701051748808        0.05077415373687
C           -6.15055558965143       -0.08101844272138       -0.74167161784949
C           -5.18877404539212       -1.07014804095136       -0.75502240502932
C           -4.04090230018165       -0.96146480208059        0.02572034107361
C           -3.01073128061198       -2.00994889878193        0.01504801786933
C           -3.38747334589036       -3.36021440381717        0.00553248191220
C           -2.45735106565515       -4.37946245589783       -0.00086061127210
C           -1.11523332717150       -4.03254532428151       -0.00405225457513
N            0.00045333138768       -4.83116762330235       -0.01427700755563
C            1.12181594416435       -4.04044041566539       -0.01447979613903
C            2.46141227441145       -4.39694500518524       -0.02110607173669
C            3.39881626212098       -3.38438522219541       -0.01391069211141
C            3.03160953127040       -2.03152881252949       -0.00703482803553
C            4.06898127804190       -0.99007423715659       -0.00230432566361
C            5.21049002951574       -1.11259444015384        0.78204440661375
C            6.18326841261850       -0.12950905381563        0.78859699785799
C            6.06009825895807        1.01401920555666        0.00901333662228
C            7.10533700544374        2.11787577568828       -0.01843532202873
C            7.64390043720891        2.26057004068206       -1.44906924848032
C            6.45488402630504        3.43563471407915        0.42589892429520
C            8.28895321733552        1.83440702031378        0.91052233069795
C            4.91581666255175        1.13056222457223       -0.77706741501012
C            3.93966015562136        0.15558360889191       -0.78322123948888
C            1.68702203674640       -1.68181806074559       -0.00544679825376
C            0.72712309225124       -2.68196944518742       -0.00568648252002
C           -0.71089933825705       -2.67690524603395        0.00355752305266
C           -1.66360176423148       -1.66999660819320        0.01617802332046
C           -3.90153112768212        0.17435649273162        0.81572896168587
C           -4.87100820176349        1.16055920283897        0.82884831933530
H           -8.01962602996794        3.43142695779546       -1.42868541866965
H           -7.53415363784551        1.87329411387302       -2.09287379098197
H           -6.31307551515299        3.09107033985807       -1.73216664734060
H           -8.73040743900944        0.67452519140598       -0.17964617941864
H           -8.32886811229894        1.07569351507185        1.48841302454739
H           -9.22252861049697        2.22765098431345        0.49114308444632
H           -6.71532389253047        2.96625107680066        1.99361057571157
H           -5.88592663389864        3.79816886719589        0.66608311325288
H           -7.61546740828497        4.01782829335961        0.90664349096063
H           -7.02176685014303       -0.20442825969301       -1.36812198426941
H           -5.31860714167497       -1.93041846978549       -1.39613682303733
H           -4.43882032548136       -3.60674107076571        0.02568154578057
H           -2.76634166784981       -5.41468320697576       -0.00049255787058
H           -0.00311900666623       -5.83641730063366       -0.02029360876900
H            2.76294375250536       -5.43427884180690       -0.03407485700513
H            4.44847444834200       -3.63786959789421       -0.03577531390589
H            5.33161006019478       -1.98051924448827        1.41460932937768
H            7.04479517103199       -0.27289588477180        1.42072874365129
H            8.08928359970416        1.32379402864600       -1.77797619675614
H            8.40486528194747        3.03741065771334       -1.48795689449974
H            6.85280160940743        2.52380981765083       -2.14567102785586
H            5.64555231075310        3.72259233717607       -0.23962333839732
H            6.04994434648457        3.33442264424566        1.43080736371890
H            7.19247709832309        4.23562890102018        0.42948935891032
H            8.80496570022723        0.92210786059136        0.62017494554972
H            9.00075245425147        2.65561188677279        0.85177000346606
H            7.96259964642407        1.74651874277426        1.94429191392377
H            4.77725455007648        1.99902389032086       -1.40415939680772
H            3.07295074360577        0.27240615111176       -1.41806533517913
H            1.39244941708814       -0.64340836402746        0.01772572534611
H           -1.36147813259061       -0.63357287458106        0.00545945672221
H           -3.03057772810109        0.27976773300135        1.44683995279109
H           -4.71483145117070        2.01678575552031        1.46514705127217

          :  Hamiltonian                  GFN2-xTB          :
         :: gradient norm              0.000039838543 Eh/a0 ::
         :: HOMO-LUMO gap              3.139567548441 eV    ::
         :: SCC energy               -89.929333474572 Eh    ::
         :: -> dispersion             -0.075230249671 Eh    ::
         :: repulsion energy           1.601062040040 Eh    ::

    * Orbital Energies and Occupations

         #    Occupation            Energy/Eh            Energy/eV
      -------------------------------------------------------------
         1        2.0000           -0.6722462             -18.2927
       ...           ...                  ...                  ...
        71        2.0000           -0.4171328             -11.3508
        72        2.0000           -0.4160482             -11.3212
        73        2.0000           -0.4085652             -11.1176
        74        2.0000           -0.4058468             -11.0437
        75        2.0000           -0.4051659             -11.0251
        76        2.0000           -0.4031005             -10.9689
        77        2.0000           -0.3987884             -10.8516
        78        2.0000           -0.3928562             -10.6902
        79        2.0000           -0.3927617             -10.6876
        80        2.0000           -0.3881139             -10.5611
        81        2.0000           -0.3800248             -10.3410
        82        2.0000           -0.3683514             -10.0234
        83        2.0000           -0.3543557              -9.6425 (HOMO)
        84                         -0.2389787              -6.5029 (LUMO)
        85                         -0.2351498              -6.3988
        86                         -0.2235457              -6.0830
        87                         -0.2105007              -5.7280
        88                         -0.2104872              -5.7276
        89                         -0.1973004              -5.3688
        90                         -0.1739897              -4.7345
        91                         -0.1724395              -4.6923
        92                         -0.0952248              -2.5912
        93                         -0.0830239              -2.2592
        94                         -0.0666657              -1.8141
       ...                                ...                  ...
       165                          0.7551855              20.5496
      -------------------------------------------------------------
                  HL-Gap            0.1153770 Eh            3.1396 eV

     #   Z          covCN         q      C6AA      α(0)
     1   6 C        3.762    -0.105    22.542     6.768
     2   6 C        3.903     0.025    20.093     6.372
     3   6 C        3.762    -0.105    22.543     6.768
     4   6 C        3.761    -0.106    22.581     6.774
     5   6 C        2.973     0.005    27.901     8.664
     6   6 C        2.926    -0.037    28.912     8.818
     7   6 C        2.924    -0.038    28.943     8.823
     8   6 C        2.977     0.006    27.881     8.661
     9   6 C        2.976    -0.002    28.063     8.690
    10   6 C        2.929    -0.038    28.938     8.822
    11   6 C        2.908    -0.056    29.398     8.891
    12   6 C        3.073     0.053    26.745     8.479
    13   7 N        2.754    -0.123    23.665     7.225
    14   6 C        3.073     0.053    26.745     8.479
    15   6 C        2.908    -0.056    29.397     8.890
    16   6 C        2.929    -0.038    28.938     8.822
    17   6 C        2.976    -0.002    28.063     8.689
    18   6 C        2.977     0.006    27.881     8.661
    19   6 C        2.925    -0.038    28.948     8.823
    20   6 C        2.924    -0.041    29.017     8.834
    21   6 C        2.973     0.005    27.901     8.664
    22   6 C        3.903     0.025    20.093     6.372
    23   6 C        3.762    -0.104    22.542     6.768
    24   6 C        3.762    -0.105    22.544     6.768
    25   6 C        3.761    -0.106    22.580     6.774
    26   6 C        2.926    -0.036    28.908     8.817
    27   6 C        2.924    -0.038    28.938     8.822
    28   6 C        2.918    -0.038    28.941     8.822
    29   6 C        3.069    -0.017    28.363     8.733
    30   6 C        3.069    -0.017    28.363     8.733
    31   6 C        2.918    -0.038    28.942     8.822
    32   6 C        2.925    -0.038    28.944     8.823
    33   6 C        2.924    -0.041    29.013     8.833
    34   1 H        0.925     0.036     2.507     2.476
    35   1 H        0.925     0.036     2.504     2.475
    36   1 H        0.925     0.033     2.542     2.493
    37   1 H        0.925     0.036     2.505     2.475
    38   1 H        0.925     0.033     2.544     2.494
    39   1 H        0.925     0.036     2.508     2.476
    40   1 H        0.925     0.035     2.514     2.479
    41   1 H        0.925     0.035     2.513     2.479
    42   1 H        0.925     0.035     2.521     2.483
    43   1 H        0.926     0.026     2.647     2.544
    44   1 H        0.926     0.026     2.639     2.540
    45   1 H        0.926     0.031     2.568     2.506
    46   1 H        0.926     0.023     2.690     2.565
    47   1 H        0.860     0.155     1.370     1.834
    48   1 H        0.926     0.023     2.690     2.565
    49   1 H        0.926     0.031     2.568     2.506
    50   1 H        0.926     0.026     2.638     2.540
    51   1 H        0.926     0.033     2.549     2.497
    52   1 H        0.925     0.033     2.545     2.495
    53   1 H        0.925     0.036     2.507     2.476
    54   1 H        0.925     0.036     2.502     2.474
    55   1 H        0.925     0.036     2.502     2.473
    56   1 H        0.925     0.033     2.542     2.493
    57   1 H        0.925     0.036     2.508     2.477
    58   1 H        0.925     0.035     2.516     2.481
    59   1 H        0.925     0.035     2.521     2.483
    60   1 H        0.925     0.035     2.514     2.479
    61   1 H        0.926     0.026     2.641     2.542
    62   1 H        0.926     0.027     2.625     2.533
    63   1 H        0.926     0.033     2.544     2.494
    64   1 H        0.926     0.033     2.544     2.494
    65   1 H        0.926     0.027     2.624     2.533
    66   1 H        0.926     0.033     2.544     2.494

molecular dipole:
                 x           y           z       tot (Debye)
 q only:        0.000      -0.200      -0.000
   full:       -0.010      -0.481      -0.013       1.223

 projected vibrational frequencies (cm⁻¹)
eigval :       -0.00    -0.00    -0.00     0.00     0.00     0.00
eigval :       18.21    20.68    22.23    32.98    36.89    51.99
eigval :       63.69    69.24    80.57   100.25   127.66   132.59
eigval :      159.47   176.11   180.92   193.44   196.00   205.47
eigval :      218.61   223.73   233.13   246.88   263.79   291.19
eigval :      301.64   314.17   314.54   317.00   320.57   364.95
eigval :      368.14   369.87   378.14   379.66   384.50   394.54
eigval :      397.74   407.52   429.81   431.70   445.57   455.08
eigval :      463.13   467.02   481.81   513.58   529.84   545.10
eigval :      547.74   575.00   582.10   601.91   610.54   614.03
eigval :      631.77   660.38   671.75   684.79   701.75   705.25
eigval :      710.67   739.78   765.83   805.23   805.72   825.58
eigval :      827.89   839.37   867.12   870.03   871.64   874.48
eigval :      877.42   878.70   889.50   901.03   905.97   906.75
eigval :      917.85   918.16   930.46   930.53   960.60   960.61
eigval :      962.67   962.78   963.10   963.12   986.67  1003.46
eigval :     1023.36  1035.16  1035.21  1035.68  1035.71  1077.76
eigval :     1079.34  1144.01  1146.44  1147.20  1152.80  1156.26
eigval :     1157.91  1165.37  1201.41  1218.31  1220.60  1225.49
eigval :     1227.84  1227.86  1233.23  1234.69  1235.04  1276.42
eigval :     1281.14  1284.21  1284.44  1292.58  1300.32  1317.12
eigval :     1319.01  1323.15  1330.72  1348.63  1381.24  1396.05
eigval :     1397.62  1405.78  1405.81  1407.84  1409.26  1422.28
eigval :     1429.41  1429.42  1433.32  1474.51  1475.96  1492.23
eigval :     1492.26  1495.07  1495.10  1498.43  1498.99  1504.41
eigval :     1504.64  1511.96  1512.56  1514.80  1514.88  1520.37
eigval :     1520.44  1566.50  1567.22  1573.71  1581.94  1602.68
eigval :     1605.35  1610.68  1620.59  3020.62  3020.65  3022.06
eigval :     3022.09  3026.65  3026.77  3029.12  3029.29  3030.61
eigval :     3030.71  3035.34  3035.49  3037.53  3037.65  3046.53
eigval :     3046.70  3049.76  3049.97  3069.27  3070.00  3071.47
eigval :     3072.27  3073.41  3073.67  3082.70  3083.04  3086.55
eigval :     3088.34  3088.65  3090.49  3107.83  3107.93  3489.60

   temp. (K)  partition function   enthalpy   heat capacity  entropy
                                   cal/mol     cal/K/mol   cal/K/mol   J/K/mol
 298.15  VIB  0.394E+13            17499.388    111.885    106.169
         ROT  0.507E+08              888.752      2.981     38.238
         INT  0.200E+21            18388.140    114.866    144.407
         TR   0.868E+28             1481.254      4.968     44.057
         TOT                       19869.3943   119.8342   188.4641   788.5336

       T/K    H(0)-H(T)+PV         H(T)/Eh          T*S/Eh         G(T)/Eh
   ------------------------------------------------------------------------
    298.15    0.316639E-01    0.582141E+00    0.895454E-01    0.492596E+00
   ------------------------------------------------------------------------

         :::::::::::::::::::::::::::::::::::::::::::::::::::::
         ::                  THERMODYNAMIC                  ::
         :::::::::::::::::::::::::::::::::::::::::::::::::::::
         :: total free energy         -87.835675759099 Eh   ::
         ::.................................................::
         :: total energy              -88.328271434534 Eh   ::
         :: zero point energy           0.550477133131 Eh   ::
         :: G(RRHO) w/o ZPVE           -0.057881457697 Eh   ::
         :: G(RRHO) contrib.            0.492595675434 Eh   ::
         :::::::::::::::::::::::::::::::::::::::::::::::::::::

           -------------------------------------------------
          | TOTAL ENERGY              -88.328271434534 Eh   |
          | TOTAL ENTHALPY            -87.746130406170 Eh   |
          | TOTAL FREE ENERGY         -87.835675759099 Eh   |
          | GRADIENT NORM               0.000039846346 Eh/α |
          | HOMO-LUMO GAP               3.139567694559 eV   |
           -------------------------------------------------

 * finished run on 2025/09/13 at 19:16:13.159
