   * xtb version 6.7.1 (edcfbbe) compiled by 'albert@albert-system' on 2024-07-22

   ID    Z sym.   atoms
    1    6 C      1-12, 14-33
    2    7 N      13
    3    1 H      34-66

          program call               : xtb data2507/gas/t-BuPCz/t-BuPCz_gas_S0_crest.xyz --gfn 2 --ohess vtight --parallel 40 --molden --ceasefiles --namespace data2507/gas/t-BuPCz/t-BuPCz_gas_S0_finalOpt
          :  Hamiltonian                  GFN2-xTB          :
 * total energy  :   -88.3282669 Eh     change       -0.3877147E-08 Eh
 * total energy  :   -88.3282674 Eh     change       -0.4824502E-06 Eh
 * total energy  :   -88.3282678 Eh     change       -0.3944862E-06 Eh
 * total energy  :   -88.3282686 Eh     change       -0.8607575E-06 Eh
 * total energy  :   -88.3282690 Eh     change       -0.4071254E-06 Eh
 * total energy  :   -88.3282692 Eh     change       -0.2027639E-06 Eh
 * total energy  :   -88.3282695 Eh     change       -0.3027294E-06 Eh
 * total energy  :   -88.3282700 Eh     change       -0.4853327E-06 Eh
 * total energy  :   -88.3282705 Eh     change       -0.4406217E-06 Eh
 * total energy  :   -88.3282707 Eh     change       -0.2720306E-06 Eh
 * total energy  :   -88.3282709 Eh     change       -0.2053257E-06 Eh
 * total energy  :   -88.3282711 Eh     change       -0.1994178E-06 Eh
 * total energy  :   -88.3282713 Eh     change       -0.1695659E-06 Eh
 * total energy  :   -88.3282714 Eh     change       -0.1351229E-06 Eh
 * total energy  :   -88.3282716 Eh     change       -0.1529890E-06 Eh
 * total energy  :   -88.3282717 Eh     change       -0.1414986E-06 Eh
 * total energy  :   -88.3282718 Eh     change       -0.8276743E-07 Eh
   *** GEOMETRY OPTIMIZATION CONVERGED AFTER 17 ITERATIONS ***

 final structure:
================
66
 xtb: 6.7.1 (edcfbbe)
C           -7.25151164411277        3.22607759527718       -1.39272853193317
C           -7.11191634121778        2.68224379713748        0.03627738493919
C           -8.43733174146726        2.04948829692623        0.48334402560151
C           -6.80845782765385        3.85980683674879        0.96657612948470
C           -6.02295814694884        1.62136653698703        0.05802128344360
C           -6.15542977860905        0.48368316789054       -0.73499455548011
C           -5.19388074569888       -0.50572849003035       -0.74769958721703
C           -4.04683093284865       -0.39753077241190        0.03425853468246
C           -3.01508126631826       -1.44443771253446        0.02193070130633
C           -3.38883114389332       -2.79547594988826        0.01019082551916
C           -2.45636944191236       -3.81262121701020        0.00063291749586
C           -1.11502609758282       -3.46270669144327       -0.00369745093007
N            0.00256988925230       -4.25865395002527       -0.01805783213961
C            1.12205667537123       -3.46526051674782       -0.01915853938498
C            2.46256051040749       -3.81820854701464       -0.03104274499135
C            3.39739160211669       -2.80326330267120       -0.02470825190432
C            3.02703128722011       -1.45123186575455       -0.01258003918047
C            4.06169545651540       -0.40716247311995       -0.01035047161617
C            5.21194069905656       -0.53218502312789        0.76083705833960
C            6.18318855467948        0.45244053582067        0.76255544344056
C            6.04939507433727        1.60073635925827       -0.00821510688041
C            7.09241981432056        2.70651382108330       -0.04069340956241
C            7.60440988503673        2.86963778654642       -1.47890852605632
C            6.44773117620984        4.01677616582033        0.43326538764577
C            8.29374083501753        2.41265988318882        0.86193591876902
C            4.89536376516784        1.72099345929009       -0.77932899236866
C            3.92137066679905        0.74389102753259       -0.78152420255710
C            1.68144984327327       -1.10520191789141       -0.00498110215514
C            0.72416677628778       -2.10779072408602       -0.00550912596508
C           -0.71380557770023       -2.10616898010836        0.00666373616823
C           -1.66871606562739       -1.10147522080898        0.02250116734035
C           -3.90871296244672        0.73723526112094        0.82601253314684
C           -4.87796102259269        1.72362359482820        0.83855136425617
H           -8.01619951497201        3.99947730835266       -1.42700099620256
H           -7.53020600055153        2.44100168779645       -2.09012450586266
H           -6.30894585452289        3.65704265647180       -1.72424810677050
H           -8.73721183781591        1.24524254974025       -0.18271769637786
H           -8.33895155517919        1.64154715359142        1.48733867275338
H           -9.22704454957645        2.79806998259829        0.49036254464818
H           -6.72424582209228        3.53078142446110        1.99979709450856
H           -5.88845092794708        4.36151940597786        0.67553262815059
H           -7.61834361266794        4.58462983766594        0.90999530017886
H           -7.02581132363428        0.36096678587170       -1.36273733120193
H           -5.32303634980104       -1.36557972023712       -1.38952009911226
H           -4.43961171113682       -3.04438413418984        0.03084359478079
H           -2.76304204161534       -4.84853236514484       -0.00090714819408
H            0.00137349828598       -5.26388397944430       -0.02768916299922
H            2.76678469973129       -4.85470271589817       -0.04782389158901
H            4.44749590581278       -3.05433005294205       -0.05158512882665
H            5.34178680068553       -1.40361109720216        1.38679835513334
H            7.05211808036520        0.30642246824632        1.38387138032827
H            8.04332676354107        1.93764053671428       -1.82936028004643
H            8.36478449263920        3.64690252467884       -1.52069050949890
H            6.80092238151327        3.14309448492611       -2.15710308220127
H            5.62490689604414        4.30980904297082       -0.21283492628010
H            6.06246397884317        3.90148984816805        1.44438352967704
H            7.18332382178877        4.81861120798413        0.43302364428152
H            8.80295163465774        1.50298855615932        0.55192121363928
H            9.00497965004126        3.23394159226108        0.79771325229812
H            7.98791605148341        2.31430838031925        1.90101443731199
H            4.74739959252005        2.59400057170710       -1.39789480428132
H            3.04756049772532        0.86353702967353       -1.40598563351758
H            1.38388593053734       -0.06777746383534        0.02268767531743
H           -1.36899348273806       -0.06434256649298        0.01338780725743
H           -3.03867969375299        0.84179559615306        1.45853292829342
H           -4.72270795155035        2.57910393081483        1.47606399184709

          :  Hamiltonian                  GFN2-xTB          :
         :: gradient norm              0.000040138364 Eh/a0 ::
         :: HOMO-LUMO gap              3.139113252011 eV    ::
         :: SCC energy               -89.929321785875 Eh    ::
         :: -> dispersion             -0.075232538615 Eh    ::
         :: repulsion energy           1.601049961799 Eh    ::

    * Orbital Energies and Occupations

         #    Occupation            Energy/Eh            Energy/eV
      -------------------------------------------------------------
         1        2.0000           -0.6722497             -18.2928
       ...           ...                  ...                  ...
        71        2.0000           -0.4171436             -11.3511
        72        2.0000           -0.4160564             -11.3215
        73        2.0000           -0.4085732             -11.1178
        74        2.0000           -0.4058536             -11.0438
        75        2.0000           -0.4051736             -11.0253
        76        2.0000           -0.4030895             -10.9686
        77        2.0000           -0.3987996             -10.8519
        78        2.0000           -0.3928554             -10.6901
        79        2.0000           -0.3927573             -10.6875
        80        2.0000           -0.3881441             -10.5619
        81        2.0000           -0.3800227             -10.3409
        82        2.0000           -0.3683368             -10.0230
        83        2.0000           -0.3543386              -9.6420 (HOMO)
        84                         -0.2389783              -6.5029 (LUMO)
        85                         -0.2352238              -6.4008
        86                         -0.2236080              -6.0847
        87                         -0.2104992              -5.7280
        88                         -0.2104774              -5.7274
        89                         -0.1972794              -5.3682
        90                         -0.1739312              -4.7329
        91                         -0.1723830              -4.6908
        92                         -0.0952596              -2.5921
        93                         -0.0830202              -2.2591
        94                         -0.0665584              -1.8111
       ...                                ...                  ...
       165                          0.7552483              20.5514
      -------------------------------------------------------------
                  HL-Gap            0.1153603 Eh            3.1391 eV

     #   Z          covCN         q      C6AA      α(0)
     1   6 C        3.762    -0.105    22.542     6.768
     2   6 C        3.903     0.025    20.093     6.372
     3   6 C        3.762    -0.105    22.543     6.768
     4   6 C        3.761    -0.106    22.581     6.774
     5   6 C        2.973     0.005    27.901     8.664
     6   6 C        2.926    -0.037    28.911     8.818
     7   6 C        2.924    -0.038    28.943     8.822
     8   6 C        2.977     0.006    27.881     8.661
     9   6 C        2.976    -0.002    28.063     8.689
    10   6 C        2.929    -0.038    28.938     8.822
    11   6 C        2.908    -0.056    29.397     8.891
    12   6 C        3.073     0.053    26.745     8.479
    13   7 N        2.754    -0.123    23.665     7.225
    14   6 C        3.073     0.053    26.745     8.479
    15   6 C        2.908    -0.056    29.397     8.890
    16   6 C        2.929    -0.038    28.939     8.822
    17   6 C        2.976    -0.002    28.063     8.689
    18   6 C        2.977     0.006    27.882     8.661
    19   6 C        2.925    -0.038    28.949     8.823
    20   6 C        2.924    -0.041    29.017     8.834
    21   6 C        2.973     0.005    27.901     8.664
    22   6 C        3.903     0.025    20.093     6.372
    23   6 C        3.762    -0.105    22.543     6.768
    24   6 C        3.762    -0.105    22.543     6.768
    25   6 C        3.761    -0.106    22.580     6.774
    26   6 C        2.926    -0.036    28.908     8.817
    27   6 C        2.924    -0.038    28.938     8.822
    28   6 C        2.918    -0.038    28.941     8.822
    29   6 C        3.069    -0.017    28.363     8.733
    30   6 C        3.069    -0.017    28.362     8.733
    31   6 C        2.918    -0.038    28.942     8.822
    32   6 C        2.925    -0.038    28.944     8.823
    33   6 C        2.924    -0.041    29.013     8.833
    34   1 H        0.925     0.036     2.507     2.476
    35   1 H        0.925     0.036     2.504     2.475
    36   1 H        0.925     0.033     2.542     2.493
    37   1 H        0.925     0.036     2.505     2.475
    38   1 H        0.925     0.033     2.544     2.494
    39   1 H        0.925     0.036     2.508     2.476
    40   1 H        0.925     0.035     2.514     2.479
    41   1 H        0.925     0.035     2.513     2.479
    42   1 H        0.925     0.035     2.521     2.483
    43   1 H        0.926     0.026     2.647     2.544
    44   1 H        0.926     0.026     2.639     2.540
    45   1 H        0.926     0.031     2.568     2.506
    46   1 H        0.926     0.023     2.690     2.565
    47   1 H        0.860     0.155     1.370     1.834
    48   1 H        0.926     0.023     2.690     2.565
    49   1 H        0.926     0.031     2.568     2.506
    50   1 H        0.926     0.026     2.638     2.540
    51   1 H        0.926     0.033     2.549     2.497
    52   1 H        0.925     0.033     2.545     2.495
    53   1 H        0.925     0.036     2.507     2.476
    54   1 H        0.925     0.036     2.502     2.474
    55   1 H        0.925     0.036     2.502     2.474
    56   1 H        0.925     0.033     2.542     2.494
    57   1 H        0.925     0.036     2.507     2.476
    58   1 H        0.925     0.035     2.516     2.480
    59   1 H        0.925     0.035     2.521     2.483
    60   1 H        0.925     0.035     2.514     2.479
    61   1 H        0.926     0.026     2.642     2.542
    62   1 H        0.926     0.027     2.624     2.533
    63   1 H        0.926     0.033     2.544     2.494
    64   1 H        0.926     0.033     2.544     2.494
    65   1 H        0.926     0.027     2.624     2.533
    66   1 H        0.926     0.033     2.544     2.494

molecular dipole:
                 x           y           z       tot (Debye)
 q only:        0.001      -0.199      -0.002
   full:       -0.009      -0.480      -0.017       1.222

 projected vibrational frequencies (cm⁻¹)
eigval :       -0.00    -0.00    -0.00     0.00     0.00     0.00
eigval :       18.27    20.76    22.30    33.05    36.92    51.99
eigval :       63.72    69.31    80.64   100.31   127.76   132.67
eigval :      159.51   176.29   180.82   193.60   196.13   205.34
eigval :      218.58   223.82   233.09   247.04   263.93   291.22
eigval :      301.72   314.29   314.49   317.01   320.62   364.77
eigval :      368.13   370.00   378.23   379.60   384.52   394.58
eigval :      397.83   407.47   429.83   431.69   445.52   455.13
eigval :      463.16   467.03   481.82   513.63   529.84   545.01
eigval :      547.68   575.00   582.14   601.98   610.50   614.03
eigval :      631.66   660.41   671.74   684.75   701.74   705.25
eigval :      710.66   739.80   765.82   805.19   805.69   825.57
eigval :      827.90   839.43   867.08   869.97   871.62   874.48
eigval :      877.44   878.70   889.49   901.02   905.95   906.74
eigval :      917.85   918.15   930.44   930.51   960.59   960.60
eigval :      962.67   962.79   963.12   963.12   986.67  1003.46
eigval :     1023.39  1035.18  1035.22  1035.68  1035.68  1077.74
eigval :     1079.31  1144.01  1146.47  1147.25  1152.80  1156.36
eigval :     1157.96  1165.41  1201.48  1218.43  1220.75  1225.56
eigval :     1227.82  1227.84  1233.29  1234.69  1235.08  1276.46
eigval :     1281.17  1284.24  1284.52  1292.58  1300.33  1317.09
eigval :     1318.99  1323.16  1330.67  1348.66  1381.26  1396.08
eigval :     1397.64  1405.77  1405.80  1407.84  1409.26  1422.31
eigval :     1429.41  1429.42  1433.34  1474.50  1475.94  1492.22
eigval :     1492.26  1495.07  1495.10  1498.41  1499.00  1504.39
eigval :     1504.64  1511.94  1512.54  1514.83  1514.87  1520.38
eigval :     1520.43  1566.50  1567.18  1573.72  1581.95  1602.65
eigval :     1605.32  1610.70  1620.64  3020.61  3020.63  3022.03
eigval :     3022.12  3026.63  3026.67  3029.11  3029.28  3030.59
eigval :     3030.59  3035.31  3035.41  3037.50  3037.61  3046.48
eigval :     3046.69  3049.72  3049.94  3069.24  3070.13  3071.50
eigval :     3072.25  3073.50  3073.67  3082.68  3083.14  3086.66
eigval :     3088.42  3088.71  3090.59  3107.77  3108.01  3489.57

   temp. (K)  partition function   enthalpy   heat capacity  entropy
                                   cal/mol     cal/K/mol   cal/K/mol   J/K/mol
 298.15  VIB  0.387E+13            17497.686    111.888    106.148
         ROT  0.507E+08              888.752      2.981     38.237
         INT  0.196E+21            18386.438    114.869    144.385
         TR   0.868E+28             1481.254      4.968     44.057
         TOT                       19867.6922   119.8367   188.4420   788.4413

       T/K    H(0)-H(T)+PV         H(T)/Eh          T*S/Eh         G(T)/Eh
   ------------------------------------------------------------------------
    298.15    0.316612E-01    0.582143E+00    0.895349E-01    0.492609E+00
   ------------------------------------------------------------------------

         :::::::::::::::::::::::::::::::::::::::::::::::::::::
         ::                  THERMODYNAMIC                  ::
         :::::::::::::::::::::::::::::::::::::::::::::::::::::
         :: total free energy         -87.835663285278 Eh   ::
         ::.................................................::
         :: total energy              -88.328271824079 Eh   ::
         :: zero point energy           0.550482229463 Eh   ::
         :: G(RRHO) w/o ZPVE           -0.057873690662 Eh   ::
         :: G(RRHO) contrib.            0.492608538801 Eh   ::
         :::::::::::::::::::::::::::::::::::::::::::::::::::::

           -------------------------------------------------
          | TOTAL ENERGY              -88.328271824079 Eh   |
          | TOTAL ENTHALPY            -87.746128411812 Eh   |
          | TOTAL FREE ENERGY         -87.835663285278 Eh   |
          | GRADIENT NORM               0.000040130985 Eh/α |
          | HOMO-LUMO GAP               3.139112736135 eV   |
           -------------------------------------------------

 * finished run on 2025/09/13 at 19:18:54.855
