   * xtb version 6.7.1 (edcfbbe) compiled by 'albert@albert-system' on 2024-07-22

   ID    Z sym.   atoms
    1    6 C      1-12, 14-33
    2    7 N      13
    3    1 H      34-66

          program call               : xtb data2507/gas/t-BuPCz/t-BuPCz_gas_T1_crest.xyz --gfn 2 --spinpol --tblite --uhf 2 --ohess vtight --parallel 40 --molden --ceasefiles --namespace data2507/gas/t-BuPCz/t-BuPCz_gas_T1_finalOpt
 * total energy  :   -88.2230807 Eh     change        0.4759244E-08 Eh
 * total energy  :   -88.2231544 Eh     change       -0.7369863E-04 Eh
 * total energy  :   -88.2232065 Eh     change       -0.5204291E-04 Eh
 * total energy  :   -88.2232154 Eh     change       -0.8882601E-05 Eh
 * total energy  :   -88.2232301 Eh     change       -0.1479137E-04 Eh
 * total energy  :   -88.2232398 Eh     change       -0.9632816E-05 Eh
 * total energy  :   -88.2232499 Eh     change       -0.1011324E-04 Eh
 * total energy  :   -88.2232543 Eh     change       -0.4368749E-05 Eh
 * total energy  :   -88.2232560 Eh     change       -0.1775925E-05 Eh
 * total energy  :   -88.2232577 Eh     change       -0.1641520E-05 Eh
 * total energy  :   -88.2232823 Eh     change       -0.1217852E-05 Eh
 * total energy  :   -88.2232835 Eh     change       -0.1162903E-05 Eh
 * total energy  :   -88.2232842 Eh     change       -0.7772816E-06 Eh
 * total energy  :   -88.2232847 Eh     change       -0.4778291E-06 Eh
 * total energy  :   -88.2232851 Eh     change       -0.3758480E-06 Eh
 * total energy  :   -88.2232854 Eh     change       -0.3455246E-06 Eh
 * total energy  :   -88.2232857 Eh     change       -0.2374113E-06 Eh
 * total energy  :   -88.2232859 Eh     change       -0.2375065E-06 Eh
 * total energy  :   -88.2232860 Eh     change       -0.8144973E-07 Eh
   *** GEOMETRY OPTIMIZATION CONVERGED AFTER 43 ITERATIONS ***

 final structure:
================
66
 xtb: 6.7.1 (edcfbbe)
C           -7.36629752775892        3.11518927057255       -1.47775991641886
C           -7.14885924545777        2.67411583398328       -0.02314604606150
C           -8.44663586861395        2.07462585625471        0.53706987624834
C           -6.80120942643963        3.91461143534536        0.80422543539392
C           -6.05659453797797        1.61810519311461        0.01562010823600
C           -6.22711907029991        0.42434012919870       -0.68427804131536
C           -5.26589192915902       -0.56329364149228       -0.67749731659684
C           -4.07341033499184       -0.40180909782772        0.03013948672902
C           -3.04666126056581       -1.44319336388112        0.03996354125989
C           -3.41165727914141       -2.79751297808306        0.05668107749922
C           -2.47567532721254       -3.81081258851858        0.07101655977920
C           -1.13285313778370       -3.45452913427790        0.06037920035865
N           -0.01231210546568       -4.24281587647043        0.06465042636608
C            1.10407690983003       -3.46038051654083        0.04684946240818
C            2.46876523821510       -3.81493490347852        0.03896717888106
C            3.39700057832675       -2.82463570593731        0.01428039174156
C            3.06277904507894       -1.41610910984526        0.00245236137323
C            4.04613318574487       -0.42233330223791       -0.01419342423843
C            5.45275388809811       -0.70695622894503       -0.15368909543510
C            6.39303722722844        0.27372790684312       -0.16904934272244
C            6.06608571501270        1.64419552550302       -0.04181787240532
C            7.16088774500807        2.68631322040840       -0.06238132303541
C            6.62442101171038        4.11185206029111        0.09371542331765
C            8.13920268455333        2.41359405379188        1.09205481698299
C            7.91285288554051        2.60121187787925       -1.40098686244971
C            4.69779617509267        1.94725893383554        0.09757540580510
C            3.73666549944949        0.98184022470703        0.10749836250595
C            1.64349663343568       -1.09142869829260        0.01115935900571
C            0.71380126235627       -2.08893342618268        0.03040473507244
C           -0.73644335567171       -2.09281961593632        0.03997325162390
C           -1.68769304223152       -1.09739453195483        0.03424241080291
C           -3.89862920234386        0.79283541246787        0.72740111973990
C           -4.86923217175681        1.77585630462234        0.72197537097328
H           -7.67851240069486        2.28243252521770       -2.10183259153889
H           -6.44434951346202        3.52160488963335       -1.88869418822892
H           -8.13473765086063        3.88409850506101       -1.52596230245128
H           -8.77798038123228        1.22489433615889       -0.05330214771473
H           -8.29405098531869        1.73933553176996        1.56097201802651
H           -9.23776434315467        2.82172230624270        0.53230745033800
H           -6.66004287242622        3.65919240357056        1.85196477517274
H           -5.90048363719191        4.39521452068515        0.42937965204205
H           -7.61622236854157        4.63306768001956        0.74059259396269
H           -7.12944481788455        0.25733158660006       -1.25407230119203
H           -5.42787002599105       -1.46411738430768       -1.25175342497255
H           -4.46022552252244       -3.05339965627682        0.08591831267827
H           -2.77743402631868       -4.84780317870530        0.09490148096488
H           -0.01377891662532       -5.24975563341904        0.07492708315813
H            2.76078995825404       -4.85531745698439        0.05647818288999
H            4.43668655611792       -3.10586873747155        0.02392550834795
H            5.77877480547776       -1.72753540252273       -0.27284799779257
H            7.42905570151180       -0.01049896441532       -0.28630015453220
H            5.94766951629317        4.36582646594981       -0.71892450471671
H            7.45354418610375        4.81663575160313        0.07341816199955
H            6.10438481174634        4.23198472344980        1.04137953609055
H            8.92978608985392        3.16133329429092        1.09745531357552
H            7.61569661349469        2.45578646670021        2.04499299411665
H            8.59784754101047        1.43314558943541        0.99887342476047
H            7.22777379105320        2.77766679858226       -2.22768418715471
H            8.69989793196363        3.35184757969486       -1.43670947082954
H            8.36708103277075        1.62385833628561       -1.53808178099914
H            4.38654978858580        2.97482170616575        0.20307473779599
H            2.71133888029811        1.28774726988909        0.23477313064853
H            1.32082358981923       -0.06571835293156       -0.02143851993070
H           -1.39277646170200       -0.05992703798034       -0.00226109206059
H           -2.99919947287198        0.94439657830661        1.30665720930548
H           -4.68308053136754        2.67502037068419        1.28705721081433

 projected vibrational frequencies (cm⁻¹)
eigval :       -0.00    -0.00     0.00     0.00     0.00     0.00
eigval :       12.11    17.41    22.26    26.55    39.27    50.57
eigval :       52.38    60.29    75.97    93.30   112.66   134.99
eigval :      145.70   157.15   178.85   187.50   189.43   197.50
eigval :      214.46   221.27   227.45   245.22   254.60   278.94
eigval :      298.69   308.33   312.61   314.06   319.38   325.16
eigval :      357.86   364.68   365.81   368.27   376.79   378.68
eigval :      386.05   394.61   396.41   418.84   438.27   458.79
eigval :      462.15   467.49   479.62   500.81   508.14   524.56
eigval :      537.31   547.62   568.63   588.49   596.40   605.29
eigval :      612.91   650.79   653.85   659.65   662.47   689.58
eigval :      699.56   725.94   748.05   752.36   757.94   770.81
eigval :      772.84   801.20   820.59   832.05   835.09   863.54
eigval :      868.27   871.15   874.04   881.30   891.79   895.51
eigval :      902.91   907.63   915.47   928.10   948.21   955.96
eigval :      960.23   960.30   961.87   962.52   962.92   963.74
eigval :      983.34  1007.26  1029.42  1033.43  1034.94  1035.27
eigval :     1069.15  1090.34  1123.72  1135.68  1141.59  1147.05
eigval :     1155.27  1161.57  1182.90  1191.77  1213.48  1214.41
eigval :     1216.18  1224.70  1226.97  1231.80  1234.54  1240.73
eigval :     1264.70  1279.62  1283.11  1284.83  1297.48  1299.39
eigval :     1316.41  1322.20  1323.37  1347.40  1357.19  1361.50
eigval :     1395.91  1398.82  1402.15  1403.96  1405.35  1409.51
eigval :     1420.35  1426.41  1428.33  1437.34  1452.76  1467.86
eigval :     1479.34  1490.84  1492.00  1493.74  1494.07  1494.65
eigval :     1500.73  1502.57  1504.39  1506.06  1513.77  1514.67
eigval :     1517.05  1519.55  1520.00  1520.87  1544.01  1553.50
eigval :     1564.50  1601.06  1624.25  3019.68  3020.18  3020.64
eigval :     3022.00  3026.84  3027.00  3027.56  3029.08  3030.86
eigval :     3031.14  3035.42  3035.54  3037.85  3038.31  3046.78
eigval :     3047.00  3049.55  3049.70  3067.07  3068.90  3070.16
eigval :     3073.35  3075.41  3083.23  3091.80  3092.72  3093.39
eigval :     3097.62  3106.99  3107.70  3118.57  3126.70  3464.50

   temp. (K)  partition function   enthalpy   heat capacity  entropy
                                   cal/mol     cal/K/mol   cal/K/mol   J/K/mol
 298.15  VIB  0.238E+14            18010.602    113.998    110.082
         ROT  0.510E+08              888.752      2.981     38.250
         INT  0.122E+22            18899.355    116.979    148.332
         TR   0.868E+28             1481.254      4.968     44.057
         TOT                       20380.6085   121.9475   192.3886   804.9538

       T/K    H(0)-H(T)+PV         H(T)/Eh          T*S/Eh         G(T)/Eh
   ------------------------------------------------------------------------
    298.15    0.324786E-01    0.578061E+00    0.914100E-01    0.486651E+00
   ------------------------------------------------------------------------

         :::::::::::::::::::::::::::::::::::::::::::::::::::::
         ::                  THERMODYNAMIC                  ::
         :::::::::::::::::::::::::::::::::::::::::::::::::::::
         :: total free energy         -87.736634811907 Eh   ::
         ::.................................................::
         :: total energy              -88.223285995437 Eh   ::
         :: zero point energy           0.545582632919 Eh   ::
         :: G(RRHO) w/o ZPVE           -0.058931449388 Eh   ::
         :: G(RRHO) contrib.            0.486651183531 Eh   ::
         :::::::::::::::::::::::::::::::::::::::::::::::::::::

           -------------------------------------------------
          | TOTAL ENERGY              -88.223285995437 Eh   |
          | TOTAL ENTHALPY            -87.645224795459 Eh   |
          | TOTAL FREE ENERGY         -87.736634811907 Eh   |
          | GRADIENT NORM               0.000071387085 Eh/α |
           -------------------------------------------------

 * finished run on 2025/09/13 at 19:22:17.026
