   * xtb version 6.7.1 (edcfbbe) compiled by 'albert@albert-system' on 2024-07-22

   ID    Z sym.   atoms
    1    6 C      1-12, 14-33
    2    7 N      13
    3    1 H      34-66

          program call               : xtb data2507/gas/t-BuPCz/t-BuPCz_gas_S0_finalOpt.xtbopt.xyz --gfn 2 --spinpol --tblite --uhf 2 --ohess vtight --parallel 40 --molden --ceasefiles --namespace data2507/gas/t-BuPCz/t-BuPCz_gas_T1_preOpt
 * total energy  :   -88.2123745 Eh     change        0.5259336E-07 Eh
 * total energy  :   -88.2155064 Eh     change       -0.3131920E-02 Eh
 * total energy  :   -88.2168861 Eh     change       -0.1379649E-02 Eh
 * total energy  :   -88.2179302 Eh     change       -0.1044114E-02 Eh
 * total energy  :   -88.2185323 Eh     change       -0.6020900E-03 Eh
 * total energy  :   -88.2191433 Eh     change       -0.6109920E-03 Eh
 * total energy  :   -88.2195280 Eh     change       -0.3847654E-03 Eh
 * total energy  :   -88.2198675 Eh     change       -0.3394936E-03 Eh
 * total energy  :   -88.2204893 Eh     change       -0.6218005E-03 Eh
 * total energy  :   -88.2211487 Eh     change       -0.6593857E-03 Eh
 * total energy  :   -88.2232655 Eh     change       -0.3665447E-06 Eh
 * total energy  :   -88.2232657 Eh     change       -0.2115937E-06 Eh
 * total energy  :   -88.2232659 Eh     change       -0.2666659E-06 Eh
 * total energy  :   -88.2232662 Eh     change       -0.2064762E-06 Eh
 * total energy  :   -88.2232664 Eh     change       -0.2070255E-06 Eh
 * total energy  :   -88.2232666 Eh     change       -0.2311738E-06 Eh
 * total energy  :   -88.2232669 Eh     change       -0.3176233E-06 Eh
 * total energy  :   -88.2232672 Eh     change       -0.2432007E-06 Eh
 * total energy  :   -88.2232672 Eh     change       -0.3116143E-07 Eh
   *** GEOMETRY OPTIMIZATION CONVERGED AFTER 94 ITERATIONS ***

 final structure:
================
66
 xtb: 6.7.1 (edcfbbe)
C           -7.35960579234757        3.11462580840177       -1.48095751991929
C           -7.12594225291601        2.67904313139666       -0.02723430801410
C           -8.41830340823698        2.08480549941903        0.55083192822851
C           -6.76554841178126        3.92250145400075        0.79018865307466
C           -6.03626879143577        1.62012341190531        0.00452963398772
C           -6.21343002547544        0.42731212569825       -0.69536095453624
C           -5.25519376150022       -0.56329749558402       -0.69349420268128
C           -4.05948749562189       -0.40641877515960        0.00977998619869
C           -3.03605027343686       -1.45100121850746        0.01707224262222
C           -3.40439375336161       -2.80439284352840        0.03138939125437
C           -2.47109039664055       -3.82023899093864        0.04814395825013
C           -1.12721370207232       -3.46760910948409        0.04280153115915
N           -0.00852914879638       -4.25859649844510        0.05274416237863
C            1.10996148563488       -3.47893154517568        0.04031938044680
C            2.47391713994569       -3.83607468551853        0.04736794270602
C            3.40434979538109       -2.84744845828804        0.04213420140800
C            3.07270202273139       -1.43827609567695        0.01991843405080
C            4.05775298877053       -0.44601877903641        0.01231645199274
C            5.46326627567429       -0.72876527131110        0.17169962394768
C            6.41178986443368        0.24865504731624        0.16503889951289
C            6.08858374700993        1.60944149376277       -0.00699734289526
C            7.11311443664623        2.72080101647169       -0.02624118554210
C            7.04441114886196        3.44536425666827       -1.38081526712913
C            6.79999865734172        3.71647481598876        1.10277265407406
C            8.54356993465769        2.21131270463276        0.17019197844433
C            4.71660681941937        1.91029907101929       -0.16864234165567
C            3.75178681583015        0.95326428210840       -0.15606455350405
C            1.65438090826669       -1.11101174332741        0.00436396378221
C            0.72269682294614       -2.10644325517467        0.01917754529163
C           -0.72750646465420       -2.10693680876149        0.02370943482878
C           -1.67593413829351       -1.10900529772886        0.01474794281536
C           -3.87847366819845        0.78709137372057        0.70757433338824
C           -4.84569609211651        1.77336874353096        0.70644588402678
H           -8.12654882996073        3.88539685363982       -1.52301143845527
H           -7.68174003499799        2.28042168574182       -2.09793857278720
H           -6.44163276901595        3.51693148198063       -1.90461771258655
H           -8.75651863003826        1.23149634124022       -0.03046452359273
H           -8.25505380174376        1.75599169248912        1.57520085291727
H           -9.20864785858787        2.83274791644712        0.54971811411782
H           -6.61678706059039        3.67252634570449        1.83817093887340
H           -5.86568838488541        4.39657129192579        0.40501478991908
H           -7.57770627479842        4.64442109356296        0.72935902311097
H           -7.11884722534970        0.26332903511647       -1.26113892576371
H           -5.42246895092380       -1.46298102515435       -1.26801169134516
H           -4.45363535499685       -3.05783312432837        0.05743731150124
H           -2.77579458787690       -4.85640336530407        0.07037219960886
H           -0.01267232660636       -5.26547944951252        0.06705853845912
H            2.76379187668276       -4.87718952823784        0.05423327584546
H            4.44356291946660       -3.13052696543776        0.03210473053048
H            5.78441228127045       -1.74582855899814        0.32787733663328
H            7.44173239653166       -0.04225874458642        0.30075039141388
H            7.25053446475712        2.74778368608721       -2.19001762412763
H            7.78205217653273        4.24462945404387       -1.41582704611170
H            6.06260183926482        3.87952029347851       -1.54765118437005
H            5.81378234479340        4.15554192582753        0.98098433828602
H            6.83212757267830        3.21265076880440        2.06664301245011
H            7.53355429201139        4.52024186991965        1.10718969308607
H            8.82574095563316        1.52288082621986       -0.62312219345902
H            9.23502744686869        3.05153806818176        0.14775541496578
H            8.65221005702610        1.71238354450672        1.13051989138559
H            4.41725549483878        2.93891940407630       -0.31076717769813
H            2.72854379606733        1.25737796963324       -0.30369268056131
H            1.33406788401494       -0.08401610891365        0.00495522728979
H           -1.37785019307684       -0.07241656702023       -0.02018628511079
H           -2.97685805525169        0.93512775450722        1.28430642990386
H           -4.65441084012915        2.67133952642460        1.27169886946195

 projected vibrational frequencies (cm⁻¹)
eigval :       -0.00    -0.00    -0.00    -0.00     0.00     0.00
eigval :       13.14    16.92    22.13    27.79    35.96    51.50
eigval :       54.36    64.24    69.16    93.48   116.59   134.62
eigval :      144.00   159.11   179.03   186.65   187.69   201.66
eigval :      213.52   220.88   227.66   237.88   257.41   281.25
eigval :      297.03   308.69   313.71   314.82   319.42   325.10
eigval :      360.55   362.24   365.42   369.05   376.95   378.64
eigval :      385.25   394.67   396.99   419.23   437.92   458.48
eigval :      462.31   467.27   479.71   500.01   508.73   524.28
eigval :      538.48   546.65   568.76   588.49   596.52   605.15
eigval :      612.79   650.63   653.82   659.79   662.48   689.44
eigval :      699.56   725.87   748.97   752.32   760.40   769.25
eigval :      773.60   801.10   820.61   831.73   834.86   863.31
eigval :      868.14   871.05   873.80   881.16   891.83   896.01
eigval :      902.79   907.38   915.38   927.96   948.14   955.91
eigval :      960.11   960.14   961.79   962.47   962.80   963.26
eigval :      983.43  1007.69  1029.33  1033.35  1034.80  1035.15
eigval :     1069.20  1088.28  1124.95  1135.34  1141.57  1147.09
eigval :     1154.96  1161.15  1183.18  1191.04  1212.67  1214.38
eigval :     1216.33  1224.03  1226.87  1232.50  1234.77  1244.22
eigval :     1261.79  1279.41  1282.49  1284.79  1295.97  1299.45
eigval :     1317.85  1322.07  1323.14  1347.24  1356.45  1361.43
eigval :     1395.50  1398.75  1402.10  1403.77  1405.20  1409.20
eigval :     1420.41  1425.86  1427.63  1436.78  1452.43  1467.77
eigval :     1480.21  1490.63  1491.85  1492.38  1493.70  1494.41
eigval :     1500.30  1502.06  1504.23  1505.74  1513.57  1514.40
eigval :     1517.64  1519.05  1519.66  1520.14  1543.80  1553.36
eigval :     1564.54  1600.97  1624.71  3019.55  3020.18  3020.66
eigval :     3021.96  3026.79  3026.92  3027.62  3029.05  3030.76
eigval :     3031.11  3035.30  3035.53  3037.64  3038.16  3046.82
eigval :     3047.25  3049.78  3049.90  3067.33  3069.12  3070.00
eigval :     3073.26  3075.54  3083.11  3090.51  3091.79  3093.54
eigval :     3102.60  3103.50  3107.67  3118.58  3126.46  3464.49

   temp. (K)  partition function   enthalpy   heat capacity  entropy
                                   cal/mol     cal/K/mol   cal/K/mol   J/K/mol
 298.15  VIB  0.226E+14            18009.139    114.005    110.016
         ROT  0.510E+08              888.752      2.981     38.249
         INT  0.115E+22            18897.892    116.986    148.265
         TR   0.868E+28             1481.254      4.968     44.057
         TOT                       20379.1455   121.9541   192.3215   804.6733

       T/K    H(0)-H(T)+PV         H(T)/Eh          T*S/Eh         G(T)/Eh
   ------------------------------------------------------------------------
    298.15    0.324762E-01    0.578032E+00    0.913782E-01    0.486654E+00
   ------------------------------------------------------------------------

         :::::::::::::::::::::::::::::::::::::::::::::::::::::
         ::                  THERMODYNAMIC                  ::
         :::::::::::::::::::::::::::::::::::::::::::::::::::::
         :: total free energy         -87.736613023855 Eh   ::
         ::.................................................::
         :: total energy              -88.223267184397 Eh   ::
         :: zero point energy           0.545556094656 Eh   ::
         :: G(RRHO) w/o ZPVE           -0.058901934114 Eh   ::
         :: G(RRHO) contrib.            0.486654160542 Eh   ::
         :::::::::::::::::::::::::::::::::::::::::::::::::::::

           -------------------------------------------------
          | TOTAL ENERGY              -88.223267184397 Eh   |
          | TOTAL ENTHALPY            -87.645234854239 Eh   |
          | TOTAL FREE ENERGY         -87.736613023855 Eh   |
          | GRADIENT NORM               0.000041185701 Eh/α |
           -------------------------------------------------

 * finished run on 2025/09/13 at 19:19:03.434
