   * xtb version 6.7.1 (edcfbbe) compiled by 'albert@albert-system' on 2024-07-22

   ID    Z sym.   atoms
    1    6 C      1-11, 13-19, 21-27, 29-31, 33-46
    2    7 N      12, 20, 28, 32
    3    1 H      47-78

          program call               : xtb data2507/toluene/DMIC-TRZ/DMIC-TRZ_toluene_S0_finalOpt.xtbopt.xyz --gfn 2 --uhf 2 --gbsa toluene --ohess vtight --parallel 40 --molden --ceasefiles --namespace data2507/toluene/DMIC-TRZ/DMIC-TRZ_toluene_T1_preOpt
      * Solvation model:               GBSA
        Solvent                        toluene
        Solvent mass                       9.2140E+01 g/mol
          :  Hamiltonian                  GFN2-xTB          :
 * total energy  :  -117.9825405 Eh     change       -0.4219217E-08 Eh
 * total energy  :  -117.9871482 Eh     change       -0.4607758E-02 Eh
 * total energy  :  -117.9886271 Eh     change       -0.1478830E-02 Eh
 * total energy  :  -117.9886934 Eh     change       -0.6636153E-04 Eh
 * total energy  :  -117.9887323 Eh     change       -0.3884579E-04 Eh
 * total energy  :  -117.9887466 Eh     change       -0.1432881E-04 Eh
 * total energy  :  -117.9887586 Eh     change       -0.1200584E-04 Eh
 * total energy  :  -117.9887637 Eh     change       -0.5042396E-05 Eh
 * total energy  :  -117.9887678 Eh     change       -0.4118652E-05 Eh
 * total energy  :  -117.9887695 Eh     change       -0.1697608E-05 Eh
 * total energy  :  -117.9887796 Eh     change       -0.1677834E-05 Eh
 * total energy  :  -117.9887807 Eh     change       -0.1105420E-05 Eh
 * total energy  :  -117.9887814 Eh     change       -0.7111026E-06 Eh
 * total energy  :  -117.9887819 Eh     change       -0.5050151E-06 Eh
 * total energy  :  -117.9887823 Eh     change       -0.4226526E-06 Eh
 * total energy  :  -117.9887827 Eh     change       -0.3561631E-06 Eh
 * total energy  :  -117.9887830 Eh     change       -0.3108732E-06 Eh
 * total energy  :  -117.9887833 Eh     change       -0.3218307E-06 Eh
 * total energy  :  -117.9887833 Eh     change       -0.9060614E-08 Eh
   *** GEOMETRY OPTIMIZATION CONVERGED AFTER 22 ITERATIONS ***

 final structure:
================
78
 xtb: 6.7.1 (edcfbbe)
C            0.86300125717343       -2.58040400221585       -2.07571500841052
C            1.73244499676395       -3.37125496462100       -1.08567814264697
C            3.01348029738072       -3.81594594751519       -1.81345436917541
C            1.01699200261710       -4.65462479976159       -0.60795362956037
C            0.02075874838796       -4.51912892565879        0.56248528606897
C           -1.30704767974527       -3.92262960794220        0.12838134158743
C           -2.28759810142536       -4.74311192243700       -0.42115843298487
C           -3.50792797567745       -4.22283846284779       -0.82235001012369
C           -3.76913550286363       -2.87261391112232       -0.68883797760790
C           -2.79422965823907       -2.03651562482103       -0.14840106061635
C           -3.02333336868523       -0.59819235341883       -0.02253659628134
N           -4.26458436105510       -0.13932096691141       -0.15975885149210
C           -4.41322354929629        1.17731330666233       -0.03218296727362
C           -5.76460970080067        1.72795087712501       -0.14280900173027
C           -5.96449840188852        3.10775554989909       -0.13532338829083
C           -7.24269172057992        3.62320721802594       -0.23380995362890
C           -8.33074465939943        2.76995913238948       -0.33978613736837
C           -8.13823477393641        1.39673164764382       -0.34818516225372
C           -6.86246555629822        0.87518176875265       -0.25100777125031
N           -3.41034878871473        2.02409949438557        0.18922794221979
C           -2.20081243178472        1.47859265275682        0.29759951990659
C           -1.05698471653017        2.36456413015071        0.51552469515909
C            0.24047393465079        1.85687020900836        0.45570257288403
C            1.32215513325841        2.69421626956762        0.64834665372576
C            1.12022333460781        4.04105478867783        0.90880982526683
C           -0.16772428488815        4.55161821696303        0.97299643462056
C           -1.25352338855603        3.72016478420960        0.77513632464947
N           -1.96488591366895        0.17266138853979        0.21514205130500
C           -1.57515874269550       -2.56983659940563        0.26347470488091
C            0.62189820304778       -3.74160272851124        1.68339575148606
C            1.56099901127267       -2.79081293337079        1.38955649507903
N            2.12508562768445       -1.89582418948142        2.27981487998794
C            2.93946547250059       -1.03729115656894        1.60672278773674
C            3.67794740753825        0.02487074518225        2.11165040766330
C            4.42090237833132        0.75885806151818        1.19516148583095
C            4.40859579112344        0.42455391189050       -0.20241557070436
C            3.67984318816097       -0.63544533833539       -0.69012845457165
C            2.92907389157655       -1.40078650075937        0.22044707450451
C            2.08076468543866       -2.52073895928196        0.09830121176804
C            5.25615934742435        1.38561960637362       -0.86702317417730
C            5.60938551601383        1.55609484675311       -2.19196243850840
C            6.46276822935940        2.59609228568024       -2.53115726169822
C            6.96533844818623        3.46786804766616       -1.56000282567028
C            6.62882307353253        3.32250190519177       -0.23341404245702
C            5.76698265687972        2.27853117359588        0.13661603782994
C            5.25867163868498        1.89537162357022        1.38386488565350
H            0.64947670748285       -3.18640095934435       -2.95428834042831
H            1.38162146017850       -1.67949839663402       -2.39495498160280
H           -0.07858151193013       -2.28631642520871       -1.62156232607830
H            3.50531085478937       -2.97306822919689       -2.28796246360949
H            2.76828031211827       -4.54550120243560       -2.58269471414273
H            3.71336527202191       -4.26848428860698       -1.11402652940589
H            0.50262042230924       -5.10610082257409       -1.45800116199117
H            1.78855019481298       -5.35323731192838       -0.27525132397594
H           -0.19816583244736       -5.53603083015478        0.91208899453888
H           -2.09580727465067       -5.80065278257159       -0.53345262190149
H           -4.25802065466667       -4.87642957580667       -1.24283379342847
H           -4.71021739627404       -2.44834435158632       -1.00207473748361
H           -5.10593716106896        3.75625666972303       -0.05475718435739
H           -7.39296740280785        4.69265471044977       -0.22870587894181
H           -9.32881078177389        3.17537713636674       -0.41606876456511
H           -8.98571312331368        0.73231698443285       -0.43009012114283
H           -6.69347542185831       -0.19052093821499       -0.25199025807273
H            0.38200004310220        0.80753830612383        0.24936890825317
H            2.32345510706587        2.29545515317694        0.59511743783264
H            1.96852845993624        4.69227163818118        1.05962868510734
H           -0.32434521459105        5.60063501008445        1.17685190592241
H           -2.26257865011060        4.09983441439014        0.82132262672968
H           -0.84445623429339       -1.90172549385374        0.69197844662669
H            0.23367361036324       -3.86973459322326        2.68091745381468
H            1.91668456173644       -1.85388702492971        3.26342062330222
H            3.66601585130281        0.27260836208766        3.16295708493268
H            3.67714831771636       -0.86188969156623       -1.74433514888487
H            5.23037624811434        0.89195514718654       -2.95569590341763
H            6.74708909358146        2.73842247714094       -3.56400054372409
H            7.62828220696470        4.26580291363499       -1.86338526858579
H            7.01733299577359        3.99650172773989        0.51686643245110
H            5.45789864129174        2.37262724567923        2.32630140467456

          :  Hamiltonian                  GFN2-xTB          :
         :: gradient norm              0.000073160330 Eh/a0 ::
         :: HOMO-LUMO gap              0.285145707647 eV    ::
         :: SCC energy              -120.097253069633 Eh    ::
         :: -> dispersion             -0.108117952303 Eh    ::
         :: -> Gsolv                  -0.051451129204 Eh    ::
         :: repulsion energy           2.108469731201 Eh    ::

    * Orbital Energies and Occupations

         #    Occupation            Energy/Eh            Energy/eV
      -------------------------------------------------------------
         1        2.0000           -0.6881140             -18.7245
       ...           ...                  ...                  ...
        99        2.0000           -0.4125525             -11.2261
       100        2.0000           -0.4112396             -11.1904
       101        2.0000           -0.4108198             -11.1790
       102        2.0000           -0.4099886             -11.1564
       103        2.0000           -0.4087697             -11.1232
       104        2.0000           -0.4067507             -11.0682
       105        2.0000           -0.3996405             -10.8748
       106        2.0000           -0.3863450             -10.5130
       107        2.0000           -0.3783905             -10.2965
       108        2.0000           -0.3781636             -10.2904
       109        2.0000           -0.3658070              -9.9541
       110        1.0000           -0.3361062              -9.1459
       111        0.9954           -0.3014785              -8.2036 (HOMO)
       112        0.0035           -0.2909996              -7.9185 (LUMO)
       113        0.0011           -0.2899372              -7.8896
       114                         -0.2473154              -6.7298
       115                         -0.2360917              -6.4244
       116                         -0.2329209              -6.3381
       117                         -0.2315353              -6.3004
       118                         -0.2305566              -6.2738
       119                         -0.2148096              -5.8453
       120                         -0.2010300              -5.4703
       121                         -0.2004825              -5.4554
       122                         -0.1803536              -4.9077
       ...                                ...                  ...
       216                          0.7431326              20.2217
      -------------------------------------------------------------
                  HL-Gap            0.0104789 Eh            0.2851 eV

     #   Z          covCN         q      C6AA      α(0)
     1   6 C        3.759    -0.104    22.543     6.769
     2   6 C        3.900     0.030    20.015     6.359
     3   6 C        3.763    -0.108    22.603     6.777
     4   6 C        3.813    -0.068    21.799     6.646
     5   6 C        3.863    -0.017    20.835     6.491
     6   6 C        2.970     0.019    27.572     8.613
     7   6 C        2.925    -0.033    28.814     8.803
     8   6 C        2.917    -0.029    28.731     8.790
     9   6 C        2.922    -0.031    28.774     8.797
    10   6 C        2.983    -0.012    28.318     8.729
    11   6 C        2.983     0.220    23.372     7.930
    12   7 N        1.843    -0.327    29.333     8.027
    13   6 C        2.981     0.219    23.396     7.934
    14   6 C        2.983    -0.010    28.263     8.721
    15   6 C        2.923    -0.026    28.661     8.779
    16   6 C        2.918    -0.028    28.689     8.783
    17   6 C        2.920    -0.023    28.574     8.766
    18   6 C        2.918    -0.028    28.690     8.783
    19   6 C        2.923    -0.026    28.664     8.780
    20   7 N        1.843    -0.327    29.334     8.027
    21   6 C        2.980     0.220    23.377     7.931
    22   6 C        2.983    -0.010    28.258     8.720
    23   6 C        2.924    -0.025    28.633     8.775
    24   6 C        2.918    -0.027    28.687     8.783
    25   6 C        2.920    -0.022    28.558     8.763
    26   6 C        2.918    -0.028    28.695     8.784
    27   6 C        2.923    -0.027    28.675     8.782
    28   7 N        1.845    -0.325    29.291     8.021
    29   6 C        2.929    -0.032    28.797     8.801
    30   6 C        2.901    -0.069    29.726     8.940
    31   6 C        3.050     0.054    26.742     8.481
    32   7 N        2.757    -0.119    23.593     7.214
    33   6 C        3.069     0.057    26.644     8.464
    34   6 C        2.902    -0.054    29.337     8.881
    35   6 C        3.082    -0.001    27.960     8.668
    36   6 C        3.051    -0.022    28.502     8.756
    37   6 C        2.904    -0.042    29.039     8.836
    38   6 C        3.074    -0.015    28.305     8.723
    39   6 C        3.058    -0.035    28.817     8.803
    40   6 C        3.067    -0.003    28.025     8.681
    41   6 C        2.908    -0.035    28.865     8.810
    42   6 C        2.920    -0.031    28.769     8.796
    43   6 C        2.916    -0.037    28.913     8.817
    44   6 C        2.909    -0.033    28.831     8.804
    45   6 C        3.071    -0.002    28.003     8.677
    46   6 C        2.981    -0.047    29.152     8.857
    47   1 H        0.925     0.036     2.501     2.473
    48   1 H        0.925     0.037     2.491     2.468
    49   1 H        0.925     0.032     2.553     2.498
    50   1 H        0.925     0.043     2.410     2.428
    51   1 H        0.925     0.039     2.462     2.454
    52   1 H        0.925     0.035     2.512     2.479
    53   1 H        0.924     0.043     2.409     2.427
    54   1 H        0.924     0.046     2.365     2.405
    55   1 H        0.924     0.053     2.288     2.365
    56   1 H        0.926     0.049     2.334     2.389
    57   1 H        0.926     0.046     2.374     2.409
    58   1 H        0.926     0.045     2.380     2.413
    59   1 H        0.926     0.049     2.326     2.385
    60   1 H        0.926     0.047     2.361     2.403
    61   1 H        0.926     0.049     2.330     2.387
    62   1 H        0.926     0.047     2.360     2.402
    63   1 H        0.926     0.050     2.321     2.382
    64   1 H        0.926     0.049     2.336     2.390
    65   1 H        0.926     0.046     2.372     2.408
    66   1 H        0.926     0.048     2.350     2.397
    67   1 H        0.926     0.047     2.362     2.403
    68   1 H        0.926     0.049     2.331     2.388
    69   1 H        0.926     0.050     2.326     2.385
    70   1 H        0.926     0.027     2.624     2.533
    71   1 H        0.860     0.162     1.321     1.800
    72   1 H        0.926     0.032     2.561     2.503
    73   1 H        0.926     0.028     2.621     2.532
    74   1 H        0.926     0.027     2.635     2.538
    75   1 H        0.926     0.028     2.615     2.529
    76   1 H        0.926     0.026     2.638     2.540
    77   1 H        0.926     0.028     2.612     2.528
    78   1 H        0.926     0.028     2.618     2.530

molecular dipole:
                 x           y           z       tot (Debye)
 q only:       -0.200      -0.934       0.451
   full:       -0.274      -0.832       0.713       2.871

 projected vibrational frequencies (cm⁻¹)
eigval :       -0.00    -0.00    -0.00    -0.00     0.00     0.00
eigval :       10.52    12.66    19.29    24.78    35.75    42.46
eigval :       44.93    47.82    51.45    62.12    67.21    90.49
eigval :       94.96    99.64   106.02   128.58   139.84   155.40
eigval :      181.85   182.51   184.00   194.89   198.67   218.36
eigval :      223.87   226.55   234.20   240.55   250.28   270.38
eigval :      274.87   303.92   306.97   320.49   332.12   354.70
eigval :      366.62   367.43   367.47   373.31   388.58   395.79
eigval :      401.43   415.83   416.90   422.50   438.65   443.28
eigval :      461.75   464.93   472.91   505.09   511.29   528.83
eigval :      531.57   549.43   559.65   571.46   586.14   586.59
eigval :      587.41   611.58   615.22   620.76   629.21   639.46
eigval :      648.23   654.56   658.09   665.56   675.16   678.80
eigval :      684.05   687.20   694.34   703.57   726.72   736.48
eigval :      750.67   763.53   766.58   774.74   783.10   795.54
eigval :      799.89   809.68   814.49   832.12   846.81   857.38
eigval :      860.92   861.56   873.97   877.85   898.40   899.82
eigval :      909.61   911.68   912.25   915.07   917.72   920.78
eigval :      928.57   930.13   930.82   931.70   937.09   956.23
eigval :      959.71   966.94   975.07   983.39   989.04   991.34
eigval :     1007.20  1021.36  1047.23  1061.79  1074.54  1075.32
eigval :     1081.80  1091.75  1107.52  1110.26  1110.59  1118.87
eigval :     1123.57  1126.20  1142.58  1146.81  1159.17  1166.55
eigval :     1171.28  1174.40  1176.02  1177.12  1183.52  1186.45
eigval :     1199.27  1202.11  1205.56  1206.64  1209.22  1214.22
eigval :     1223.26  1236.30  1239.82  1258.50  1267.11  1268.79
eigval :     1269.18  1283.83  1293.33  1302.20  1316.43  1325.92
eigval :     1326.99  1332.56  1334.93  1346.47  1354.90  1359.27
eigval :     1362.18  1363.99  1370.42  1383.40  1397.31  1406.87
eigval :     1417.30  1423.99  1426.77  1432.31  1454.56  1459.95
eigval :     1465.10  1468.55  1472.10  1475.28  1490.19  1491.55
eigval :     1492.06  1493.50  1498.62  1501.61  1508.17  1530.54
eigval :     1542.63  1551.79  1570.92  1576.59  1580.85  1581.64
eigval :     1582.42  1588.21  1592.16  1593.02  2900.05  2965.58
eigval :     2982.65  3017.90  3023.48  3027.25  3036.56  3061.70
eigval :     3063.44  3064.69  3066.42  3072.90  3073.24  3074.85
eigval :     3077.61  3078.01  3081.50  3083.41  3084.05  3087.11
eigval :     3091.90  3093.53  3095.60  3098.63  3101.86  3102.07
eigval :     3103.61  3104.05  3105.74  3108.71  3128.90  3474.62

   temp. (K)  partition function   enthalpy   heat capacity  entropy
                                   cal/mol     cal/K/mol   cal/K/mol   J/K/mol
 298.15  VIB  0.546E+17            21944.402    139.507    135.652
         ROT  0.695E+08              888.752      2.981     38.866
         INT  0.379E+25            22833.154    142.488    174.517
         TR   0.140E+29             1481.254      4.968     45.002
         TOT                       24314.4079   147.4560   219.5195   918.4696

       T/K    H(0)-H(T)+PV         H(T)/Eh          T*S/Eh         G(T)/Eh
   ------------------------------------------------------------------------
    298.15    0.387475E-01    0.647264E+00    0.104301E+00    0.542963E+00
   ------------------------------------------------------------------------

         :::::::::::::::::::::::::::::::::::::::::::::::::::::
         ::                  THERMODYNAMIC                  ::
         :::::::::::::::::::::::::::::::::::::::::::::::::::::
         :: total free energy        -117.445819841263 Eh   ::
         ::.................................................::
         :: total energy             -117.988783337868 Eh   ::
         :: zero point energy           0.608516819173 Eh   ::
         :: G(RRHO) w/o ZPVE           -0.065553322567 Eh   ::
         :: G(RRHO) contrib.            0.542963496605 Eh   ::
         :::::::::::::::::::::::::::::::::::::::::::::::::::::

           -------------------------------------------------
          | TOTAL ENERGY             -117.988783337868 Eh   |
          | TOTAL ENTHALPY           -117.341519043393 Eh   |
          | TOTAL FREE ENERGY        -117.445819841263 Eh   |
          | GRADIENT NORM               0.000073166555 Eh/α |
          | HOMO-LUMO GAP               0.285145521372 eV   |
           -------------------------------------------------

 * finished run on 2025/07/18 at 23:37:48.248
