   * xtb version 6.7.1 (edcfbbe) compiled by 'albert@albert-system' on 2024-07-22

   ID    Z sym.   atoms
    1    6 C      1-11, 13-19, 21-27, 29-31, 33-46
    2    7 N      12, 20, 28, 32
    3    1 H      47-78

          program call               : xtb data2507/toluene/DMIC-TRZ/DMIC-TRZ.xyz --gfn 2 --gbsa toluene --ohess vtight --parallel 40 --molden --ceasefiles --namespace data2507/toluene/DMIC-TRZ/DMIC-TRZ_toluene_S0_preOpt
      * Solvation model:               GBSA
        Solvent                        toluene
        Solvent mass                       9.2140E+01 g/mol
          :  Hamiltonian                  GFN2-xTB          :
 * total energy  :  -118.0065884 Eh     change       -0.4174041E-08 Eh
 * total energy  :  -118.0183477 Eh     change       -0.1175938E-01 Eh
 * total energy  :  -118.0216652 Eh     change       -0.3317440E-02 Eh
 * total energy  :  -118.0223287 Eh     change       -0.6635065E-03 Eh
 * total energy  :  -118.0225454 Eh     change       -0.2167157E-03 Eh
 * total energy  :  -118.0225969 Eh     change       -0.5152120E-04 Eh
 * total energy  :  -118.0226277 Eh     change       -0.3079264E-04 Eh
 * total energy  :  -118.0226473 Eh     change       -0.1957827E-04 Eh
 * total energy  :  -118.0226622 Eh     change       -0.1491759E-04 Eh
 * total energy  :  -118.0226798 Eh     change       -0.1760535E-04 Eh
 * total energy  :  -118.0228464 Eh     change       -0.5422990E-06 Eh
 * total energy  :  -118.0228468 Eh     change       -0.4849636E-06 Eh
 * total energy  :  -118.0228473 Eh     change       -0.4433428E-06 Eh
 * total energy  :  -118.0228475 Eh     change       -0.2512989E-06 Eh
 * total energy  :  -118.0228477 Eh     change       -0.1587169E-06 Eh
 * total energy  :  -118.0228476 Eh     change        0.5734624E-07 Eh
 * total energy  :  -118.0228478 Eh     change       -0.1213368E-06 Eh
 * total energy  :  -118.0228478 Eh     change        0.1408937E-07 Eh
 * total energy  :  -118.0228478 Eh     change       -0.4892688E-07 Eh
   *** GEOMETRY OPTIMIZATION CONVERGED AFTER 58 ITERATIONS ***

 final structure:
================
78
 xtb: 6.7.1 (edcfbbe)
C            3.28434731434487        0.27200249475263        2.28134465131567
C            2.66680570161146        0.40673028675553        0.88400294683685
C            2.53218941884633        1.89617321356880        0.52850856132740
C            1.28497482761014       -0.27599909654532        0.91694861500187
C            0.58427231728158       -0.36564481367537       -0.44831534604697
C           -0.68479759380502       -1.17042820919862       -0.31085879297637
C           -0.62936253734609       -2.55806246269808       -0.21390659049650
C           -1.78692014120153       -3.30472056816265       -0.07206526117088
C           -3.01760422354606       -2.67800717399798       -0.02367248625128
C           -3.09043900266181       -1.28937680700077       -0.11614265463745
C           -4.38648742562295       -0.61246115469018       -0.07223882873730
N           -4.40339827250119        0.71281055193103       -0.19401225574096
C           -5.60306122626115        1.28704297296903       -0.15778038899602
C           -5.67143058557174        2.74313528550288       -0.28946926237544
C           -6.90315292999014        3.39532940107133       -0.25221000944276
C           -6.96396160901935        4.76998683194103       -0.37834048567221
C           -5.79989325788800        5.50565922271643       -0.54189722115885
C           -4.57166956147665        4.86308942538356       -0.57879373591196
C           -4.50471007422233        3.48873480970610       -0.45400982926069
N           -6.74412254125049        0.61806165311850       -0.01115593675099
C           -6.63434624222415       -0.70279109344828        0.10897478494822
C           -7.86200503084817       -1.48195353048991        0.27567272263797
C           -9.10529927823058       -0.85274441619521        0.22733171395859
C          -10.26246200486426       -1.59094561623180        0.38569477662200
C          -10.19084558312359       -2.95997969415244        0.59446996363945
C           -8.95732317200359       -3.59166719490898        0.64362599194915
C           -7.79673107806919       -2.85895003146601        0.48491898603039
N           -5.47702935932616       -1.35875013331337        0.08480641928475
C           -1.92006256873398       -0.54619409886068       -0.25827094825944
C            1.50186837435018       -0.96397216253413       -1.46837308782096
C            2.83777954852146       -0.90084482594823       -1.29295774811301
N            3.82058682267823       -1.39129640428786       -2.12691988977130
C            5.06077419139630       -1.07890689651198       -1.62727134320388
C            6.28829491775385       -1.35754594161481       -2.13904237977387
C            7.41598979406741       -0.89856336470970       -1.41172929023367
C            7.22071193205841       -0.15888096750065       -0.16841180929339
C            5.99254088859391        0.11208445165082        0.33311643312261
C            4.85108893086865       -0.35037426846067       -0.38579493526081
C            3.49461408502211       -0.25706620436919       -0.17671758706999
C            8.54795911564589        0.17475175371701        0.32628830801646
C            8.97376441862104        0.85464560134702        1.44702002713196
C           10.34121166434741        1.01621353867050        1.65075133075134
C           11.25908600660063        0.50445485695740        0.74626409013404
C           10.84326768083347       -0.18350913883644       -0.38593893916858
C            9.48426397710849       -0.35275711369294       -0.60064146428503
C            8.76224501220336       -1.00680915763645       -1.65807694897370
H            2.55069171287391        0.55017249283296        3.03524298992425
H            4.14297976552525        0.92557330369333        2.39682860988592
H            3.59838264388375       -0.75269809401622        2.46646418913259
H            3.50914745712238        2.37371030742771        0.54729929206840
H            1.88579124663124        2.39457835742555        1.24745219328093
H            2.11553670032664        2.02240259616356       -0.46742802359047
H            1.41633673814715       -1.29106043123149        1.29927216209775
H            0.63615992450119        0.26034180012692        1.61187770092560
H            0.30504072229795        0.64619098213301       -0.77111401071029
H            0.33012239817808       -3.05329328949078       -0.25517499383721
H           -1.72873312735197       -4.38083205972744       -0.00052522421250
H           -3.92993756104361       -3.24329129689237        0.08232221540839
H           -7.79851235438256        2.80762222174825       -0.12268834653443
H           -7.92051420348399        5.27055014587696       -0.34940857795614
H           -5.84971933476523        6.58001279380875       -0.64031696826273
H           -3.66526472074048        5.43631407796296       -0.70590233045056
H           -3.55809679698579        2.97212615846151       -0.48111833103838
H           -9.14200306572493        0.21293677044194        0.06300774164705
H          -11.22333385083363       -1.09935000626505        0.34708505866010
H          -11.09665952111663       -3.53477332591981        0.71872606768887
H           -8.90225582890760       -4.65787366866131        0.80672898712847
H           -6.82836651841675       -3.33331620278426        0.52151864438558
H           -1.99941609557781        0.52793744672064       -0.32994561590452
H            1.06522882814379       -1.42014632380896       -2.34358028160883
H            3.65181056738764       -1.87494199836553       -2.99132095451966
H            6.41580604253575       -1.89994170363982       -3.06428963231631
H            5.87536671837041        0.66713947852057        1.24943042834024
H            8.26653139336872        1.25764109212584        2.15813129566593
H           10.69209474320205        1.54674798346640        2.52457680366457
H           12.31626975991228        0.64360600320540        0.92613076119351
H           11.56709365841193       -0.57936822423472       -1.08486646155469
H            9.22090231793839       -1.49642219770919       -2.49914325438932

          :  Hamiltonian                  GFN2-xTB          :
         :: gradient norm              0.000074118901 Eh/a0 ::
         :: HOMO-LUMO gap              0.970239000272 eV    ::
         :: SCC energy              -120.143665406700 Eh    ::
         :: -> dispersion             -0.100609265561 Eh    ::
         :: -> Gsolv                  -0.055355409207 Eh    ::
         :: repulsion energy           2.120817604496 Eh    ::

    * Orbital Energies and Occupations

         #    Occupation            Energy/Eh            Energy/eV
      -------------------------------------------------------------
         1        2.0000           -0.6899071             -18.7733
       ...           ...                  ...                  ...
        98        2.0000           -0.4163726             -11.3301
        99        2.0000           -0.4141533             -11.2697
       100        2.0000           -0.4128013             -11.2329
       101        2.0000           -0.4122569             -11.2181
       102        2.0000           -0.4089243             -11.1274
       103        2.0000           -0.4071048             -11.0779
       104        2.0000           -0.4047204             -11.0130
       105        2.0000           -0.4038897             -10.9904
       106        2.0000           -0.3820863             -10.3971
       107        2.0000           -0.3801501             -10.3444
       108        2.0000           -0.3799035             -10.3377
       109        2.0000           -0.3696291             -10.0581
       110        2.0000           -0.3336833              -9.0800 (HOMO)
       111                         -0.2980276              -8.1097 (LUMO)
       112                         -0.2928916              -7.9700
       113                         -0.2926011              -7.9621
       114                         -0.2494290              -6.7873
       115                         -0.2338090              -6.3623
       116                         -0.2337768              -6.3614
       117                         -0.2325415              -6.3278
       118                         -0.2306526              -6.2764
       119                         -0.2109535              -5.7403
       120                         -0.2019538              -5.4954
       121                         -0.2015552              -5.4846
       ...                                ...                  ...
       216                          0.7671405              20.8750
      -------------------------------------------------------------
                  HL-Gap            0.0356556 Eh            0.9702 eV

     #   Z          covCN         q      C6AA      α(0)
     1   6 C        3.760    -0.109    22.636     6.782
     2   6 C        3.902     0.030    20.011     6.359
     3   6 C        3.761    -0.107    22.585     6.775
     4   6 C        3.819    -0.065    21.722     6.633
     5   6 C        3.864    -0.018    20.846     6.493
     6   6 C        2.974     0.016    27.643     8.624
     7   6 C        2.925    -0.029    28.728     8.790
     8   6 C        2.917    -0.029    28.730     8.790
     9   6 C        2.923    -0.030    28.747     8.793
    10   6 C        2.982    -0.011    28.286     8.724
    11   6 C        2.980     0.218    23.408     7.936
    12   7 N        1.844    -0.323    29.225     8.012
    13   6 C        2.979     0.218    23.417     7.938
    14   6 C        2.983    -0.010    28.258     8.720
    15   6 C        2.923    -0.026    28.652     8.778
    16   6 C        2.918    -0.027    28.683     8.782
    17   6 C        2.920    -0.022    28.563     8.764
    18   6 C        2.918    -0.027    28.686     8.783
    19   6 C        2.924    -0.026    28.656     8.779
    20   7 N        1.844    -0.325    29.272     8.018
    21   6 C        2.980     0.218    23.410     7.937
    22   6 C        2.983    -0.010    28.259     8.720
    23   6 C        2.923    -0.026    28.653     8.778
    24   6 C        2.918    -0.027    28.684     8.783
    25   6 C        2.920    -0.022    28.564     8.764
    26   6 C        2.918    -0.027    28.684     8.783
    27   6 C        2.923    -0.026    28.653     8.778
    28   7 N        1.844    -0.324    29.259     8.016
    29   6 C        2.928    -0.036    28.888     8.814
    30   6 C        2.901    -0.065    29.619     8.924
    31   6 C        3.035     0.056    26.703     8.476
    32   7 N        2.750    -0.141    24.050     7.284
    33   6 C        3.048     0.054    26.745     8.482
    34   6 C        2.900    -0.075    29.880     8.963
    35   6 C        3.069    -0.003    28.035     8.682
    36   6 C        3.063    -0.004    28.049     8.685
    37   6 C        2.901    -0.032    28.808     8.801
    38   6 C        3.068    -0.006    28.105     8.693
    39   6 C        3.054    -0.006    28.117     8.696
    40   6 C        3.054    -0.012    28.259     8.718
    41   6 C        2.911    -0.035    28.877     8.812
    42   6 C        2.920    -0.041    29.023     8.834
    43   6 C        2.919    -0.036    28.895     8.815
    44   6 C        2.912    -0.041    29.030     8.835
    45   6 C        3.080    -0.001    27.956     8.668
    46   6 C        2.985    -0.062    29.528     8.914
    47   1 H        0.925     0.043     2.414     2.430
    48   1 H        0.925     0.046     2.374     2.410
    49   1 H        0.925     0.038     2.469     2.457
    50   1 H        0.925     0.043     2.413     2.429
    51   1 H        0.925     0.047     2.353     2.399
    52   1 H        0.925     0.040     2.452     2.449
    53   1 H        0.924     0.044     2.400     2.423
    54   1 H        0.924     0.042     2.423     2.434
    55   1 H        0.923     0.057     2.235     2.338
    56   1 H        0.926     0.050     2.322     2.383
    57   1 H        0.926     0.046     2.373     2.409
    58   1 H        0.926     0.048     2.342     2.393
    59   1 H        0.926     0.050     2.324     2.384
    60   1 H        0.926     0.047     2.363     2.404
    61   1 H        0.926     0.049     2.330     2.387
    62   1 H        0.926     0.048     2.349     2.397
    63   1 H        0.926     0.051     2.306     2.375
    64   1 H        0.926     0.050     2.321     2.382
    65   1 H        0.926     0.047     2.358     2.401
    66   1 H        0.926     0.049     2.329     2.386
    67   1 H        0.926     0.047     2.358     2.401
    68   1 H        0.926     0.050     2.319     2.381
    69   1 H        0.926     0.050     2.314     2.379
    70   1 H        0.926     0.032     2.555     2.500
    71   1 H        0.860     0.158     1.346     1.817
    72   1 H        0.926     0.020     2.739     2.588
    73   1 H        0.926     0.042     2.426     2.436
    74   1 H        0.926     0.024     2.671     2.556
    75   1 H        0.926     0.022     2.706     2.572
    76   1 H        0.925     0.021     2.716     2.577
    77   1 H        0.925     0.020     2.737     2.587
    78   1 H        0.926     0.014     2.821     2.626

molecular dipole:
                 x           y           z       tot (Debye)
 q only:       -1.720       0.161       0.054
   full:       -1.773       0.032      -0.168       4.527

 projected vibrational frequencies (cm⁻¹)
eigval :       -0.00    -0.00    -0.00     0.00     0.00     0.00
eigval :      -18.09     8.89    10.18    14.71    29.38    35.26
eigval :       40.69    52.87    57.68    59.63    68.92    85.92
eigval :       88.28    93.05   100.51   114.05   129.62   148.58
eigval :      177.27   177.84   180.92   183.69   199.77   207.81
eigval :      222.35   223.24   237.23   247.43   252.22   257.43
eigval :      277.46   283.47   300.89   306.75   328.28   348.12
eigval :      357.55   358.36   362.89   384.27   389.53   393.84
eigval :      400.27   402.96   410.64   420.23   440.03   447.47
eigval :      454.20   463.45   471.55   503.16   527.76   528.51
eigval :      539.38   556.20   578.75   581.96   586.94   587.62
eigval :      594.68   613.00   616.87   621.86   626.33   630.89
eigval :      650.09   660.05   667.03   671.03   673.25   676.68
eigval :      683.02   700.35   704.00   707.80   749.27   754.20
eigval :      758.40   767.82   774.56   780.18   793.18   797.42
eigval :      807.21   814.78   816.44   842.66   846.65   856.25
eigval :      869.64   872.80   874.02   876.02   886.34   899.96
eigval :      908.45   909.13   910.90   916.60   919.57   927.11
eigval :      929.77   931.21   931.71   932.32   933.00   958.47
eigval :      960.45   967.37   977.13   984.34   989.53   992.33
eigval :     1012.48  1023.35  1049.52  1070.59  1074.20  1075.93
eigval :     1084.46  1091.81  1108.08  1110.48  1112.64  1114.34
eigval :     1121.99  1125.88  1138.69  1150.25  1162.25  1167.19
eigval :     1176.99  1177.29  1178.63  1178.98  1186.73  1188.28
eigval :     1198.37  1202.55  1204.70  1205.30  1207.37  1216.31
eigval :     1220.56  1231.99  1242.55  1255.05  1264.90  1267.96
eigval :     1270.50  1273.50  1282.07  1291.85  1321.17  1325.80
eigval :     1327.01  1333.80  1338.43  1342.47  1345.27  1364.93
eigval :     1368.61  1370.80  1373.22  1391.21  1398.26  1415.02
eigval :     1418.53  1428.83  1430.18  1435.93  1458.96  1463.03
eigval :     1464.59  1474.91  1476.39  1487.53  1488.64  1501.78
eigval :     1504.29  1510.26  1511.11  1529.37  1557.63  1579.06
eigval :     1580.15  1582.13  1583.70  1591.64  1592.65  1593.32
eigval :     1594.23  1602.25  1629.48  1653.21  2882.50  2969.78
eigval :     2981.88  3026.02  3029.74  3033.03  3034.96  3044.79
eigval :     3057.60  3058.31  3062.51  3067.72  3073.93  3075.01
eigval :     3077.54  3077.59  3079.32  3082.60  3082.98  3083.91
eigval :     3086.09  3091.70  3092.16  3094.95  3103.45  3104.95
eigval :     3105.16  3105.28  3107.07  3108.02  3118.17  3498.51

   temp. (K)  partition function   enthalpy   heat capacity  entropy
                                   cal/mol     cal/K/mol   cal/K/mol   J/K/mol
 298.15  VIB  0.310E+18            22073.731    138.958    137.830
         ROT  0.108E+09              888.752      2.981     39.749
         INT  0.336E+26            22962.483    141.939    177.580
         TR   0.140E+29             1481.254      4.968     45.002
         TOT                       24443.7374   146.9071   222.5816   931.2816

       T/K    H(0)-H(T)+PV         H(T)/Eh          T*S/Eh         G(T)/Eh
   ------------------------------------------------------------------------
    298.15    0.389536E-01    0.648554E+00    0.105756E+00    0.542798E+00
   ------------------------------------------------------------------------

         :::::::::::::::::::::::::::::::::::::::::::::::::::::
         ::                  THERMODYNAMIC                  ::
         :::::::::::::::::::::::::::::::::::::::::::::::::::::
         :: total free energy        -117.480049434786 Eh   ::
         ::.................................................::
         :: total energy             -118.022847799781 Eh   ::
         :: zero point energy           0.609600509523 Eh   ::
         :: G(RRHO) w/o ZPVE           -0.066802144528 Eh   ::
         :: G(RRHO) contrib.            0.542798364995 Eh   ::
         :::::::::::::::::::::::::::::::::::::::::::::::::::::

           -------------------------------------------------
          | TOTAL ENERGY             -118.022847799781 Eh   |
          | TOTAL ENTHALPY           -117.374293715180 Eh   |
          | TOTAL FREE ENERGY        -117.480049434786 Eh   |
          | GRADIENT NORM               0.000074127753 Eh/α |
          | HOMO-LUMO GAP               0.970238543480 eV   |
           -------------------------------------------------

 * finished run on 2025/07/18 at 23:33:42.720
