   * xtb version 6.7.1 (edcfbbe) compiled by 'albert@albert-system' on 2024-07-22

   ID    Z sym.   atoms
    1    6 C      1-11, 13-19, 21-27, 29-31, 33-46
    2    7 N      12, 20, 28, 32
    3    1 H      47-78

          program call               : xtb data2507/toluene/DMIC-TRZ/DMIC-TRZ_toluene_T1_crest.xyz --gfn 2 --uhf 2 --gbsa toluene --ohess vtight --parallel 40 --molden --ceasefiles --namespace data2507/toluene/DMIC-TRZ/DMIC-TRZ_toluene_T1_finalOpt
      * Solvation model:               GBSA
        Solvent                        toluene
        Solvent mass                       9.2140E+01 g/mol
          :  Hamiltonian                  GFN2-xTB          :
 * total energy  :  -117.9885543 Eh     change       -0.2614698E-08 Eh
 * total energy  :  -117.9885977 Eh     change       -0.4336447E-04 Eh
 * total energy  :  -117.9886273 Eh     change       -0.2962331E-04 Eh
 * total energy  :  -117.9886407 Eh     change       -0.1340645E-04 Eh
 * total energy  :  -117.9886783 Eh     change       -0.3753138E-04 Eh
 * total energy  :  -117.9886873 Eh     change       -0.9007808E-05 Eh
 * total energy  :  -117.9886940 Eh     change       -0.6719021E-05 Eh
 * total energy  :  -117.9886982 Eh     change       -0.4250910E-05 Eh
 * total energy  :  -117.9887044 Eh     change       -0.6130769E-05 Eh
 * total energy  :  -117.9887135 Eh     change       -0.9098611E-05 Eh
 * total energy  :  -117.9887545 Eh     change       -0.2849731E-06 Eh
 * total energy  :  -117.9887548 Eh     change       -0.3183860E-06 Eh
 * total energy  :  -117.9887551 Eh     change       -0.3424379E-06 Eh
 * total energy  :  -117.9887555 Eh     change       -0.3512817E-06 Eh
 * total energy  :  -117.9887558 Eh     change       -0.2974225E-06 Eh
 * total energy  :  -117.9887560 Eh     change       -0.2384740E-06 Eh
 * total energy  :  -117.9887562 Eh     change       -0.2045457E-06 Eh
 * total energy  :  -117.9887564 Eh     change       -0.2354906E-06 Eh
 * total energy  :  -117.9887564 Eh     change       -0.1677606E-08 Eh
   *** GEOMETRY OPTIMIZATION CONVERGED AFTER 44 ITERATIONS ***

 final structure:
================
78
 xtb: 6.7.1 (edcfbbe)
C            0.83882435217301       -2.57240730800262       -2.03385117403351
C            1.68146225909855       -3.38319890395087       -1.03674180725576
C            2.97068874365907       -3.83288203140769       -1.74725369986951
C            0.94429051066608       -4.66484348640743       -0.58720736128861
C           -0.06085979312445       -4.53928611421929        0.57686792129260
C           -1.38046207831335       -3.92456700549854        0.14353848646156
C           -2.38200933478678       -4.73410740950173       -0.38371438176622
C           -3.59553223314158       -4.19638959564649       -0.78271544576903
C           -3.82771955168083       -2.83879635788981       -0.67210060254483
C           -2.83064165805664       -2.01366137938106       -0.15601531803494
C           -3.02381053044541       -0.56747162988133       -0.06544386970097
N           -4.25863409698039       -0.08293345804611       -0.16754618518442
C           -4.36914928631204        1.24120677128566       -0.08583445669568
C           -5.71033519648259        1.82237189806480       -0.15759656670098
C           -5.87372771773581        3.20478275984321       -0.23537063148782
C           -7.14165371900520        3.74983238293439       -0.30119487035159
C           -8.25549028200093        2.92395119955178       -0.28793299058132
C           -8.09935774595953        1.54827812390212       -0.20942672489671
C           -6.83398666339434        0.99701093618890       -0.14573105732234
N           -3.33691041831730        2.06998773534690        0.05261109060034
C           -2.13752840819445        1.49793262825956        0.13441388330253
C           -0.96270205539069        2.36090836814838        0.25785648275770
C            0.31659044907484        1.81270539254411        0.16975946328469
C            1.42785858060451        2.62775104115943        0.26406856095489
C            1.27453984903195        3.99231995097125        0.45602879782332
C            0.00500283846824        4.54297273292236        0.55003584204023
C           -1.11077561936037        3.73386206685590        0.44956959530480
N           -1.93820887358481        0.18375008933884        0.10058122212743
C           -1.62008020560885       -2.56446303362463        0.25767393935070
C            0.53510867005737       -3.78312669046851        1.71486874418013
C            1.48417758503983       -2.83545140631971        1.44441299721545
N            2.04655665568973       -1.95914120070460        2.35405588122520
C            2.87702979323823       -1.09899178649137        1.70318122719631
C            3.62124657303926       -0.05310133736196        2.23304707391385
C            4.38260315107661        0.68671524909349        1.33708999867092
C            4.38106309356698        0.37483957775603       -0.06596543781091
C            3.64660824593613       -0.66956663061054       -0.57868179605199
C            2.87802639729783       -1.44118456987130        0.31144544783314
C            2.02012615400629       -2.55073688445618        0.16288470855319
C            5.24150387771079        1.34065773332693       -0.70715136090441
C            5.60340208917895        1.53340040527029       -2.02664905015551
C            6.46411606174131        2.57497517610691       -2.34164329962767
C            6.96564983765669        3.42581259524049       -1.35159369708130
C            6.62050833685704        3.25792524321267       -0.02984073429192
C            5.75020030450607        2.21265448904549        0.31584526725231
C            5.22817145729604        1.81237165431661        1.55211758452013
H            0.63186184633562       -3.16847514840538       -2.92075891047107
H            1.37471384200724       -1.67628521270465       -2.33753279660745
H           -0.10625126723819       -2.26910911643380       -1.59335056066262
H            3.48112282565806       -2.98902977122150       -2.19992389825616
H            2.73139351816153       -4.54813953393128       -2.53163959542419
H            3.65205808686582       -4.30381516352709       -1.04171334834571
H            0.43193629770308       -5.09496151367738       -1.44950600855700
H            1.70361847800841       -5.37927693756426       -0.26001978536724
H           -0.29022150150642       -5.55972685780015        0.90872256904692
H           -2.21228811333567       -5.79697136562754       -0.48020940841525
H           -4.36242225707105       -4.84193306464725       -1.18494288556421
H           -4.76222085413400       -2.40064023451704       -0.98624178435351
H           -4.99552816374085        3.83154076372454       -0.24704768370738
H           -7.26373850218021        4.82106637169913       -0.36327020791893
H           -9.24541691694639        3.35263314926590       -0.33872242716708
H           -8.96708529435310        0.90539579865623       -0.19776818726055
H           -6.69279212038341       -0.07086876387119       -0.08125269651199
H            0.42035214971539        0.74951235142995        0.01934199490208
H            2.41432067126656        2.19756198875483        0.18830880033794
H            2.14661035626609        4.62526541575123        0.52946551760997
H           -0.11405310658472        5.60582348961923        0.70072894792971
H           -2.10605057787351        4.14506319033385        0.51896871193910
H           -0.87347699744690       -1.90430984920342        0.67110914568933
H            0.13563239706264       -3.92262323183771        2.70640590221957
H            1.82828062635146       -1.93078561136156        3.33598488218115
H            3.60071338369796        0.17728477515779        3.28813208913055
H            3.65223940463741       -0.87822603393393       -1.63657293591246
H            5.22492726124997        0.88576720924832       -2.80468803212136
H            6.75490165816931        2.73505324204624       -3.37005432917662
H            7.63436909176287        4.22578721137068       -1.63637699451806
H            7.00791613969935        3.91616293397551        0.73487363676185
H            5.42273668928166        2.27246131518097        2.50392747647842

          :  Hamiltonian                  GFN2-xTB          :
         :: gradient norm              0.000034022128 Eh/a0 ::
         :: HOMO-LUMO gap              0.290527754990 eV    ::
         :: SCC energy              -120.097301537944 Eh    ::
         :: -> dispersion             -0.108596470593 Eh    ::
         :: -> Gsolv                  -0.051249784250 Eh    ::
         :: repulsion energy           2.108545096505 Eh    ::

    * Orbital Energies and Occupations

         #    Occupation            Energy/Eh            Energy/eV
      -------------------------------------------------------------
         1        2.0000           -0.6880963             -18.7241
       ...           ...                  ...                  ...
        99        2.0000           -0.4124433             -11.2232
       100        2.0000           -0.4113075             -11.1922
       101        2.0000           -0.4105655             -11.1721
       102        2.0000           -0.4098867             -11.1536
       103        2.0000           -0.4087957             -11.1239
       104        2.0000           -0.4067963             -11.0695
       105        2.0000           -0.3998300             -10.8799
       106        2.0000           -0.3864505             -10.5159
       107        2.0000           -0.3783779             -10.2962
       108        2.0000           -0.3780728             -10.2879
       109        2.0000           -0.3658346              -9.9549
       110        1.0000           -0.3360966              -9.1457
       111        0.9959           -0.3015280              -8.2050 (HOMO)
       112        0.0032           -0.2908513              -7.9145 (LUMO)
       113        0.0009           -0.2896393              -7.8815
       114                         -0.2470563              -6.7227
       115                         -0.2362027              -6.4274
       116                         -0.2328984              -6.3375
       117                         -0.2311494              -6.2899
       118                         -0.2306348              -6.2759
       119                         -0.2148087              -5.8452
       120                         -0.2013095              -5.4779
       121                         -0.2003224              -5.4510
       122                         -0.1804540              -4.9104
       ...                                ...                  ...
       216                          0.7427998              20.2126
      -------------------------------------------------------------
                  HL-Gap            0.0106767 Eh            0.2905 eV

     #   Z          covCN         q      C6AA      α(0)
     1   6 C        3.759    -0.104    22.545     6.769
     2   6 C        3.900     0.030    20.014     6.359
     3   6 C        3.763    -0.108    22.604     6.777
     4   6 C        3.813    -0.068    21.801     6.646
     5   6 C        3.863    -0.017    20.835     6.491
     6   6 C        2.970     0.019    27.574     8.613
     7   6 C        2.925    -0.033    28.820     8.804
     8   6 C        2.917    -0.029    28.732     8.790
     9   6 C        2.922    -0.031    28.775     8.797
    10   6 C        2.983    -0.012    28.315     8.729
    11   6 C        2.983     0.220    23.370     7.930
    12   7 N        1.843    -0.327    29.340     8.027
    13   6 C        2.982     0.219    23.394     7.934
    14   6 C        2.983    -0.010    28.261     8.720
    15   6 C        2.923    -0.026    28.661     8.779
    16   6 C        2.918    -0.028    28.689     8.783
    17   6 C        2.920    -0.023    28.575     8.766
    18   6 C        2.918    -0.028    28.690     8.784
    19   6 C        2.923    -0.026    28.664     8.780
    20   7 N        1.843    -0.327    29.334     8.027
    21   6 C        2.980     0.220    23.375     7.931
    22   6 C        2.983    -0.010    28.260     8.720
    23   6 C        2.924    -0.025    28.634     8.775
    24   6 C        2.918    -0.028    28.689     8.783
    25   6 C        2.920    -0.022    28.554     8.763
    26   6 C        2.918    -0.028    28.696     8.784
    27   6 C        2.923    -0.027    28.678     8.782
    28   7 N        1.845    -0.325    29.288     8.021
    29   6 C        2.929    -0.032    28.791     8.800
    30   6 C        2.901    -0.069    29.725     8.939
    31   6 C        3.050     0.054    26.743     8.481
    32   7 N        2.757    -0.119    23.594     7.214
    33   6 C        3.068     0.057    26.643     8.464
    34   6 C        2.902    -0.054    29.335     8.881
    35   6 C        3.082    -0.001    27.957     8.668
    36   6 C        3.051    -0.022    28.500     8.755
    37   6 C        2.904    -0.042    29.040     8.836
    38   6 C        3.074    -0.015    28.304     8.723
    39   6 C        3.058    -0.035    28.815     8.803
    40   6 C        3.066    -0.003    28.029     8.681
    41   6 C        2.908    -0.035    28.865     8.810
    42   6 C        2.920    -0.031    28.769     8.796
    43   6 C        2.916    -0.037    28.912     8.817
    44   6 C        2.909    -0.033    28.830     8.804
    45   6 C        3.070    -0.002    28.004     8.677
    46   6 C        2.981    -0.046    29.145     8.856
    47   1 H        0.925     0.036     2.505     2.475
    48   1 H        0.925     0.037     2.490     2.467
    49   1 H        0.925     0.033     2.544     2.494
    50   1 H        0.925     0.043     2.408     2.427
    51   1 H        0.925     0.039     2.462     2.454
    52   1 H        0.925     0.035     2.513     2.479
    53   1 H        0.924     0.043     2.411     2.428
    54   1 H        0.924     0.047     2.363     2.404
    55   1 H        0.924     0.052     2.290     2.366
    56   1 H        0.926     0.049     2.336     2.390
    57   1 H        0.926     0.046     2.374     2.410
    58   1 H        0.926     0.045     2.386     2.415
    59   1 H        0.926     0.049     2.328     2.386
    60   1 H        0.926     0.047     2.361     2.403
    61   1 H        0.926     0.049     2.330     2.387
    62   1 H        0.926     0.047     2.360     2.403
    63   1 H        0.926     0.050     2.322     2.383
    64   1 H        0.926     0.050     2.325     2.384
    65   1 H        0.926     0.046     2.366     2.405
    66   1 H        0.926     0.047     2.357     2.401
    67   1 H        0.926     0.046     2.364     2.404
    68   1 H        0.926     0.049     2.331     2.388
    69   1 H        0.926     0.050     2.325     2.384
    70   1 H        0.926     0.027     2.624     2.533
    71   1 H        0.860     0.162     1.321     1.801
    72   1 H        0.926     0.031     2.566     2.505
    73   1 H        0.926     0.028     2.618     2.530
    74   1 H        0.926     0.027     2.633     2.537
    75   1 H        0.926     0.028     2.615     2.529
    76   1 H        0.926     0.026     2.638     2.540
    77   1 H        0.926     0.028     2.614     2.528
    78   1 H        0.926     0.028     2.622     2.532

molecular dipole:
                 x           y           z       tot (Debye)
 q only:       -0.200      -0.939       0.420
   full:       -0.276      -0.838       0.693       2.853

 projected vibrational frequencies (cm⁻¹)
eigval :       -0.00    -0.00    -0.00    -0.00     0.00     0.00
eigval :       11.25    14.21    20.28    34.87    36.37    40.45
eigval :       47.61    50.33    53.08    62.20    64.84    91.35
eigval :       93.92    98.83   107.32   125.97   139.01   154.30
eigval :      177.40   180.94   184.69   194.53   198.53   216.63
eigval :      221.41   227.73   232.42   241.71   250.31   270.30
eigval :      274.68   303.94   305.90   320.06   331.39   354.71
eigval :      366.90   367.20   369.02   372.68   388.42   395.58
eigval :      399.96   416.61   417.18   423.82   438.92   444.32
eigval :      461.10   464.49   472.42   505.05   511.43   528.60
eigval :      531.74   548.48   560.62   572.09   586.17   586.55
eigval :      587.45   611.74   614.93   620.55   630.17   639.86
eigval :      648.18   654.41   658.25   666.45   676.17   678.84
eigval :      684.03   686.37   694.20   703.36   724.55   736.45
eigval :      750.63   763.27   765.78   775.56   783.10   795.69
eigval :      799.77   808.31   814.23   828.62   846.96   857.09
eigval :      859.53   860.72   874.82   878.45   896.40   901.08
eigval :      910.36   911.72   912.74   914.91   918.10   920.67
eigval :      929.39   931.31   932.22   932.34   937.94   956.02
eigval :      959.16   966.46   974.59   983.17   988.91   991.29
eigval :     1006.86  1020.97  1047.32  1060.53  1074.31  1075.11
eigval :     1081.59  1092.00  1107.60  1109.87  1110.49  1119.05
eigval :     1123.57  1125.89  1142.73  1146.39  1159.47  1166.38
eigval :     1170.87  1176.44  1176.61  1177.37  1183.41  1186.11
eigval :     1198.99  1202.17  1203.20  1206.63  1208.79  1213.62
eigval :     1223.24  1236.37  1239.67  1257.42  1267.32  1268.91
eigval :     1270.61  1283.88  1292.96  1301.91  1316.17  1326.19
eigval :     1327.25  1332.67  1334.99  1345.88  1354.86  1359.29
eigval :     1362.89  1364.48  1370.78  1382.79  1396.97  1406.63
eigval :     1417.16  1425.07  1427.80  1432.60  1455.89  1460.48
eigval :     1465.11  1468.42  1472.04  1475.65  1490.08  1491.77
eigval :     1493.05  1494.85  1497.66  1501.32  1507.94  1530.65
eigval :     1542.74  1551.87  1570.71  1576.56  1581.15  1581.53
eigval :     1582.81  1588.34  1592.37  1593.13  2901.08  2965.40
eigval :     2982.64  3017.80  3023.59  3027.61  3036.84  3061.75
eigval :     3063.19  3063.37  3066.32  3072.75  3073.14  3074.07
eigval :     3077.95  3078.02  3082.00  3083.37  3083.99  3087.50
eigval :     3091.96  3092.10  3094.90  3099.02  3101.39  3102.24
eigval :     3102.88  3103.44  3103.88  3110.06  3128.18  3474.66

   temp. (K)  partition function   enthalpy   heat capacity  entropy
                                   cal/mol     cal/K/mol   cal/K/mol   J/K/mol
 298.15  VIB  0.313E+17            21937.595    139.751    135.465
         ROT  0.687E+08              888.752      2.981     38.842
         INT  0.215E+25            22826.347    142.731    174.307
         TR   0.140E+29             1481.254      4.968     45.002
         TOT                       24307.6013   147.6996   219.3096   917.5912

       T/K    H(0)-H(T)+PV         H(T)/Eh          T*S/Eh         G(T)/Eh
   ------------------------------------------------------------------------
    298.15    0.387366E-01    0.647245E+00    0.104201E+00    0.543044E+00
   ------------------------------------------------------------------------

         :::::::::::::::::::::::::::::::::::::::::::::::::::::
         ::                  THERMODYNAMIC                  ::
         :::::::::::::::::::::::::::::::::::::::::::::::::::::
         :: total free energy        -117.445712278672 Eh   ::
         ::.................................................::
         :: total energy             -117.988756442222 Eh   ::
         :: zero point energy           0.608508583887 Eh   ::
         :: G(RRHO) w/o ZPVE           -0.065464420337 Eh   ::
         :: G(RRHO) contrib.            0.543044163550 Eh   ::
         :::::::::::::::::::::::::::::::::::::::::::::::::::::

           -------------------------------------------------
          | TOTAL ENERGY             -117.988756442222 Eh   |
          | TOTAL ENTHALPY           -117.341511229988 Eh   |
          | TOTAL FREE ENERGY        -117.445712278672 Eh   |
          | GRADIENT NORM               0.000034022844 Eh/α |
          | HOMO-LUMO GAP               0.290528553930 eV   |
           -------------------------------------------------

 * finished run on 2025/07/18 at 23:41:29.005
