   * xtb version 6.7.1 (edcfbbe) compiled by 'albert@albert-system' on 2024-07-22

   ID    Z sym.   atoms
    1    6 C      1-11, 13-19, 21-27, 29-31, 33-46
    2    7 N      12, 20, 28, 32
    3    1 H      47-78

          program call               : xtb data2507/toluene/DMIC-TRZ/DMIC-TRZ_toluene_S0_crest.xyz --gfn 2 --gbsa toluene --ohess vtight --parallel 40 --molden --ceasefiles --namespace data2507/toluene/DMIC-TRZ/DMIC-TRZ_toluene_S0_finalOpt
      * Solvation model:               GBSA
        Solvent                        toluene
        Solvent mass                       9.2140E+01 g/mol
          :  Hamiltonian                  GFN2-xTB          :
 * total energy  :  -118.0223342 Eh     change       -0.9000303E-09 Eh
 * total energy  :  -118.0223754 Eh     change       -0.4116094E-04 Eh
 * total energy  :  -118.0224021 Eh     change       -0.2675006E-04 Eh
 * total energy  :  -118.0224140 Eh     change       -0.1186314E-04 Eh
 * total energy  :  -118.0224488 Eh     change       -0.3482744E-04 Eh
 * total energy  :  -118.0224577 Eh     change       -0.8895673E-05 Eh
 * total energy  :  -118.0224662 Eh     change       -0.8493295E-05 Eh
 * total energy  :  -118.0224708 Eh     change       -0.4587985E-05 Eh
 * total energy  :  -118.0224762 Eh     change       -0.5429778E-05 Eh
 * total energy  :  -118.0224824 Eh     change       -0.6197347E-05 Eh
 * total energy  :  -118.0225434 Eh     change       -0.9495739E-06 Eh
 * total energy  :  -118.0225443 Eh     change       -0.8389940E-06 Eh
 * total energy  :  -118.0225451 Eh     change       -0.8567375E-06 Eh
 * total energy  :  -118.0225458 Eh     change       -0.6712406E-06 Eh
 * total energy  :  -118.0225462 Eh     change       -0.4207945E-06 Eh
 * total energy  :  -118.0225466 Eh     change       -0.4084054E-06 Eh
 * total energy  :  -118.0225470 Eh     change       -0.4083288E-06 Eh
 * total energy  :  -118.0225473 Eh     change       -0.2830465E-06 Eh
 * total energy  :  -118.0225473 Eh     change       -0.6814588E-08 Eh
   *** GEOMETRY OPTIMIZATION CONVERGED AFTER 44 ITERATIONS ***

 final structure:
================
78
 xtb: 6.7.1 (edcfbbe)
C            0.88591360795937       -2.55992303567786       -2.04028680316140
C            1.75267171995596       -3.35983326433285       -1.05572107342035
C            3.03603507279532       -3.80283111846602       -1.78040728970830
C            1.03481599135398       -4.64476583160050       -0.58859345315914
C            0.02483415538922       -4.50804747114428        0.56747356939866
C           -1.29760998494628       -3.91227973571308        0.11963365387350
C           -2.26330291698768       -4.73057511686717       -0.45884256058540
C           -3.47708914469770       -4.21107392113405       -0.87962546967666
C           -3.74756761193547       -2.86335849041487       -0.73565186253226
C           -2.78783018136210       -2.02983601882979       -0.16641627667874
C           -3.02216970844092       -0.59211792157136       -0.03352502955823
N           -4.26318096743710       -0.13561174975733       -0.17407955082139
C           -4.41423453118135        1.18086786424617       -0.04363370428977
C           -5.76609872148226        1.72955032245936       -0.15610793290290
C           -5.96784344632659        3.10910136631911       -0.15028613525446
C           -7.24676967736502        3.62252116637646       -0.24987277767733
C           -8.33351552728660        2.76747235031232       -0.35492741968900
C           -8.13910292755279        1.39449929895399       -0.36153708783005
C           -6.86258795898952        0.87489626338519       -0.26363713601226
N           -3.41308576664249        2.02799405776431        0.18241964303365
C           -2.20323995673043        1.48472204724927        0.29579680069323
C           -1.06157079877336        2.37102795689150        0.52208299514692
C            0.23527802846319        1.85836420105493        0.50115751343982
C            1.31552077713912        2.69498193307461        0.70410430188804
C            1.11243850095552        4.04726671800217        0.93385761187266
C           -0.17471981841292        4.56325416254218        0.95873485255928
C           -1.25895990287938        3.73185427153700        0.75237940557672
N           -1.96586111027314        0.17874511465301        0.21103197898986
C           -1.57486042584082       -2.56222468936925        0.26376884078718
C            0.61566282918669       -3.72591600114029        1.69467265214373
C            1.55826449350011       -2.79531128771201        1.43914640353997
N            2.13366592604273       -1.91335140988423        2.33011283226232
C            2.94679709155476       -1.03302856916335        1.65943213467216
C            3.67142403387756        0.00878815337889        2.14474268414354
C            4.42522491059903        0.76589638397079        1.21176245700557
C            4.39421544273702        0.40836629644442       -0.20391789850245
C            3.67663551689745       -0.63980797529080       -0.67344182879522
C            2.92254298271622       -1.41354232528484        0.25671676228430
C            2.10051767827488       -2.51086550762556        0.13028496734750
C            5.24145337340401        1.37141056677729       -0.89107714504365
C            5.57804697857581        1.52582819417327       -2.21870913352397
C            6.43140914058663        2.56636533175772       -2.57414277143480
C            6.93371693660962        3.43239498299752       -1.61479644426241
C            6.60140128889164        3.28869876464832       -0.27435373160511
C            5.75235568102120        2.25665800718445        0.09365502860835
C            5.23451250433975        1.86322604226383        1.37587759689785
H            0.66206933843398       -3.16763736774335       -2.91463096081025
H            1.40985561615046       -1.66478440639619       -2.36622942027949
H           -0.05057602920367       -2.25655594588365       -1.58192963880757
H            3.52492931854078       -2.96433075054288       -2.26510628275234
H            2.79116070767154       -4.54049984585218       -2.54162220654442
H            3.73843306816459       -4.24713835975330       -1.07829089662266
H            0.53314194589779       -5.09559065124311       -1.44624705392452
H            1.80339946551844       -5.34205783194606       -0.24640662414585
H           -0.19474742431531       -5.52373810341052        0.91885486578745
H           -2.06491393089891       -5.78609614620923       -0.57798936026314
H           -4.21545779705812       -4.86285666658639       -1.32278956524897
H           -4.68420004660283       -2.43972896778581       -1.06282407904813
H           -5.11037502755829        3.75903656611742       -0.06993435041441
H           -7.39858617822259        4.69173368089570       -0.24623124278314
H           -9.33213307762665        3.17138144865212       -0.43187806885720
H           -8.98563120968497        0.72880722427817       -0.44250542690397
H           -6.69206430145371       -0.19055863869060       -0.26306396127716
H            0.37738341434410        0.80470993337814        0.31884662452458
H            2.31658308700678        2.29242951752334        0.68500672055685
H            1.95971185930898        4.69794926007847        1.09235408138218
H           -0.33186643423367        5.61649309049703        1.13890623457259
H           -2.26725869530512        4.11585056631943        0.76897460914270
H           -0.85712199252898       -1.89479225389316        0.71516089845404
H            0.20773997809038       -3.86086334080449        2.68455990121701
H            1.90564443704600       -1.85631604202049        3.30713167529874
H            3.67606663655458        0.26802159114662        3.19301816024972
H            3.66079526116061       -0.87795766287375       -1.72534873111308
H            5.19180911601255        0.85643707691898       -2.97433037158524
H            6.70611415700202        2.70116755580592       -3.61066396249110
H            7.59556798736276        4.23252030940396       -1.91624587230738
H            6.99792790159479        3.96902226225143        0.46646569283788
H            5.45364691065529        2.36137615441022        2.30373947947533

          :  Hamiltonian                  GFN2-xTB          :
         :: gradient norm              0.000060009195 Eh/a0 ::
         :: HOMO-LUMO gap              0.961443241177 eV    ::
         :: SCC energy              -120.142444106868 Eh    ::
         :: -> dispersion             -0.108075414706 Eh    ::
         :: -> Gsolv                  -0.051863634893 Eh    ::
         :: repulsion energy           2.119896797307 Eh    ::

    * Orbital Energies and Occupations

         #    Occupation            Energy/Eh            Energy/eV
      -------------------------------------------------------------
         1        2.0000           -0.6897871             -18.7701
       ...           ...                  ...                  ...
        98        2.0000           -0.4147895             -11.2870
        99        2.0000           -0.4134399             -11.2503
       100        2.0000           -0.4117125             -11.2033
       101        2.0000           -0.4114860             -11.1971
       102        2.0000           -0.4100802             -11.1589
       103        2.0000           -0.4087129             -11.1216
       104        2.0000           -0.4051195             -11.0239
       105        2.0000           -0.4023316             -10.9480
       106        2.0000           -0.3837937             -10.4436
       107        2.0000           -0.3799088             -10.3378
       108        2.0000           -0.3795498             -10.3281
       109        2.0000           -0.3709560             -10.0942
       110        2.0000           -0.3353892              -9.1264 (HOMO)
       111                         -0.3000567              -8.1650 (LUMO)
       112                         -0.2923078              -7.9541
       113                         -0.2913325              -7.9276
       114                         -0.2484170              -6.7598
       115                         -0.2335694              -6.3557
       116                         -0.2334469              -6.3524
       117                         -0.2320985              -6.3157
       118                         -0.2318558              -6.3091
       119                         -0.2126785              -5.7873
       120                         -0.2026133              -5.5134
       121                         -0.2012707              -5.4769
       ...                                ...                  ...
       216                          0.7636783              20.7807
      -------------------------------------------------------------
                  HL-Gap            0.0353325 Eh            0.9614 eV

     #   Z          covCN         q      C6AA      α(0)
     1   6 C        3.759    -0.105    22.564     6.772
     2   6 C        3.900     0.030    20.012     6.359
     3   6 C        3.763    -0.109    22.634     6.782
     4   6 C        3.813    -0.069    21.819     6.648
     5   6 C        3.863    -0.018    20.850     6.493
     6   6 C        2.970     0.019    27.574     8.613
     7   6 C        2.925    -0.032    28.794     8.800
     8   6 C        2.917    -0.029    28.717     8.788
     9   6 C        2.922    -0.030    28.749     8.793
    10   6 C        2.983    -0.012    28.301     8.726
    11   6 C        2.983     0.219    23.381     7.932
    12   7 N        1.843    -0.325    29.286     8.020
    13   6 C        2.982     0.218    23.400     7.935
    14   6 C        2.983    -0.010    28.259     8.720
    15   6 C        2.923    -0.026    28.654     8.778
    16   6 C        2.918    -0.027    28.684     8.783
    17   6 C        2.920    -0.022    28.565     8.764
    18   6 C        2.918    -0.027    28.685     8.783
    19   6 C        2.923    -0.026    28.659     8.779
    20   7 N        1.843    -0.325    29.279     8.019
    21   6 C        2.980     0.219    23.382     7.932
    22   6 C        2.983    -0.010    28.260     8.720
    23   6 C        2.924    -0.025    28.622     8.773
    24   6 C        2.918    -0.027    28.676     8.781
    25   6 C        2.920    -0.021    28.539     8.761
    26   6 C        2.918    -0.028    28.689     8.783
    27   6 C        2.923    -0.027    28.670     8.781
    28   7 N        1.845    -0.325    29.268     8.018
    29   6 C        2.930    -0.032    28.810     8.803
    30   6 C        2.901    -0.065    29.615     8.923
    31   6 C        3.037     0.059    26.652     8.468
    32   7 N        2.750    -0.143    24.097     7.291
    33   6 C        3.048     0.054    26.734     8.480
    34   6 C        2.900    -0.075    29.878     8.962
    35   6 C        3.069    -0.003    28.028     8.681
    36   6 C        3.062    -0.004    28.057     8.686
    37   6 C        2.901    -0.031    28.770     8.795
    38   6 C        3.071    -0.007    28.118     8.695
    39   6 C        3.051    -0.003    28.061     8.688
    40   6 C        3.054    -0.012    28.265     8.719
    41   6 C        2.911    -0.035    28.868     8.810
    42   6 C        2.920    -0.041    29.010     8.832
    43   6 C        2.919    -0.036    28.884     8.813
    44   6 C        2.912    -0.041    29.021     8.834
    45   6 C        3.080    -0.000    27.951     8.667
    46   6 C        2.984    -0.062    29.528     8.914
    47   1 H        0.925     0.042     2.418     2.432
    48   1 H        0.925     0.040     2.452     2.449
    49   1 H        0.925     0.036     2.503     2.474
    50   1 H        0.925     0.046     2.373     2.409
    51   1 H        0.925     0.045     2.385     2.415
    52   1 H        0.925     0.038     2.476     2.461
    53   1 H        0.924     0.048     2.348     2.396
    54   1 H        0.924     0.049     2.327     2.385
    55   1 H        0.924     0.055     2.259     2.350
    56   1 H        0.926     0.051     2.310     2.377
    57   1 H        0.926     0.047     2.356     2.400
    58   1 H        0.926     0.046     2.368     2.406
    59   1 H        0.926     0.050     2.323     2.384
    60   1 H        0.926     0.047     2.356     2.401
    61   1 H        0.926     0.050     2.325     2.384
    62   1 H        0.926     0.047     2.354     2.399
    63   1 H        0.926     0.051     2.313     2.378
    64   1 H        0.926     0.048     2.344     2.394
    65   1 H        0.926     0.047     2.362     2.403
    66   1 H        0.926     0.048     2.348     2.396
    67   1 H        0.926     0.047     2.356     2.400
    68   1 H        0.926     0.050     2.321     2.383
    69   1 H        0.926     0.048     2.346     2.395
    70   1 H        0.926     0.031     2.568     2.506
    71   1 H        0.860     0.157     1.352     1.822
    72   1 H        0.926     0.020     2.729     2.583
    73   1 H        0.926     0.037     2.483     2.464
    74   1 H        0.926     0.023     2.682     2.561
    75   1 H        0.926     0.022     2.699     2.569
    76   1 H        0.925     0.022     2.699     2.569
    77   1 H        0.926     0.021     2.712     2.575
    78   1 H        0.926     0.016     2.794     2.614

molecular dipole:
                 x           y           z       tot (Debye)
 q only:       -0.917      -1.643       0.090
   full:       -0.990      -1.530       0.317       4.701

 projected vibrational frequencies (cm⁻¹)
eigval :       -0.00    -0.00    -0.00    -0.00     0.00     0.00
eigval :        8.80    12.42    17.53    21.55    33.81    40.15
eigval :       42.06    45.58    49.30    61.65    65.02    89.89
eigval :       91.71   100.06   104.86   126.28   140.07   154.60
eigval :      174.59   179.40   183.92   196.11   199.15   215.38
eigval :      219.25   226.13   238.25   239.35   250.46   270.17
eigval :      274.99   304.38   304.68   311.18   340.76   356.29
eigval :      365.15   365.60   366.92   372.88   387.87   392.20
eigval :      396.07   405.94   414.72   422.87   439.83   446.08
eigval :      459.48   463.79   470.70   503.98   525.71   530.28
eigval :      534.29   551.12   561.97   573.73   586.60   587.29
eigval :      590.20   611.76   615.46   626.67   629.10   643.72
eigval :      654.76   657.51   665.08   668.54   674.72   676.79
eigval :      686.19   699.46   705.19   734.99   749.80   755.35
eigval :      766.82   769.98   774.65   782.01   783.61   794.21
eigval :      798.11   808.09   815.93   846.76   849.90   856.25
eigval :      860.33   869.54   873.71   877.93   898.72   898.80
eigval :      909.72   910.39   912.29   918.90   918.93   921.32
eigval :      928.44   929.71   930.08   930.99   937.80   955.07
eigval :      958.20   963.86   970.43   983.95   989.20   991.77
eigval :     1008.50  1022.78  1049.39  1071.42  1074.39  1075.25
eigval :     1079.34  1093.02  1107.33  1110.13  1114.01  1117.18
eigval :     1123.83  1128.74  1144.40  1151.70  1161.93  1166.82
eigval :     1174.18  1175.98  1176.28  1179.42  1184.16  1186.41
eigval :     1197.63  1201.97  1205.37  1206.68  1212.21  1219.16
eigval :     1223.26  1239.39  1241.10  1258.24  1266.80  1268.51
eigval :     1270.68  1278.18  1286.27  1300.08  1322.31  1326.17
eigval :     1327.11  1333.98  1338.82  1344.56  1356.29  1366.98
eigval :     1367.87  1371.08  1373.00  1394.08  1398.23  1416.72
eigval :     1418.62  1427.98  1429.40  1434.23  1458.93  1462.04
eigval :     1463.45  1466.77  1475.89  1488.95  1489.32  1496.94
eigval :     1503.22  1509.60  1512.22  1527.94  1554.13  1577.84
eigval :     1578.41  1581.20  1582.84  1590.59  1592.40  1593.17
eigval :     1593.96  1601.45  1629.69  1653.52  2906.95  2967.37
eigval :     2986.38  3024.14  3027.66  3030.64  3038.79  3059.12
eigval :     3063.10  3063.38  3066.59  3068.88  3074.44  3076.84
eigval :     3077.96  3078.50  3080.52  3081.89  3084.85  3085.41
eigval :     3087.54  3091.60  3092.17  3097.92  3102.06  3102.67
eigval :     3103.28  3103.94  3104.39  3107.92  3121.91  3496.93

   temp. (K)  partition function   enthalpy   heat capacity  entropy
                                   cal/mol     cal/K/mol   cal/K/mol   J/K/mol
 298.15  VIB  0.119E+18            21952.353    138.752    136.176
         ROT  0.694E+08              888.752      2.981     38.860
         INT  0.822E+25            22841.106    141.733    175.036
         TR   0.140E+29             1481.254      4.968     45.002
         TOT                       24322.3597   146.7013   220.0386   920.6414

       T/K    H(0)-H(T)+PV         H(T)/Eh          T*S/Eh         G(T)/Eh
   ------------------------------------------------------------------------
    298.15    0.387601E-01    0.648822E+00    0.104547E+00    0.544275E+00
   ------------------------------------------------------------------------

         :::::::::::::::::::::::::::::::::::::::::::::::::::::
         ::                  THERMODYNAMIC                  ::
         :::::::::::::::::::::::::::::::::::::::::::::::::::::
         :: total free energy        -117.478272589263 Eh   ::
         ::.................................................::
         :: total energy             -118.022547310037 Eh   ::
         :: zero point energy           0.610061995800 Eh   ::
         :: G(RRHO) w/o ZPVE           -0.065787275027 Eh   ::
         :: G(RRHO) contrib.            0.544274720774 Eh   ::
         :::::::::::::::::::::::::::::::::::::::::::::::::::::

           -------------------------------------------------
          | TOTAL ENERGY             -118.022547310037 Eh   |
          | TOTAL ENTHALPY           -117.373725166894 Eh   |
          | TOTAL FREE ENERGY        -117.478272589263 Eh   |
          | GRADIENT NORM               0.000060030614 Eh/α |
          | HOMO-LUMO GAP               0.961446268037 eV   |
           -------------------------------------------------

 * finished run on 2025/07/18 at 23:37:43.195
