   * xtb version 6.7.1 (edcfbbe) compiled by 'albert@albert-system' on 2024-07-22

   ID    Z sym.   atoms
    1    6 C      1-9, 11-17, 19-29, 31-43, 45-52
    2    7 N      10, 18, 30, 44
    3    1 H      53-84

          program call               : xtb data2507/gas/Na-DMAC/Na-DMAC_gas_S0_finalOpt.xtbopt.xyz --gfn 2 --spinpol --tblite --uhf 2 --ohess vtight --parallel 40 --molden --ceasefiles --namespace data2507/gas/Na-DMAC/Na-DMAC_gas_T1_preOpt
 * total energy  :  -130.6838251 Eh     change       -0.3171124E-07 Eh
 * total energy  :  -130.6870086 Eh     change       -0.3183424E-02 Eh
 * total energy  :  -130.6888957 Eh     change       -0.1887155E-02 Eh
 * total energy  :  -130.6892605 Eh     change       -0.3647639E-03 Eh
 * total energy  :  -130.6896028 Eh     change       -0.3423593E-03 Eh
 * total energy  :  -130.6897623 Eh     change       -0.1594411E-03 Eh
 * total energy  :  -130.6899724 Eh     change       -0.2101473E-03 Eh
 * total energy  :  -130.6901510 Eh     change       -0.1785708E-03 Eh
 * total energy  :  -130.6902906 Eh     change       -0.1396223E-03 Eh
 * total energy  :  -130.6904226 Eh     change       -0.1320180E-03 Eh
 * total energy  :  -130.6925011 Eh     change       -0.2140172E-05 Eh
 * total energy  :  -130.6925028 Eh     change       -0.1746423E-05 Eh
 * total energy  :  -130.6925044 Eh     change       -0.1540350E-05 Eh
 * total energy  :  -130.6925059 Eh     change       -0.1482740E-05 Eh
 * total energy  :  -130.6925075 Eh     change       -0.1642094E-05 Eh
 * total energy  :  -130.6925092 Eh     change       -0.1662145E-05 Eh
 * total energy  :  -130.6925109 Eh     change       -0.1714893E-05 Eh
 * total energy  :  -130.6925124 Eh     change       -0.1539746E-05 Eh
 * total energy  :  -130.6925124 Eh     change       -0.1778909E-07 Eh
   *** GEOMETRY OPTIMIZATION CONVERGED AFTER 94 ITERATIONS ***

 final structure:
================
84
 xtb: 6.7.1 (edcfbbe)
C            8.43194725276486       -0.76704485957087       -0.99322430594307
C            7.59341153293428        0.15705063923934       -0.09007940439497
C            8.51623630119002        1.05619090657428        0.75417061619764
C            6.72924687636500        1.04001394344936       -0.96685267104578
C            7.32525678335075        1.89290148298788       -1.88549073934882
C            6.58089842641027        2.72238016019839       -2.70408544712670
C            5.19836973056729        2.71179817706509       -2.61119199553769
C            4.57833745168464        1.87496982278932       -1.71050398954181
C            5.32990467423562        1.03100449933507       -0.88239952842566
N            4.68157243176679        0.19751168799166        0.00670416551532
C            3.25712638993378        0.21703010950743        0.05232385423203
C            2.60441671248309        1.10373585655146        0.89833808047359
C            1.22466705505422        1.12555399187926        0.93628572454246
C            0.48423380937206        0.26182187869682        0.13376645479450
C           -0.98645646251968        0.28251918262327        0.18229189345443
C           -1.68601105797404       -0.92587369264137        0.33984226769256
C           -1.02705730555589       -2.10205935841972        0.69496643835588
N           -0.46479774289027       -3.06030776849999        1.00438681972251
C           -3.12365724732570       -0.86913939337142        0.26128957207725
C           -3.94081584642155       -2.07739914137732        0.33817554039230
C           -5.02447214248985       -2.08011916282592        1.19365719530214
C           -5.79105384484341       -3.23179963142386        1.38011929568323
C           -5.47121472756702       -4.38608223582308        0.71703350997394
C           -4.40829948443693       -4.41295110865453       -0.20921015628339
C           -4.10558402347377       -5.57893655101864       -0.94290315665225
C           -3.11637303753161       -5.57890026492859       -1.88567861813513
C           -2.40646369970706       -4.40133204836959       -2.15428890887044
C           -2.66646493818243       -3.25843969080735       -1.44883623296301
C           -3.64186188223385       -3.23757850117128       -0.43162586701584
N           -3.72757109801985        0.28131938362980        0.23874531444531
C           -3.12858431606235        1.47622042231009        0.17869311237178
C           -3.92171727651442        2.65604274881237        0.22715428190704
C           -3.34796101651356        3.87215260159064        0.65950193947276
C           -4.10813476149312        5.00275871377302        0.86409958513196
C           -5.47343515815225        4.98646580426144        0.63912845542280
C           -6.10318604303763        3.81113895201388        0.18329181498672
C           -7.49138176011727        3.78326892342786       -0.04708382242018
C           -8.11386276968157        2.65611888545462       -0.53388015645905
C           -7.35950064772765        1.52343797078423       -0.81453188742979
C           -5.99260736075234        1.52810517384250       -0.60446309910903
C           -5.33407388243497        2.63759931991100       -0.06322937409749
C           -1.67832225208476        1.48308400310665        0.05519779936898
C           -0.95898953483775        2.60126916358236       -0.38562366950221
N           -0.31180966873493        3.46565666701365       -0.78877152615811
C            1.14780840158820       -0.62955207519278       -0.70457209604655
C            2.52743911512718       -0.65056585097867       -0.74956041495845
C            5.36409580926906       -0.65336267378290        0.85249709000768
C            4.64606909478344       -1.47534289685892        1.73088008614138
C            5.30097897812481       -2.32905150778758        2.59010265422464
C            6.68575378179548       -2.37906345284760        2.59013056325418
C            7.39688192996400       -1.57120868418383        1.72186550076047
C            6.76517570570108       -0.70171387567964        0.84356124498004
H            9.07957961829231       -1.40499916993011       -0.39874636014824
H            7.77556930148475       -1.40093308145369       -1.58629630409289
H            9.05306078728794       -0.18749617323341       -1.67008198947127
H            7.91913024879492        1.70670684046084        1.39031775400484
H            9.13945640780582        1.67726494130256        0.11724424329760
H            9.16555066485560        0.45861413648035        1.38746961528954
H            8.40101417743019        1.91574544359239       -1.96919059494954
H            7.07675029977674        3.37305261816049       -3.40768638476226
H            4.60213629444174        3.35541493202919       -3.23923158551580
H            3.50207687175643        1.87163214133405       -1.63946019944423
H            3.18150845570400        1.77127050031303        1.52032803736926
H            0.71804713163532        1.80827433306990        1.60163231121111
H           -5.25737124621643       -1.18037380697762        1.74391363303925
H           -6.62329571779972       -3.20752918570278        2.06809401053859
H           -6.03858397608880       -5.29094951606457        0.88101780531000
H           -4.68295414731559       -6.47227949049072       -0.75122679413487
H           -2.88908305674339       -6.47656625939247       -2.44164382573783
H           -1.65359877744259       -4.39941166497358       -2.92882801608098
H           -2.13265898479223       -2.35161768542512       -1.69250480614141
H           -2.29473326959527        3.90807471194386        0.88589681168396
H           -3.63071159753183        5.90569884445317        1.21529920935016
H           -6.06706457808339        5.87509432464693        0.79236816306605
H           -8.06696806959295        4.67033047783953        0.17645790451959
H           -9.18040533683972        2.65366708039823       -0.70515234553406
H           -7.83580648220650        0.64073866508100       -1.21467397257286
H           -5.41959640551979        0.65441109142511       -0.87390349509257
H            0.58312117080390       -1.30074714687128       -1.33388473902737
H            3.04503659905060       -1.33693242551729       -1.40259362889930
H            3.56796575339172       -1.44118056864271        1.73185913169493
H            4.73014684097710       -2.95507567060014        3.25827081546984
H            7.20890288916277       -3.04354506432108        3.26025249448562
H            8.47473387699113       -1.62474826106255        1.73334016001322

 projected vibrational frequencies (cm⁻¹)
eigval :       -0.00    -0.00    -0.00     0.00     0.00     0.00
eigval :        3.62    10.60    13.59    19.19    22.32    25.55
eigval :       28.16    35.84    39.74    56.28    62.16    67.16
eigval :       77.86    95.18    99.65   100.39   111.35   119.91
eigval :      126.70   128.46   129.98   148.26   162.16   172.24
eigval :      178.69   191.54   192.55   203.82   210.54   217.23
eigval :      228.73   234.56   244.08   260.61   262.79   292.61
eigval :      300.98   306.42   316.84   327.24   341.36   362.28
eigval :      375.54   376.47   380.26   389.01   399.96   400.51
eigval :      404.50   411.72   424.81   433.46   439.85   449.26
eigval :      455.15   461.28   479.36   481.10   492.78   496.04
eigval :      499.34   504.86   507.38   510.77   515.07   522.04
eigval :      541.70   543.76   548.58   567.27   573.33   582.08
eigval :      589.42   591.82   596.47   618.44   624.89   633.05
eigval :      633.13   657.12   667.85   674.80   685.78   698.26
eigval :      698.79   707.73   722.00   724.59   732.26   740.84
eigval :      759.43   765.78   772.74   774.97   776.03   776.62
eigval :      790.22   808.27   811.19   826.83   837.25   847.71
eigval :      852.09   853.67   865.19   869.85   870.47   875.53
eigval :      890.07   895.88   906.25   908.07   909.12   915.34
eigval :      915.44   915.82   916.09   917.33   920.89   921.93
eigval :      923.26   923.51   927.88   933.55   937.59   948.08
eigval :      957.56  1013.04  1017.05  1065.32  1075.89  1078.83
eigval :     1086.22  1087.92  1094.39  1108.62  1114.02  1120.54
eigval :     1122.65  1134.63  1134.94  1139.75  1153.38  1154.59
eigval :     1163.94  1168.70  1175.37  1179.64  1181.70  1184.47
eigval :     1184.51  1185.44  1192.59  1199.87  1208.24  1213.33
eigval :     1224.25  1228.81  1239.04  1244.93  1248.38  1250.84
eigval :     1260.89  1262.41  1265.21  1275.28  1293.80  1310.18
eigval :     1311.49  1315.51  1321.60  1326.51  1332.27  1334.66
eigval :     1336.50  1343.51  1364.31  1372.64  1384.89  1393.13
eigval :     1400.35  1401.24  1406.01  1413.57  1417.84  1418.83
eigval :     1426.10  1427.35  1431.94  1450.14  1460.05  1466.19
eigval :     1474.21  1481.79  1486.39  1487.02  1488.29  1496.92
eigval :     1500.80  1505.90  1507.82  1519.18  1550.08  1553.30
eigval :     1559.31  1563.23  1573.43  1578.80  1581.12  1591.15
eigval :     1595.49  1606.27  2284.67  2306.90  3029.60  3031.07
eigval :     3044.09  3046.50  3051.66  3055.43  3069.48  3069.64
eigval :     3072.89  3074.28  3077.05  3078.33  3082.25  3083.29
eigval :     3084.58  3085.75  3085.97  3087.42  3088.56  3088.78
eigval :     3091.09  3091.35  3092.45  3092.64  3092.89  3098.48
eigval :     3099.39  3100.78  3101.15  3109.08  3109.58  3114.84

   temp. (K)  partition function   enthalpy   heat capacity  entropy
                                   cal/mol     cal/K/mol   cal/K/mol   J/K/mol
 298.15  VIB  0.528E+21            25465.172    157.757    159.725
         ROT  0.111E+09              888.752      2.981     39.790
         INT  0.584E+29            26353.925    160.738    199.515
         TR   0.166E+29             1481.254      4.968     45.344
         TOT                       27835.1787   165.7061   244.8592  1024.4911

       T/K    H(0)-H(T)+PV         H(T)/Eh          T*S/Eh         G(T)/Eh
   ------------------------------------------------------------------------
    298.15    0.443582E-01    0.682436E+00    0.116341E+00    0.566095E+00
   ------------------------------------------------------------------------

         :::::::::::::::::::::::::::::::::::::::::::::::::::::
         ::                  THERMODYNAMIC                  ::
         :::::::::::::::::::::::::::::::::::::::::::::::::::::
         :: total free energy        -130.126417012115 Eh   ::
         ::.................................................::
         :: total energy             -130.692512458631 Eh   ::
         :: zero point energy           0.638077793016 Eh   ::
         :: G(RRHO) w/o ZPVE           -0.071982346500 Eh   ::
         :: G(RRHO) contrib.            0.566095446516 Eh   ::
         :::::::::::::::::::::::::::::::::::::::::::::::::::::

           -------------------------------------------------
          | TOTAL ENERGY             -130.692512458631 Eh   |
          | TOTAL ENTHALPY           -130.010076484774 Eh   |
          | TOTAL FREE ENERGY        -130.126417012115 Eh   |
          | GRADIENT NORM               0.000171229652 Eh/α |
           -------------------------------------------------

 * finished run on 2025/09/10 at 21:41:01.761
