   * xtb version 6.7.1 (edcfbbe) compiled by 'albert@albert-system' on 2024-07-22

   ID    Z sym.   atoms
    1    6 C      1-9, 11-17, 19-29, 31-43, 45-52
    2    7 N      10, 18, 30, 44
    3    1 H      53-84

          program call               : xtb data2507/gas/Na-DMAC/Na-DMAC_gas_S0_crest.xyz --gfn 2 --ohess vtight --parallel 40 --molden --ceasefiles --namespace data2507/gas/Na-DMAC/Na-DMAC_gas_S0_finalOpt
          :  Hamiltonian                  GFN2-xTB          :
 * total energy  :  -130.7618407 Eh     change       -0.1927361E-08 Eh
 * total energy  :  -130.7618416 Eh     change       -0.9104533E-06 Eh
 * total energy  :  -130.7618426 Eh     change       -0.9752914E-06 Eh
 * total energy  :  -130.7618445 Eh     change       -0.1946673E-05 Eh
 * total energy  :  -130.7618457 Eh     change       -0.1203403E-05 Eh
 * total energy  :  -130.7618469 Eh     change       -0.1192801E-05 Eh
 * total energy  :  -130.7618489 Eh     change       -0.2012223E-05 Eh
 * total energy  :  -130.7618501 Eh     change       -0.1127850E-05 Eh
 * total energy  :  -130.7618506 Eh     change       -0.5666705E-06 Eh
 * total energy  :  -130.7618511 Eh     change       -0.4439710E-06 Eh
 * total energy  :  -130.7618525 Eh     change       -0.3920279E-06 Eh
 * total energy  :  -130.7618529 Eh     change       -0.3767867E-06 Eh
 * total energy  :  -130.7618532 Eh     change       -0.2830149E-06 Eh
 * total energy  :  -130.7618535 Eh     change       -0.2760052E-06 Eh
 * total energy  :  -130.7618537 Eh     change       -0.2752692E-06 Eh
 * total energy  :  -130.7618539 Eh     change       -0.1754914E-06 Eh
 * total energy  :  -130.7618540 Eh     change       -0.1426644E-06 Eh
 * total energy  :  -130.7618542 Eh     change       -0.1792304E-06 Eh
 * total energy  :  -130.7618542 Eh     change       -0.1684015E-08 Eh
   *** GEOMETRY OPTIMIZATION CONVERGED AFTER 22 ITERATIONS ***

 final structure:
================
84
 xtb: 6.7.1 (edcfbbe)
C            8.39530820214175       -0.78293313643029       -0.91284983593424
C            7.54007230717721        0.26018349430239       -0.17064254401196
C            8.44133289309787        1.33441382312555        0.46510593190061
C            6.61707431546673        0.93413323132210       -1.16797281108102
C            7.16078649706675        1.62970737986565       -2.23933758564287
C            6.37198250870928        2.28861724049702       -3.16379276151726
C            4.99733872556620        2.27169599323424       -3.01323242728566
C            4.43038116560961        1.58640731056183       -1.95957168640964
C            5.22512063001238        0.89769901196866       -1.03862575719307
N            4.62622004626049        0.20772546968745        0.00542221156877
C            3.21161070028198        0.18757936543131        0.09444119840105
C            2.56030140339844        0.98434434973198        1.02978255183626
C            1.18296739718165        0.97018210345236        1.11193009383049
C            0.43627465703249        0.15226537820804        0.26677024745852
C           -1.02819380799548        0.13430639340304        0.35617411253330
C           -1.73325267735933       -1.07458847583714        0.41180173433127
C           -1.05114261024189       -2.30521094067651        0.52958089722020
N           -0.50722137467044       -3.30405306859404        0.67819564120309
C           -3.14353335159458       -1.04176124132504        0.43955349624735
C           -3.93296699696835       -2.27894707295922        0.44080698271669
C           -4.88723375750963       -2.43869448501768        1.41914741670791
C           -5.59731055794786       -3.63787639216748        1.53867496548217
C           -5.35057707891095       -4.66991920905052        0.67666203327516
C           -4.42040865353206       -4.52690692131008       -0.37373104489805
C           -4.19065806011568       -5.56708194638361       -1.29859005963156
C           -3.32419876525759       -5.40002782231217       -2.34107353917621
C           -2.66945806800221       -4.17296447835826       -2.51917589747869
C           -2.86162425593321       -3.14963982644198       -1.63365655559998
C           -3.71091434407515       -3.30499743974292       -0.51796057003077
N           -3.80921093698981        0.09615722711664        0.53430866860820
C           -3.17268709235620        1.25681073968411        0.53344727534348
C           -3.96245352680054        2.48067352354879        0.70888056720099
C           -3.50858615993210        3.43215559457186        1.59651785210633
C           -4.22274240971473        4.61302909935497        1.82125418057568
C           -5.39104753995250        4.84482648105479        1.15144776673615
C           -5.89488986448094        3.89949066914723        0.23464596838839
C           -7.09856223627553        4.13205417589849       -0.46383517476526
C           -7.58014746497396        3.21655363964746       -1.35572177000225
C           -6.87243613103498        2.02895499288153       -1.59024561757641
C           -5.70198575100171        1.77376308031188       -0.93078854807062
C           -5.18279223971955        2.69091602552757        0.00581403612913
C           -1.76995893847639        1.32379938359202        0.38603013385328
C           -1.12722300865045        2.56412164824633        0.18297343653700
N           -0.60758327553763        3.56381888909280       -0.03373274098459
C            1.09326921654808       -0.65003768459307       -0.66367752293380
C            2.47021706841272       -0.62868510594188       -0.75278008113432
C            5.37084426189149       -0.45694946182841        0.96893693063036
C            4.71777929069993       -1.17068423694707        1.97798244315974
C            5.43155672385860       -1.83199981309990        2.95493276303359
C            6.81406373219270       -1.79975887071035        2.93866245919169
C            7.46185339630661       -1.11635858098719        1.92656461234403
C            6.76863990625048       -0.44364586553537        0.92949100921605
H            9.08331118256792       -1.27663450155147       -0.23218982299476
H            7.75158277012350       -1.53926235901309       -1.35819176124097
H            8.97558793519001       -0.31703070252778       -1.70447338912739
H            7.82980914727230        2.06850958439374        0.98653491680420
H            9.02430355866158        1.85065388318429       -0.29253380795980
H            9.12901403677837        0.89099470870464        1.17989190235501
H            8.23304208406256        1.66413765717701       -2.35992388207051
H            6.82806291374649        2.81788376704405       -3.98645994962036
H            4.36213260694481        2.79478428392285       -3.71232520984855
H            3.35755795383494        1.59130488505485       -1.84209882432355
H            3.14089864459815        1.61152214255196        1.68918267938697
H            0.68455746080686        1.58334031937692        1.84818694603379
H           -5.06247245594188       -1.63412627682904        2.11752901458781
H           -6.32710370208828       -3.74337143950546        2.32735327795807
H           -5.87498726113692       -5.60911898208780        0.77816271907115
H           -4.72368890557553       -6.49809212914348       -1.16944479311829
H           -3.15089103089625       -6.20144848475397       -3.04366765578067
H           -2.01413795372141       -4.03903696568951       -3.36710412863352
H           -2.37362013229937       -2.20058093309447       -1.80463443118271
H           -2.60014140335649        3.25921811970619        2.15566723750025
H           -3.84003293436049        5.33357328174243        2.52801038030009
H           -5.94887398053294        5.75530963732077        1.31645692611429
H           -7.63029640906792        5.05463807462551       -0.27961690428755
H           -8.50229306860489        3.40153751199633       -1.88668703701644
H           -7.25840960584235        1.31304160312722       -2.30098095379435
H           -5.17212173900084        0.85273966217222       -1.11432024409797
H            0.52426593847376       -1.28009125886261       -1.33153521329550
H            2.98056150991715       -1.24281804672256       -1.47916887683867
H            3.63944381713936       -1.21398338647710        1.99047516134038
H            4.90421441767423       -2.37489110028763        3.72500877607091
H            7.38444544517571       -2.30981653489233        3.69985633131704
H            8.54136882470753       -1.11246635737923        1.91697996288139

          :  Hamiltonian                  GFN2-xTB          :
         :: gradient norm              0.000132967856 Eh/a0 ::
         :: HOMO-LUMO gap              1.120266054827 eV    ::
         :: SCC energy              -133.273974051868 Eh    ::
         :: -> dispersion             -0.123863720429 Eh    ::
         :: repulsion energy           2.512119823585 Eh    ::

    * Orbital Energies and Occupations

         #    Occupation            Energy/Eh            Energy/eV
      -------------------------------------------------------------
         1        2.0000           -0.6971409             -18.9702
       ...           ...                  ...                  ...
       110        2.0000           -0.4205102             -11.4427
       111        2.0000           -0.4145603             -11.2808
       112        2.0000           -0.4115953             -11.2001
       113        2.0000           -0.4110634             -11.1856
       114        2.0000           -0.4049120             -11.0182
       115        2.0000           -0.4041413             -10.9972
       116        2.0000           -0.3998499             -10.8805
       117        2.0000           -0.3942625             -10.7284
       118        2.0000           -0.3920997             -10.6696
       119        2.0000           -0.3890232             -10.5859
       120        2.0000           -0.3889795             -10.5847
       121        2.0000           -0.3854623             -10.4890
       122        2.0000           -0.3437661              -9.3544 (HOMO)
       123                         -0.3025971              -8.2341 (LUMO)
       124                         -0.2957463              -8.0477
       125                         -0.2725088              -7.4153
       126                         -0.2627874              -7.1508
       127                         -0.2453547              -6.6764
       128                         -0.2396719              -6.5218
       129                         -0.2390247              -6.5042
       130                         -0.2368227              -6.4443
       131                         -0.2242232              -6.1014
       132                         -0.2205471              -6.0014
       133                         -0.2158886              -5.8746
       ...                                ...                  ...
       240                          1.1605046              31.5789
      -------------------------------------------------------------
                  HL-Gap            0.0411691 Eh            1.1203 eV

     #   Z          covCN         q      C6AA      α(0)
     1   6 C        3.761    -0.103    22.512     6.764
     2   6 C        3.909     0.021    20.156     6.381
     3   6 C        3.761    -0.103    22.512     6.764
     4   6 C        2.979    -0.014    28.350     8.734
     5   6 C        2.928    -0.036    28.897     8.816
     6   6 C        2.917    -0.044    29.102     8.846
     7   6 C        2.920    -0.032    28.806     8.801
     8   6 C        2.924    -0.058    29.449     8.899
     9   6 C        2.928     0.058    26.700     8.474
    10   7 N        2.754    -0.071    22.613     7.063
    11   6 C        2.929     0.077    26.279     8.407
    12   6 C        2.921    -0.034    28.847     8.808
    13   6 C        2.923    -0.025    28.632     8.775
    14   6 C        2.978     0.005    27.899     8.664
    15   6 C        2.992     0.035    27.217     8.558
    16   6 C        2.973    -0.009    28.241     8.717
    17   6 C        1.908     0.114    28.284     8.589
    18   7 N        0.911    -0.239    26.240     7.409
    19   6 C        2.957     0.110    25.568     8.294
    20   6 C        2.979    -0.001    28.048     8.687
    21   6 C        2.925    -0.024    28.595     8.769
    22   6 C        2.914    -0.028    28.705     8.786
    23   6 C        2.920    -0.030    28.754     8.793
    24   6 C        2.987     0.017    27.620     8.621
    25   6 C        2.920    -0.031    28.779     8.797
    26   6 C        2.916    -0.026    28.650     8.777
    27   6 C        2.917    -0.025    28.625     8.774
    28   6 C        2.917    -0.029    28.732     8.790
    29   6 C        2.986     0.013    27.706     8.634
    30   7 N        1.850    -0.238    27.075     7.712
    31   6 C        2.954     0.110    25.570     8.294
    32   6 C        2.976    -0.000    28.034     8.685
    33   6 C        2.925    -0.026    28.644     8.777
    34   6 C        2.913    -0.028    28.691     8.783
    35   6 C        2.920    -0.030    28.738     8.791
    36   6 C        2.987     0.016    27.649     8.625
    37   6 C        2.920    -0.033    28.829     8.805
    38   6 C        2.915    -0.027    28.684     8.782
    39   6 C        2.917    -0.027    28.672     8.781
    40   6 C        2.917    -0.031    28.767     8.795
    41   6 C        2.985     0.019    27.589     8.616
    42   6 C        2.973    -0.011    28.293     8.725
    43   6 C        1.908     0.113    28.323     8.595
    44   7 N        0.911    -0.240    26.263     7.412
    45   6 C        2.923    -0.025    28.634     8.775
    46   6 C        2.921    -0.034    28.850     8.808
    47   6 C        2.928     0.058    26.700     8.474
    48   6 C        2.924    -0.058    29.449     8.899
    49   6 C        2.920    -0.032    28.806     8.801
    50   6 C        2.917    -0.044    29.102     8.846
    51   6 C        2.928    -0.036    28.897     8.816
    52   6 C        2.979    -0.014    28.350     8.734
    53   1 H        0.925     0.039     2.461     2.453
    54   1 H        0.925     0.031     2.568     2.506
    55   1 H        0.925     0.039     2.461     2.453
    56   1 H        0.925     0.031     2.567     2.506
    57   1 H        0.925     0.039     2.460     2.453
    58   1 H        0.925     0.039     2.462     2.454
    59   1 H        0.926     0.030     2.588     2.516
    60   1 H        0.926     0.026     2.641     2.541
    61   1 H        0.926     0.028     2.611     2.527
    62   1 H        0.926     0.023     2.691     2.565
    63   1 H        0.926     0.051     2.311     2.377
    64   1 H        0.926     0.040     2.449     2.447
    65   1 H        0.926     0.045     2.388     2.417
    66   1 H        0.926     0.039     2.461     2.453
    67   1 H        0.926     0.040     2.452     2.449
    68   1 H        0.926     0.038     2.480     2.462
    69   1 H        0.926     0.037     2.486     2.466
    70   1 H        0.926     0.035     2.510     2.478
    71   1 H        0.926     0.021     2.722     2.580
    72   1 H        0.926     0.033     2.549     2.496
    73   1 H        0.926     0.040     2.443     2.444
    74   1 H        0.926     0.040     2.449     2.447
    75   1 H        0.926     0.036     2.507     2.476
    76   1 H        0.926     0.035     2.521     2.483
    77   1 H        0.926     0.034     2.524     2.484
    78   1 H        0.926     0.045     2.386     2.416
    79   1 H        0.926     0.040     2.453     2.449
    80   1 H        0.926     0.051     2.313     2.378
    81   1 H        0.926     0.023     2.693     2.566
    82   1 H        0.926     0.028     2.612     2.528
    83   1 H        0.926     0.026     2.640     2.541
    84   1 H        0.926     0.030     2.588     2.516

molecular dipole:
                 x           y           z       tot (Debye)
 q only:       -1.189      -0.170      -0.094
   full:       -1.269      -0.151      -0.045       3.251

 projected vibrational frequencies (cm⁻¹)
eigval :       -0.00    -0.00    -0.00     0.00     0.00     0.00
eigval :        5.52    11.61    13.70    18.23    20.96    25.48
eigval :       30.49    39.36    42.64    53.83    68.52    70.83
eigval :       71.13    98.80   100.11   102.32   110.06   120.22
eigval :      125.12   128.72   130.41   146.19   163.71   170.43
eigval :      175.39   190.11   196.32   208.10   215.00   218.51
eigval :      226.89   234.07   253.20   260.17   264.91   289.83
eigval :      302.52   304.40   316.27   331.24   343.67   371.70
eigval :      373.65   375.65   378.47   393.69   399.14   402.17
eigval :      405.12   412.21   425.83   433.43   436.76   451.02
eigval :      476.80   479.57   480.96   485.29   490.04   493.98
eigval :      505.33   508.51   515.08   516.03   520.21   543.33
eigval :      547.40   554.90   566.60   576.01   577.52   587.11
eigval :      595.59   602.59   606.20   632.45   636.01   649.17
eigval :      668.64   671.46   675.88   682.35   693.36   699.20
eigval :      723.41   724.66   730.88   734.81   737.00   761.02
eigval :      765.87   776.78   778.01   778.05   778.94   805.61
eigval :      812.98   814.09   814.86   827.37   853.10   854.39
eigval :      866.43   866.95   868.43   872.78   877.75   896.05
eigval :      898.43   912.58   913.17   913.88   914.90   916.12
eigval :      917.54   919.33   921.27   921.41   923.10   923.76
eigval :      925.84   929.72   930.10   938.62   943.60   954.03
eigval :      957.22  1014.46  1018.84  1067.34  1077.40  1084.79
eigval :     1086.55  1087.13  1106.09  1114.05  1119.62  1119.72
eigval :     1124.81  1136.16  1141.42  1160.60  1166.85  1168.37
eigval :     1172.66  1180.74  1182.13  1184.47  1187.09  1187.64
eigval :     1188.27  1192.05  1208.12  1214.12  1219.74  1226.53
eigval :     1232.91  1245.61  1250.34  1250.50  1252.23  1264.26
eigval :     1266.45  1269.77  1270.69  1295.08  1309.22  1319.37
eigval :     1325.82  1331.95  1335.61  1337.11  1343.70  1343.75
eigval :     1359.40  1386.67  1389.66  1391.66  1393.57  1402.78
eigval :     1406.81  1408.90  1418.49  1420.96  1422.50  1436.72
eigval :     1443.92  1451.65  1455.33  1472.85  1480.95  1488.90
eigval :     1490.20  1491.12  1500.21  1500.66  1503.58  1505.53
eigval :     1509.27  1514.82  1559.58  1561.54  1563.15  1576.17
eigval :     1589.92  1592.48  1592.73  1593.39  1594.19  1603.20
eigval :     1609.50  1610.69  2358.40  2362.62  3026.66  3028.94
eigval :     3039.23  3041.97  3048.24  3052.55  3068.72  3072.30
eigval :     3074.11  3075.49  3077.59  3078.35  3078.60  3078.76
eigval :     3080.66  3082.64  3083.21  3083.35  3084.64  3084.99
eigval :     3087.50  3090.86  3093.37  3093.78  3094.78  3096.25
eigval :     3097.14  3099.27  3099.75  3100.02  3101.13  3109.51

   temp. (K)  partition function   enthalpy   heat capacity  entropy
                                   cal/mol     cal/K/mol   cal/K/mol   J/K/mol
 298.15  VIB  0.224E+21            25232.614    156.278    158.093
         ROT  0.112E+09              888.752      2.981     39.814
         INT  0.251E+29            26121.367    159.259    197.908
         TR   0.166E+29             1481.254      4.968     45.344
         TOT                       27602.6205   164.2275   243.2517  1017.7649

       T/K    H(0)-H(T)+PV         H(T)/Eh          T*S/Eh         G(T)/Eh
   ------------------------------------------------------------------------
    298.15    0.439876E-01    0.686184E+00    0.115577E+00    0.570607E+00
   ------------------------------------------------------------------------

         :::::::::::::::::::::::::::::::::::::::::::::::::::::
         ::                  THERMODYNAMIC                  ::
         :::::::::::::::::::::::::::::::::::::::::::::::::::::
         :: total free energy        -130.191247331451 Eh   ::
         ::.................................................::
         :: total energy             -130.761854228279 Eh   ::
         :: zero point energy           0.642196032583 Eh   ::
         :: G(RRHO) w/o ZPVE           -0.071589135755 Eh   ::
         :: G(RRHO) contrib.            0.570606896828 Eh   ::
         :::::::::::::::::::::::::::::::::::::::::::::::::::::

           -------------------------------------------------
          | TOTAL ENERGY             -130.761854228279 Eh   |
          | TOTAL ENTHALPY           -130.075670619950 Eh   |
          | TOTAL FREE ENERGY        -130.191247331451 Eh   |
          | GRADIENT NORM               0.000132916111 Eh/α |
          | HOMO-LUMO GAP               1.120267580098 eV   |
           -------------------------------------------------

 * finished run on 2025/09/10 at 21:40:42.510
