   * xtb version 6.7.1 (edcfbbe) compiled by 'albert@albert-system' on 2024-07-22

   ID    Z sym.   atoms
    1    6 C      1-9, 11-17, 19-29, 31-43, 45-52
    2    7 N      10, 18, 30, 44
    3    1 H      53-84

          program call               : xtb data2507/gas/Na-DMAC/Na-DMAC.xyz --gfn 2 --ohess vtight --parallel 40 --molden --ceasefiles --namespace data2507/gas/Na-DMAC/Na-DMAC_gas_S0_preOpt
          :  Hamiltonian                  GFN2-xTB          :
 * total energy  :  -130.7274857 Eh     change       -0.1501121E-08 Eh
 * total energy  :  -130.7470108 Eh     change       -0.1952509E-01 Eh
 * total energy  :  -130.7524169 Eh     change       -0.5406129E-02 Eh
 * total energy  :  -130.7532261 Eh     change       -0.8091832E-03 Eh
 * total energy  :  -130.7537383 Eh     change       -0.5121960E-03 Eh
 * total energy  :  -130.7541535 Eh     change       -0.4152364E-03 Eh
 * total energy  :  -130.7543307 Eh     change       -0.1771613E-03 Eh
 * total energy  :  -130.7544219 Eh     change       -0.9127424E-04 Eh
 * total energy  :  -130.7544893 Eh     change       -0.6732355E-04 Eh
 * total energy  :  -130.7545468 Eh     change       -0.5755520E-04 Eh
 * total energy  :  -130.7612457 Eh     change       -0.4904060E-06 Eh
 * total energy  :  -130.7612461 Eh     change       -0.4022695E-06 Eh
 * total energy  :  -130.7612465 Eh     change       -0.3833583E-06 Eh
 * total energy  :  -130.7612470 Eh     change       -0.4308650E-06 Eh
 * total energy  :  -130.7612474 Eh     change       -0.4698019E-06 Eh
 * total energy  :  -130.7612479 Eh     change       -0.4444385E-06 Eh
 * total energy  :  -130.7612483 Eh     change       -0.4322613E-06 Eh
 * total energy  :  -130.7612486 Eh     change       -0.3472707E-06 Eh
 * total energy  :  -130.7612487 Eh     change       -0.8377697E-08 Eh
   *** GEOMETRY OPTIMIZATION CONVERGED AFTER 152 ITERATIONS ***

 final structure:
================
84
 xtb: 6.7.1 (edcfbbe)
C            8.18526190009646       -0.39990384603946       -1.33749410107213
C            7.38219174471532       -0.11208000435210       -0.05572636096683
C            8.33579848060133        0.16046044576532        1.12197879456347
C            6.52868111265100        1.11925374466074       -0.28959825382862
C            7.14468356932680        2.32157987636799       -0.61094296268973
C            6.42253481459483        3.47040164043342       -0.87274199752044
C            5.04094593969244        3.42098842964372       -0.83644584803805
C            4.40367910524056        2.24030191107639       -0.51870123300179
C            5.13251967413001        1.08552945636156       -0.21808375586102
N            4.46453613432334       -0.08788338624131        0.11208110621997
C            3.05289299459279       -0.07534500506128        0.19280991145748
C            2.41660731815842        0.62196481692924        1.21562233205164
C            1.03945694957612        0.64596898525625        1.28659491129204
C            0.27403361310840       -0.04269268273057        0.34781473601598
C           -1.19027613676597       -0.02126127001999        0.43011333204028
C           -1.93777398313866       -1.20547273894858        0.38504967316847
C           -1.30907225415790       -2.46642868896204        0.31126150999277
N           -0.81427336683145       -3.50028085617028        0.26510135615530
C           -3.34290632079507       -1.12239480641602        0.41006977161341
C           -4.16494876108112       -2.34387568189604        0.33263455988743
C           -4.07276271997995       -3.27649329672936        1.33711693680705
C           -4.88661329490778       -4.41621920398038        1.33162201677941
C           -5.78855239660626       -4.61396350100691        0.32454431434851
C           -5.89577383495660       -3.69248056369089       -0.73764067298871
C           -6.80257516388838       -3.88825156401250       -1.80048717682859
C           -6.87023245398411       -3.00094077138307       -2.83725028086487
C           -6.01706040187873       -1.88783702841064       -2.86820568413319
C           -5.12942502716187       -1.66875067297630       -1.85227315428680
C           -5.06221666276773       -2.54344895185578       -0.74837804593293
N           -3.97515771913671        0.02940239599457        0.54615559362434
C           -3.29973833558870        1.16419282071138        0.65685912139891
C           -4.03994008466905        2.40242435958182        0.92552836241628
C           -3.52913891949294        3.26861708875892        1.86959697118400
C           -4.17157694448463        4.47101687278456        2.17849308195998
C           -5.32731976640837        4.81463907610837        1.53562285705812
C           -5.89669364658301        3.95544915604028        0.57386067913880
C           -7.09461870942029        4.29860260137529       -0.08809249578959
C           -7.65003845924477        3.46238637519451       -1.01439272477199
C           -7.02649871419830        2.24378314029389       -1.31720145133785
C           -5.86111339679680        1.88565597944652       -0.69798156493866
C           -5.26169942199210        2.72141745174277        0.26535353043143
C           -1.89036364889559        1.18642289639458        0.55539098222145
C           -1.18677423971250        2.40782816006417        0.46456822727817
N           -0.60697402144333        3.38871918952667        0.32981733315995
C            0.91338719966632       -0.75072821053900       -0.66745505765643
C            2.29038729998061       -0.75859927188573       -0.74993886550105
C            5.14644100499204       -1.27196995680801        0.36550593229875
C            4.43776286643100       -2.41465034377123        0.74905292367699
C            5.08752197126144       -3.60566269275039        0.99474683270017
C            6.46328947197282       -3.67779874449748        0.87400646148220
C            7.16965744467399       -2.54113637397808        0.52915169180150
C            6.54096828629791       -1.32880358432277        0.27777066306574
H            8.81847975142813       -1.27366533945784       -1.21107697081786
H            7.50436951125886       -0.58616363702281       -2.16603859646400
H            8.81812081118598        0.44403071729846       -1.59753123098670
H            7.76085667618514        0.35843694116883        2.02477306652965
H            8.96532679335218        1.02269992954892        0.92048451791428
H            8.97983224108390       -0.69473197297195        1.30686892479807
H            8.22200154777356        2.36756689374293       -0.66263971014316
H            6.93394761261127        4.38955955923343       -1.11459019685927
H            4.45332826490298        4.29894814044658       -1.05850429716927
H            3.32513821110101        2.21361108497186       -0.51056937095715
H            3.00992790774138        1.14665089514132        1.94912230471399
H            0.55426781778063        1.17893886621858        2.09110568039214
H           -3.38403224463693       -3.12185974102011        2.15540514369125
H           -4.79727907696657       -5.12903617235668        2.13735693717522
H           -6.42893455725812       -5.48413690089831        0.32240354024986
H           -7.43922833653083       -4.76120101588208       -1.78102460140967
H           -7.56855046735683       -3.15724196841967       -3.64620411108622
H           -6.06038506487296       -1.20815792294249       -3.70671185848765
H           -4.45544416076472       -0.82578407130855       -1.89748713340787
H           -2.62922060847076        3.01053943008658        2.40918680873801
H           -3.74184743802659        5.12046347090627        2.92592618212168
H           -5.82673257288786        5.74607432309694        1.76006361577253
H           -7.56402731668229        5.24121864386975        0.15484707702685
H           -8.56781245618990        3.73225909293446       -1.51576548660486
H           -7.47371140656264        1.58331394584558       -2.04557708278226
H           -5.40341485883587        0.93854645021462       -0.92623956390282
H            0.32913019016161       -1.27214286228067       -1.41128356792525
H            2.78557384883864       -1.29616860463034       -1.54436484241586
H            3.36572356207728       -2.36976958581761        0.86236222773630
H            4.51483981331533       -4.47406892140159        1.28354468730454
H            6.98372580933665       -4.60525922581754        1.05791773802979
H            8.24490010652648       -2.60512161344302        0.45737135007579

          :  Hamiltonian                  GFN2-xTB          :
         :: gradient norm              0.000086881849 Eh/a0 ::
         :: HOMO-LUMO gap              1.148351053787 eV    ::
         :: SCC energy              -133.273264152641 Eh    ::
         :: -> dispersion             -0.124213715037 Eh    ::
         :: repulsion energy           2.512015499541 Eh    ::

    * Orbital Energies and Occupations

         #    Occupation            Energy/Eh            Energy/eV
      -------------------------------------------------------------
         1        2.0000           -0.6975243             -18.9806
       ...           ...                  ...                  ...
       110        2.0000           -0.4203641             -11.4387
       111        2.0000           -0.4142536             -11.2724
       112        2.0000           -0.4115101             -11.1978
       113        2.0000           -0.4110802             -11.1861
       114        2.0000           -0.4049665             -11.0197
       115        2.0000           -0.4040702             -10.9953
       116        2.0000           -0.4000953             -10.8871
       117        2.0000           -0.3942411             -10.7278
       118        2.0000           -0.3927170             -10.6864
       119        2.0000           -0.3890109             -10.5855
       120        2.0000           -0.3878524             -10.5540
       121        2.0000           -0.3856126             -10.4931
       122        2.0000           -0.3444707              -9.3735 (HOMO)
       123                         -0.3022695              -8.2252 (LUMO)
       124                         -0.2946645              -8.0182
       125                         -0.2724023              -7.4124
       126                         -0.2631456              -7.1606
       127                         -0.2442009              -6.6450
       128                         -0.2394524              -6.5158
       129                         -0.2391529              -6.5077
       130                         -0.2374321              -6.4609
       131                         -0.2231275              -6.0716
       132                         -0.2208377              -6.0093
       133                         -0.2166881              -5.8964
       ...                                ...                  ...
       240                          1.1613818              31.6028
      -------------------------------------------------------------
                  HL-Gap            0.0422012 Eh            1.1484 eV

     #   Z          covCN         q      C6AA      α(0)
     1   6 C        3.761    -0.103    22.511     6.764
     2   6 C        3.909     0.021    20.157     6.381
     3   6 C        3.761    -0.103    22.512     6.764
     4   6 C        2.980    -0.014    28.345     8.733
     5   6 C        2.928    -0.036    28.903     8.817
     6   6 C        2.917    -0.044    29.090     8.844
     7   6 C        2.920    -0.032    28.803     8.801
     8   6 C        2.924    -0.058    29.448     8.899
     9   6 C        2.927     0.057    26.717     8.477
    10   7 N        2.753    -0.069    22.581     7.058
    11   6 C        2.928     0.076    26.310     8.412
    12   6 C        2.921    -0.035    28.877     8.812
    13   6 C        2.923    -0.026    28.645     8.777
    14   6 C        2.978     0.004    27.932     8.669
    15   6 C        2.993     0.036    27.189     8.553
    16   6 C        2.973    -0.011    28.281     8.723
    17   6 C        1.908     0.113    28.322     8.595
    18   7 N        0.911    -0.237    26.201     7.403
    19   6 C        2.957     0.112    25.527     8.287
    20   6 C        2.978     0.001    28.009     8.681
    21   6 C        2.923    -0.025    28.638     8.776
    22   6 C        2.915    -0.027    28.666     8.780
    23   6 C        2.919    -0.031    28.785     8.798
    24   6 C        2.987     0.016    27.636     8.623
    25   6 C        2.919    -0.032    28.805     8.801
    26   6 C        2.916    -0.028    28.693     8.784
    27   6 C        2.916    -0.028    28.689     8.783
    28   6 C        2.918    -0.028    28.710     8.787
    29   6 C        2.988     0.017    27.628     8.622
    30   7 N        1.848    -0.237    27.050     7.708
    31   6 C        2.953     0.110    25.574     8.295
    32   6 C        2.974    -0.001    28.039     8.686
    33   6 C        2.926    -0.025    28.639     8.776
    34   6 C        2.913    -0.028    28.693     8.784
    35   6 C        2.920    -0.029    28.725     8.789
    36   6 C        2.987     0.016    27.654     8.626
    37   6 C        2.921    -0.033    28.832     8.805
    38   6 C        2.915    -0.027    28.684     8.782
    39   6 C        2.917    -0.027    28.668     8.780
    40   6 C        2.917    -0.034    28.835     8.806
    41   6 C        2.984     0.019    27.587     8.616
    42   6 C        2.973    -0.011    28.284     8.724
    43   6 C        1.909     0.113    28.313     8.593
    44   7 N        0.911    -0.240    26.277     7.414
    45   6 C        2.923    -0.026    28.652     8.778
    46   6 C        2.921    -0.035    28.872     8.811
    47   6 C        2.927     0.057    26.715     8.476
    48   6 C        2.924    -0.058    29.449     8.899
    49   6 C        2.920    -0.032    28.805     8.801
    50   6 C        2.917    -0.044    29.091     8.845
    51   6 C        2.928    -0.036    28.901     8.816
    52   6 C        2.980    -0.013    28.344     8.733
    53   1 H        0.925     0.039     2.459     2.452
    54   1 H        0.925     0.031     2.569     2.507
    55   1 H        0.925     0.039     2.460     2.453
    56   1 H        0.925     0.031     2.570     2.507
    57   1 H        0.925     0.039     2.459     2.452
    58   1 H        0.925     0.039     2.461     2.453
    59   1 H        0.926     0.030     2.588     2.516
    60   1 H        0.926     0.027     2.634     2.538
    61   1 H        0.926     0.031     2.573     2.509
    62   1 H        0.926     0.027     2.634     2.538
    63   1 H        0.926     0.050     2.318     2.381
    64   1 H        0.926     0.038     2.469     2.457
    65   1 H        0.926     0.032     2.554     2.499
    66   1 H        0.926     0.041     2.442     2.444
    67   1 H        0.926     0.039     2.456     2.451
    68   1 H        0.926     0.036     2.497     2.471
    69   1 H        0.926     0.035     2.519     2.482
    70   1 H        0.926     0.034     2.535     2.490
    71   1 H        0.926     0.027     2.637     2.539
    72   1 H        0.926     0.033     2.539     2.492
    73   1 H        0.926     0.041     2.440     2.443
    74   1 H        0.926     0.040     2.447     2.446
    75   1 H        0.926     0.035     2.510     2.478
    76   1 H        0.926     0.034     2.525     2.485
    77   1 H        0.926     0.034     2.532     2.488
    78   1 H        0.926     0.051     2.308     2.376
    79   1 H        0.926     0.040     2.444     2.445
    80   1 H        0.926     0.050     2.315     2.379
    81   1 H        0.926     0.026     2.648     2.545
    82   1 H        0.926     0.030     2.581     2.512
    83   1 H        0.926     0.027     2.634     2.538
    84   1 H        0.926     0.030     2.587     2.515

molecular dipole:
                 x           y           z       tot (Debye)
 q only:       -1.137       0.071      -0.047
   full:       -1.212       0.092       0.059       3.094

 projected vibrational frequencies (cm⁻¹)
eigval :       -0.00    -0.00     0.00     0.00     0.00     0.00
eigval :        9.96    11.40    12.72    18.31    20.74    28.06
eigval :       33.92    38.12    42.39    58.00    60.52    69.67
eigval :       73.28    96.74   101.36   104.31   109.90   115.39
eigval :      125.54   127.89   128.73   142.45   162.89   172.16
eigval :      181.14   189.37   198.15   204.76   217.27   229.02
eigval :      231.72   238.20   251.57   252.07   270.68   285.49
eigval :      301.52   303.59   316.12   332.30   344.81   369.22
eigval :      375.09   380.86   382.62   390.88   395.20   401.00
eigval :      409.47   414.63   419.89   432.94   438.32   453.56
eigval :      477.08   478.33   480.45   490.46   492.18   493.31
eigval :      502.68   506.58   513.51   514.90   529.33   542.08
eigval :      547.48   555.36   569.77   574.98   579.57   588.32
eigval :      594.57   598.27   609.35   633.14   638.12   648.24
eigval :      667.89   672.38   675.55   683.11   694.00   701.18
eigval :      722.09   725.87   730.84   733.66   738.44   760.57
eigval :      765.96   778.11   778.52   779.41   780.03   801.64
eigval :      813.49   814.64   815.80   827.55   852.07   855.71
eigval :      867.77   869.88   869.95   872.27   879.96   896.35
eigval :      899.21   913.46   913.70   914.23   914.86   915.20
eigval :      918.19   919.37   922.13   922.87   923.41   924.38
eigval :      928.21   929.39   931.64   938.53   939.86   954.53
eigval :      957.22  1014.54  1019.21  1067.74  1077.15  1081.91
eigval :     1084.62  1086.18  1109.14  1115.46  1119.67  1120.22
eigval :     1126.10  1137.03  1141.92  1160.35  1166.90  1167.28
eigval :     1173.67  1177.93  1181.00  1184.26  1187.34  1188.34
eigval :     1189.04  1191.29  1209.19  1214.74  1221.33  1227.67
eigval :     1234.73  1245.73  1247.89  1249.96  1251.09  1260.01
eigval :     1265.96  1267.87  1270.50  1295.43  1309.59  1317.99
eigval :     1325.41  1332.38  1335.44  1337.78  1339.51  1340.34
eigval :     1359.69  1384.42  1388.54  1392.84  1394.72  1402.85
eigval :     1408.16  1409.91  1418.67  1420.12  1421.16  1435.94
eigval :     1442.37  1451.46  1457.74  1473.30  1479.18  1488.94
eigval :     1490.12  1491.02  1499.37  1500.78  1503.09  1505.36
eigval :     1509.50  1515.78  1557.39  1561.04  1565.11  1576.06
eigval :     1588.39  1591.34  1592.64  1593.19  1596.85  1602.64
eigval :     1609.53  1610.49  2357.90  2362.94  3026.53  3028.70
eigval :     3039.55  3042.25  3048.53  3052.44  3072.07  3072.61
eigval :     3074.44  3076.02  3076.37  3078.54  3079.45  3079.63
eigval :     3079.82  3080.60  3082.56  3084.16  3084.82  3085.17
eigval :     3085.39  3090.97  3092.67  3094.86  3095.27  3095.80
eigval :     3096.60  3098.95  3099.81  3103.13  3104.12  3137.81

   temp. (K)  partition function   enthalpy   heat capacity  entropy
                                   cal/mol     cal/K/mol   cal/K/mol   J/K/mol
 298.15  VIB  0.121E+21            25208.312    156.232    157.499
         ROT  0.111E+09              888.752      2.981     39.802
         INT  0.135E+29            26097.064    159.213    197.301
         TR   0.166E+29             1481.254      4.968     45.344
         TOT                       27578.3183   164.1814   242.6451  1015.2273

       T/K    H(0)-H(T)+PV         H(T)/Eh          T*S/Eh         G(T)/Eh
   ------------------------------------------------------------------------
    298.15    0.439488E-01    0.686297E+00    0.115289E+00    0.571008E+00
   ------------------------------------------------------------------------

         :::::::::::::::::::::::::::::::::::::::::::::::::::::
         ::                  THERMODYNAMIC                  ::
         :::::::::::::::::::::::::::::::::::::::::::::::::::::
         :: total free energy        -130.190240562678 Eh   ::
         ::.................................................::
         :: total energy             -130.761248653098 Eh   ::
         :: zero point energy           0.642347781804 Eh   ::
         :: G(RRHO) w/o ZPVE           -0.071339691384 Eh   ::
         :: G(RRHO) contrib.            0.571008090421 Eh   ::
         :::::::::::::::::::::::::::::::::::::::::::::::::::::

           -------------------------------------------------
          | TOTAL ENERGY             -130.761248653098 Eh   |
          | TOTAL ENTHALPY           -130.074952023606 Eh   |
          | TOTAL FREE ENERGY        -130.190240562678 Eh   |
          | GRADIENT NORM               0.000086810102 Eh/α |
          | HOMO-LUMO GAP               1.148352666760 eV   |
           -------------------------------------------------

 * finished run on 2025/09/10 at 21:34:21.889
