   * xtb version 6.7.1 (edcfbbe) compiled by 'albert@albert-system' on 2024-07-22

   ID    Z sym.   atoms
    1    6 C      1-9, 11-17, 19-29, 31-43, 45-52
    2    7 N      10, 18, 30, 44
    3    1 H      53-84

          program call               : xtb data2507/gas/Na-DMAC/Na-DMAC_gas_T1_crest.xyz --gfn 2 --spinpol --tblite --uhf 2 --ohess vtight --parallel 40 --molden --ceasefiles --namespace data2507/gas/Na-DMAC/Na-DMAC_gas_T1_finalOpt
 * total energy  :  -130.6926572 Eh     change        0.4847138E-07 Eh
 * total energy  :  -130.6926736 Eh     change       -0.1648670E-04 Eh
 * total energy  :  -130.6926794 Eh     change       -0.5746717E-05 Eh
 * total energy  :  -130.6926896 Eh     change       -0.1016521E-04 Eh
 * total energy  :  -130.6926923 Eh     change       -0.2730898E-05 Eh
 * total energy  :  -130.6926942 Eh     change       -0.1915744E-05 Eh
 * total energy  :  -130.6926931 Eh     change        0.1073051E-05 Eh
 * total energy  :  -130.6926960 Eh     change       -0.2892736E-05 Eh
 * total energy  :  -130.6926969 Eh     change       -0.9181723E-06 Eh
 * total energy  :  -130.6926987 Eh     change       -0.1777058E-05 Eh
 * total energy  :  -130.6927069 Eh     change       -0.4109301E-06 Eh
 * total energy  :  -130.6927074 Eh     change       -0.5111535E-06 Eh
 * total energy  :  -130.6927080 Eh     change       -0.6551388E-06 Eh
 * total energy  :  -130.6927087 Eh     change       -0.6802220E-06 Eh
 * total energy  :  -130.6927093 Eh     change       -0.5650423E-06 Eh
 * total energy  :  -130.6927095 Eh     change       -0.1818039E-06 Eh
 * total energy  :  -130.6927097 Eh     change       -0.2586230E-06 Eh
 * total energy  :  -130.6927099 Eh     change       -0.1755539E-06 Eh
 * total energy  :  -130.6927100 Eh     change       -0.9131409E-07 Eh
   *** GEOMETRY OPTIMIZATION CONVERGED AFTER 25 ITERATIONS ***

 final structure:
================
84
 xtb: 6.7.1 (edcfbbe)
C            8.42981582408460       -0.31178400050953       -1.19874263492470
C            7.58118917407867        0.23547569336796       -0.03542975115685
C            8.49410936500429        0.78482272260852        1.07709750068705
C            6.71767061848981        1.36460403485505       -0.55861433777595
C            7.31708376583551        2.48359781295491       -1.12035233836925
C            6.57546137245310        3.53341162161138       -1.62975707873436
C            5.19173271426730        3.47083918930686       -1.59408409484418
C            4.56872167805731        2.37375872785075       -1.04247736621818
C            5.31745258104384        1.31704346661064       -0.50728157572764
N            4.66717364970375        0.23250273726332        0.04993712948149
C            3.24461275977716        0.23350079411480        0.09478644138410
C            2.58257765506972        1.00449730938730        1.04175018388362
C            1.20282700951398        1.01213155625857        1.07795795120365
C            0.47171341543712        0.24213492936354        0.17837953884883
C           -0.99984705395909        0.24285165796110        0.22589897282126
C           -1.68151189297797       -0.98173308010532        0.31275347217043
C           -0.99323273859566       -2.16246714840307        0.58884662433072
N           -0.39761466987381       -3.11994109038939        0.83084312345864
C           -3.12106126636556       -0.93898317919521        0.25399854461711
C           -3.92602814332799       -2.15629708684764        0.30266793675322
C           -4.99983677628024       -2.19236295839031        1.17047477210368
C           -5.75237039824850       -3.35603724451643        1.33661172282878
C           -5.42811083790172       -4.49022817365109        0.64150121493375
C           -4.37668076416252       -4.48216386713830       -0.29807436629466
C           -4.07074574697268       -5.62617161453129       -1.06424611307369
C           -3.09421471654085       -5.59150555767795       -2.01959620540949
C           -2.40173045978082       -4.39945168451406       -2.26871367087857
C           -2.66484757557604       -3.27732602909957       -1.53158938730057
C           -3.62577477889045       -3.29315430128062       -0.50077156970243
N           -3.73649990759645        0.20600734497344        0.28226795108717
C           -3.15474570321579        1.40914913389510        0.27159330309494
C           -3.96589998994697        2.57673538034101        0.34419130382134
C           -3.42090811613643        3.78231655761360        0.83539761751319
C           -4.20030898022167        4.89856253960354        1.05051276851800
C           -5.55597611483734        4.87648119099160        0.77680803391998
C           -6.15715891908394        3.71001916866440        0.26319309945111
C           -7.53607584708595        3.67644166903037       -0.01730966911285
C           -8.12942005334655        2.55880426706181       -0.55841732748205
C           -7.35437881264048        1.44089508239224       -0.84363349078980
C           -5.99636111235204        1.45167103132005       -0.58522757630584
C           -5.36777497702898        2.55178960721459        0.00892461655793
C           -1.70286626262330        1.44182072286183        0.16840706084248
C           -0.98176131978907        2.59048234400074       -0.18037013960331
N           -0.32232646591013        3.47894730681271       -0.50394585877027
C            1.14255962783949       -0.53706778440883       -0.75918048757251
C            2.52202854701880       -0.53637039955757       -0.80781196188365
C            5.35107220440577       -0.85102777129648        0.56723053963727
C            4.63713199820942       -1.90976544350270        1.14423390328012
C            5.29349779879756       -3.00590536274044        1.65772985776080
C            6.67707531404754       -3.06535980778766        1.61286148406407
C            7.38550174762842       -2.01366113784603        1.06178723315685
C            6.75200910697111       -0.89573265361587        0.53653718663133
H            9.05330530986918        0.46928838343962       -1.62413319394788
H            9.07592553431780       -1.11701948016345       -0.86123997632042
H            7.78003897803224       -0.69753392883632       -1.98194641064557
H            7.88966048508199        1.16831798562544        1.89685546875076
H            9.11720869698935        1.59211695205692        0.70318064411622
H            9.14345846702271        0.00541486492216        1.46523753858234
H            8.39374153820381        2.54288440185678       -1.16558545520255
H            7.07387747430467        4.38978889347964       -2.05694202774855
H            4.59584787571227        4.27506041210489       -1.99681564401837
H            3.49136258946543        2.32938107941876       -1.02532978789082
H            3.15321941493832        1.59663721682661        1.74133794014115
H            0.68856696238878        1.60746075192679        1.81734975587136
H           -5.23493462514862       -1.30947732569154        1.74650365052092
H           -6.57654069031939       -3.35779056179700        2.03467134030913
H           -5.98346444864827       -5.40515137647580        0.79004375854721
H           -4.63559431138331       -6.53049759086740       -0.88722865503543
H           -2.86423245070683       -6.47268780817389       -2.60029425038708
H           -1.65967141029971       -4.36957753272496       -3.05298780207449
H           -2.14495162684350       -2.35861881456865       -1.76011468454776
H           -2.37645268454934        3.82119344166962        1.09895462441776
H           -3.74488366470858        5.79394485845052        1.44730224020983
H           -6.16414046516647        5.75410015747848        0.93660165816658
H           -8.12794685839225        4.55155295467347        0.21080237826528
H           -9.18897266135387        2.55186468458857       -0.76855280283046
H           -7.80779046858093        0.56580723024805       -1.28499836423150
H           -5.40591896365010        0.59044546156260       -0.85727460023447
H            0.58282039791053       -1.13407261750721       -1.46335151968035
H            3.04563860768655       -1.13275363891423       -1.53980518424325
H            3.56048397981991       -1.86775380704637        1.18981499531882
H            4.72370337069154       -3.81173705126722        2.09366111470214
H            7.20134014827862       -3.92082479313137        2.00985038471191
H            8.46308637927340       -2.07054685974825        1.04437743399467

 projected vibrational frequencies (cm⁻¹)
eigval :       -0.00    -0.00    -0.00    -0.00     0.00     0.00
eigval :        7.25    10.22    13.96    19.89    22.50    26.46
eigval :       28.38    37.18    40.08    58.07    60.52    65.86
eigval :       77.98    94.43   100.10   102.23   110.89   118.05
eigval :      127.02   128.28   129.72   148.24   162.76   172.87
eigval :      179.67   191.30   194.13   204.01   210.68   216.67
eigval :      230.79   236.45   244.67   259.35   263.43   291.11
eigval :      301.45   305.48   315.70   328.04   341.80   362.76
eigval :      374.25   377.42   382.60   389.64   399.25   400.15
eigval :      404.47   411.42   423.91   433.58   439.91   450.66
eigval :      455.60   461.84   479.09   481.76   494.04   496.43
eigval :      498.51   505.56   507.34   513.01   515.71   522.00
eigval :      541.76   543.92   549.01   567.58   573.28   582.13
eigval :      588.76   592.76   594.95   619.66   623.84   632.61
eigval :      632.93   656.69   667.47   675.44   686.10   697.25
eigval :      698.86   707.98   721.92   724.85   732.08   741.60
eigval :      759.41   767.25   772.67   776.02   776.14   777.68
eigval :      790.02   808.05   812.28   826.92   838.82   847.69
eigval :      852.03   854.00   866.60   871.83   872.34   875.67
eigval :      889.70   896.15   906.65   908.55   909.37   915.73
eigval :      915.91   916.00   916.73   917.29   920.92   922.51
eigval :      924.39   924.57   928.01   933.27   937.66   947.79
eigval :      957.78  1013.39  1017.35  1064.39  1075.93  1078.35
eigval :     1086.05  1087.73  1094.33  1109.39  1114.46  1120.83
eigval :     1122.09  1134.34  1135.10  1140.22  1153.36  1155.56
eigval :     1164.77  1169.92  1176.24  1180.44  1182.03  1184.87
eigval :     1185.52  1186.16  1193.08  1200.39  1208.53  1214.09
eigval :     1224.90  1229.36  1239.80  1245.75  1248.59  1251.56
eigval :     1260.83  1262.77  1265.58  1276.94  1294.20  1310.39
eigval :     1312.82  1314.34  1320.76  1327.15  1330.56  1334.10
eigval :     1336.27  1343.08  1364.20  1373.47  1384.38  1392.99
eigval :     1401.25  1402.07  1406.22  1413.49  1419.19  1419.47
eigval :     1425.43  1426.57  1431.63  1450.05  1459.88  1466.01
eigval :     1472.57  1481.30  1487.10  1487.75  1488.74  1497.70
eigval :     1501.50  1506.21  1507.81  1518.99  1550.57  1553.52
eigval :     1558.95  1563.92  1573.14  1577.65  1581.09  1590.71
eigval :     1595.86  1605.81  2283.55  2306.30  3029.67  3031.25
eigval :     3044.31  3046.74  3052.53  3056.21  3069.66  3069.79
eigval :     3073.40  3074.81  3077.15  3078.44  3082.55  3083.66
eigval :     3084.74  3086.24  3086.49  3086.76  3088.04  3088.75
eigval :     3091.60  3091.91  3092.85  3093.73  3093.90  3097.97
eigval :     3098.66  3101.94  3102.17  3111.69  3112.03  3115.36

   temp. (K)  partition function   enthalpy   heat capacity  entropy
                                   cal/mol     cal/K/mol   cal/K/mol   J/K/mol
 298.15  VIB  0.235E+21            25444.612    157.742    158.923
         ROT  0.111E+09              888.752      2.981     39.789
         INT  0.260E+29            26333.364    160.723    198.712
         TR   0.166E+29             1481.254      4.968     45.344
         TOT                       27814.6183   165.6915   244.0561  1021.1309

       T/K    H(0)-H(T)+PV         H(T)/Eh          T*S/Eh         G(T)/Eh
   ------------------------------------------------------------------------
    298.15    0.443254E-01    0.682547E+00    0.115959E+00    0.566589E+00
   ------------------------------------------------------------------------

         :::::::::::::::::::::::::::::::::::::::::::::::::::::
         ::                  THERMODYNAMIC                  ::
         :::::::::::::::::::::::::::::::::::::::::::::::::::::
         :: total free energy        -130.126121537179 Eh   ::
         ::.................................................::
         :: total energy             -130.692710053557 Eh   ::
         :: zero point energy           0.638222052400 Eh   ::
         :: G(RRHO) w/o ZPVE           -0.071633536022 Eh   ::
         :: G(RRHO) contrib.            0.566588516378 Eh   ::
         :::::::::::::::::::::::::::::::::::::::::::::::::::::

           -------------------------------------------------
          | TOTAL ENERGY             -130.692710053557 Eh   |
          | TOTAL ENTHALPY           -130.010162585512 Eh   |
          | TOTAL FREE ENERGY        -130.126121537179 Eh   |
          | GRADIENT NORM               0.000103182939 Eh/α |
           -------------------------------------------------

 * finished run on 2025/09/10 at 21:48:40.725
