   * xtb version 6.7.1 (edcfbbe) compiled by 'albert@albert-system' on 2024-07-22

   ID    Z sym.   atoms
    1    6 C      1-5, 7-13, 15-19, 21-29, 31-53, 55, 56
    2    7 N      6, 14, 20, 30, 54
    3    1 H      57-89

          program call               : xtb data2507/toluene/1PCTRz/1PCTRz_toluene_S0_crest.xyz --gfn 2 --gbsa toluene --ohess vtight --parallel 40 --molden --ceasefiles --namespace data2507/toluene/1PCTRz/1PCTRz_toluene_S0_finalOpt
      * Solvation model:               GBSA
        Solvent                        toluene
        Solvent mass                       9.2140E+01 g/mol
          :  Hamiltonian                  GFN2-xTB          :
 * total energy  :  -140.8025039 Eh     change       -0.1767717E-08 Eh
 * total energy  :  -140.8025627 Eh     change       -0.5888465E-04 Eh
 * total energy  :  -140.8026051 Eh     change       -0.4239178E-04 Eh
 * total energy  :  -140.8026358 Eh     change       -0.3062477E-04 Eh
 * total energy  :  -140.8026624 Eh     change       -0.2664400E-04 Eh
 * total energy  :  -140.8027148 Eh     change       -0.5242689E-04 Eh
 * total energy  :  -140.8027387 Eh     change       -0.2381579E-04 Eh
 * total energy  :  -140.8027551 Eh     change       -0.1647521E-04 Eh
 * total energy  :  -140.8027663 Eh     change       -0.1112367E-04 Eh
 * total energy  :  -140.8027764 Eh     change       -0.1011042E-04 Eh
 * total energy  :  -140.8030173 Eh     change       -0.1091276E-05 Eh
 * total energy  :  -140.8030181 Eh     change       -0.7289039E-06 Eh
 * total energy  :  -140.8030188 Eh     change       -0.6877840E-06 Eh
 * total energy  :  -140.8030195 Eh     change       -0.7348033E-06 Eh
 * total energy  :  -140.8030203 Eh     change       -0.7588868E-06 Eh
 * total energy  :  -140.8030210 Eh     change       -0.7306755E-06 Eh
 * total energy  :  -140.8030218 Eh     change       -0.8389069E-06 Eh
 * total energy  :  -140.8030226 Eh     change       -0.7649299E-06 Eh
 * total energy  :  -140.8030226 Eh     change       -0.7765152E-08 Eh
   *** GEOMETRY OPTIMIZATION CONVERGED AFTER 94 ITERATIONS ***

 final structure:
================
89
 xtb: 6.7.1 (edcfbbe)
C           -7.24403075508812        5.33725794727089       -0.84154279881258
C           -5.94039107328052        4.94945561700257       -1.11201159903642
C           -5.52394679301599        3.66564337047345       -0.81675534203040
C           -6.41364056821001        2.75538942585008       -0.24706403756710
C           -5.97490828916805        1.39551464647783        0.06702865365428
N           -6.86573053962050        0.55293374517402        0.58427775332395
C           -6.42461671111167       -0.67449451908091        0.84909861826050
C           -7.36762586154667       -1.63556540483687        1.42154955558143
C           -8.68396761682666       -1.25742753948553        1.68341554216256
C           -9.57127629698685       -2.16619782728418        2.22718564513967
C           -9.15532809956023       -3.45736438822597        2.51516681782250
C           -7.84781735364839       -3.83997212070856        2.25627879216946
C           -6.95582982030234       -2.93562802096266        1.71287783173173
N           -5.17662351719732       -1.08057944259241        0.62659822679343
C           -4.35168433875379       -0.17143757099043        0.11356383271236
C           -2.96684493702506       -0.56607879940544       -0.13880673315401
C           -2.53293223836493       -1.85754348137625        0.15871182827987
C           -1.22031086894282       -2.21001653192959       -0.06993478195088
C           -0.31992787774540       -1.29105408018608       -0.60577091025476
N            1.01368617187350       -1.67935956265547       -0.79603504410913
C            1.43460371764193       -2.75812086885951       -1.55007137737912
C            0.68479997984334       -3.67213053024441       -2.27672206050173
C            1.36487911975516       -4.65292998703292       -2.97381801846745
C            2.75682800434283       -4.72294854586773       -2.96030372095752
C            3.50847496807128       -3.80247077454919       -2.25688901984540
C            2.84739932353407       -2.80757555588570       -1.54746836982196
C            3.29107537847890       -1.70675283107955       -0.73784534911477
C            4.54507041844469       -1.25241996536617       -0.35679311534417
C            4.62253190276181       -0.15219220687449        0.48404166022031
N            5.87890191870557        0.32662665036927        0.89869941230055
C            6.87211381745376       -0.42384172040419        1.49216189376743
C            6.87491755544658       -1.76724838036769        1.84243883920326
C            8.00628692343593       -2.27294672324146        2.45322624402526
C            9.11183979685037       -1.46658853656622        2.71914192977180
C            9.10762207664516       -0.12526963635618        2.39160141311059
C            7.98146797125993        0.40728570588616        1.77633450976274
C            7.62964028646046        1.72379222858028        1.32314360803932
C            8.29414073154521        2.94395901975925        1.31323360988526
C            7.65632134386938        4.04105491847931        0.76923631614865
C            6.37576275422497        3.93147185330814        0.22924139439703
C            5.69377785668165        2.73003501838422        0.22806228947041
C            6.32236781113146        1.62756715657765        0.79071048776807
C            3.46159844266612        0.47963163428570        0.94623897601613
C            2.20825176333281        0.04693884593098        0.56619973913781
C            2.12678442772638       -1.03790136043345       -0.29508182873842
C           -0.74787640725586        0.00580265629048       -0.93347900689079
C            0.15387328162922        0.99159462541975       -1.55902687152595
C            0.20972892253763        2.29510493769263       -1.07199048567599
C            1.04886264169665        3.22699578503608       -1.65440488271812
C            1.83780940077544        2.87206832521424       -2.73612988113889
C            1.77685396783580        1.58241238528385       -3.23734655143525
C            0.93976431732794        0.64787586038855       -2.65591125113783
C           -2.06851794354120        0.34870446876542       -0.68101880534474
N           -4.70683607261541        1.07659506488124       -0.18082610906273
C           -7.72344391499625        3.15104985306548        0.02127273530776
C           -8.13378733304550        4.43648573140595       -0.27586924274073
H           -7.56702189420301        6.34157845635839       -1.07247196460482
H           -5.24808674098109        5.65084316242369       -1.55370235537542
H           -4.51375483339022        3.34678209479843       -1.02123046866464
H           -8.99025516051905       -0.24885933464177        1.45363565651454
H          -10.58973041222246       -1.86860151610079        2.42828836858892
H           -9.85047916023823       -4.16583649423034        2.94074852631176
H           -7.52443691372286       -4.84580338706808        2.48003374057325
H           -5.93489817923218       -3.21594967355595        1.50583639353993
H           -3.23278525302634       -2.56254383011156        0.57766483984625
H           -0.86965670806109       -3.19992819221464        0.18167477347051
H           -0.39321583832720       -3.61656261760186       -2.30271677140861
H            0.80474725824108       -5.37948701189536       -3.54396292693675
H            3.25057080194689       -5.50643936277486       -3.51591949436535
H            4.58703371593164       -3.84873461361377       -2.25812671261180
H            5.44269671804502       -1.73951339801653       -0.70521885523998
H            6.01727470509366       -2.39529636453017        1.65278376013819
H            8.03416251781577       -3.31595890739107        2.73406087525681
H            9.97905104790975       -1.90000480927826        3.19580189450363
H            9.95958999856149        0.50138382282294        2.61050566644061
H            9.29096661646367        3.02764182304048        1.72036432573849
H            8.15581985799710        4.99884875745693        0.75378485266023
H            5.90785555422754        4.80540311746741       -0.20061533839428
H            4.70719308548097        2.64850549788978       -0.20221333888371
H            3.55887761482321        1.31234079280614        1.62636965021763
H            1.32161443383003        0.53196611490744        0.94232246154259
H           -0.39641652676689        2.57071327882847       -0.22060554404945
H            1.08905963411266        4.23259347331172       -1.26151021575533
H            2.49715850221537        3.59849053905445       -3.18799951193035
H            2.38305111667673        1.30174644397014       -4.08621482257309
H            0.88378039414559       -0.34912590780854       -3.06797539721371
H           -2.42547145031165        1.33547494781546       -0.93144254358782
H           -8.40169277337300        2.43700581420868        0.46177365232941
H           -9.14914127099768        4.73873188079323       -0.06624980353163

          :  Hamiltonian                  GFN2-xTB          :
         :: gradient norm              0.000069563436 Eh/a0 ::
         :: HOMO-LUMO gap              1.635858988942 eV    ::
         :: SCC energy              -143.421542463743 Eh    ::
         :: -> dispersion             -0.128205822950 Eh    ::
         :: -> Gsolv                  -0.062499347662 Eh    ::
         :: repulsion energy           2.618519861407 Eh    ::

    * Orbital Energies and Occupations

         #    Occupation            Energy/Eh            Energy/eV
      -------------------------------------------------------------
         1        2.0000           -0.6918993             -18.8275
       ...           ...                  ...                  ...
       119        2.0000           -0.4153005             -11.3009
       120        2.0000           -0.4143067             -11.2739
       121        2.0000           -0.4134940             -11.2517
       122        2.0000           -0.4115790             -11.1996
       123        2.0000           -0.4099048             -11.1541
       124        2.0000           -0.4027171             -10.9585
       125        2.0000           -0.3986848             -10.8488
       126        2.0000           -0.3862505             -10.5104
       127        2.0000           -0.3822448             -10.4014
       128        2.0000           -0.3816981             -10.3865
       129        2.0000           -0.3760326             -10.2324
       130        2.0000           -0.3741132             -10.1801
       131        2.0000           -0.3563787              -9.6976 (HOMO)
       132                         -0.2962620              -8.0617 (LUMO)
       133                         -0.2943625              -8.0100
       134                         -0.2578375              -7.0161
       135                         -0.2531156              -6.8876
       136                         -0.2498589              -6.7990
       137                         -0.2430289              -6.6132
       138                         -0.2344281              -6.3791
       139                         -0.2344085              -6.3786
       140                         -0.2316238              -6.3028
       141                         -0.2273115              -6.1855
       142                         -0.2218682              -6.0373
       ...                                ...                  ...
       257                          0.7472047              20.3325
      -------------------------------------------------------------
                  HL-Gap            0.0601167 Eh            1.6359 eV

     #   Z          covCN         q      C6AA      α(0)
     1   6 C        2.920    -0.022    28.555     8.763
     2   6 C        2.918    -0.027    28.680     8.782
     3   6 C        2.923    -0.026    28.648     8.777
     4   6 C        2.983    -0.010    28.255     8.719
     5   6 C        2.979     0.217    23.426     7.939
     6   7 N        1.844    -0.322    29.213     8.010
     7   6 C        2.979     0.217    23.428     7.940
     8   6 C        2.983    -0.010    28.255     8.719
     9   6 C        2.923    -0.026    28.647     8.777
    10   6 C        2.918    -0.027    28.679     8.782
    11   6 C        2.920    -0.022    28.555     8.763
    12   6 C        2.918    -0.027    28.680     8.782
    13   6 C        2.923    -0.026    28.651     8.778
    14   7 N        1.844    -0.323    29.218     8.011
    15   6 C        2.981     0.217    23.430     7.940
    16   6 C        2.981    -0.012    28.317     8.729
    17   6 C        2.922    -0.028    28.697     8.785
    18   6 C        2.920    -0.041    29.026     8.835
    19   6 C        2.915     0.064    26.563     8.451
    20   7 N        2.803    -0.036    21.931     6.955
    21   6 C        3.077     0.047    26.874     8.499
    22   6 C        2.909    -0.051    29.260     8.870
    23   6 C        2.924    -0.033    28.815     8.803
    24   6 C        2.920    -0.040    29.002     8.831
    25   6 C        2.912    -0.032    28.808     8.801
    26   6 C        3.067    -0.016    28.334     8.728
    27   6 C        3.068    -0.015    28.315     8.725
    28   6 C        2.915    -0.047    29.156     8.854
    29   6 C        2.913     0.053    26.807     8.490
    30   7 N        2.803    -0.047    22.145     6.989
    31   6 C        3.078     0.047    26.859     8.497
    32   6 C        2.909    -0.052    29.301     8.876
    33   6 C        2.924    -0.036    28.887     8.814
    34   6 C        2.919    -0.044    29.087     8.844
    35   6 C        2.912    -0.035    28.883     8.813
    36   6 C        3.068    -0.020    28.429     8.743
    37   6 C        3.067    -0.020    28.430     8.743
    38   6 C        2.912    -0.036    28.884     8.813
    39   6 C        2.919    -0.044    29.087     8.844
    40   6 C        2.924    -0.036    28.885     8.814
    41   6 C        2.909    -0.052    29.291     8.874
    42   6 C        3.078     0.047    26.860     8.497
    43   6 C        2.927    -0.045    29.129     8.851
    44   6 C        2.909    -0.048    29.194     8.860
    45   6 C        3.075     0.045    26.917     8.506
    46   6 C        2.975     0.003    27.964     8.674
    47   6 C        2.977     0.012    27.748     8.641
    48   6 C        2.925    -0.033    28.815     8.803
    49   6 C        2.918    -0.029    28.716     8.788
    50   6 C        2.920    -0.029    28.729     8.790
    51   6 C        2.919    -0.029    28.720     8.788
    52   6 C        2.924    -0.031    28.771     8.796
    53   6 C        2.930    -0.031    28.781     8.798
    54   7 N        1.844    -0.323    29.219     8.011
    55   6 C        2.923    -0.026    28.647     8.777
    56   6 C        2.918    -0.027    28.679     8.782
    57   1 H        0.926     0.050     2.322     2.383
    58   1 H        0.926     0.048     2.350     2.397
    59   1 H        0.926     0.050     2.316     2.380
    60   1 H        0.926     0.050     2.314     2.379
    61   1 H        0.926     0.047     2.352     2.398
    62   1 H        0.926     0.050     2.322     2.383
    63   1 H        0.926     0.048     2.351     2.398
    64   1 H        0.926     0.051     2.313     2.378
    65   1 H        0.926     0.058     2.226     2.333
    66   1 H        0.926     0.056     2.252     2.347
    67   1 H        0.926     0.031     2.572     2.508
    68   1 H        0.926     0.035     2.522     2.483
    69   1 H        0.926     0.033     2.542     2.493
    70   1 H        0.926     0.036     2.504     2.475
    71   1 H        0.926     0.044     2.391     2.418
    72   1 H        0.926     0.029     2.605     2.524
    73   1 H        0.926     0.029     2.605     2.524
    74   1 H        0.926     0.026     2.639     2.540
    75   1 H        0.926     0.029     2.606     2.524
    76   1 H        0.926     0.029     2.606     2.525
    77   1 H        0.926     0.027     2.636     2.539
    78   1 H        0.926     0.029     2.600     2.521
    79   1 H        0.926     0.028     2.610     2.526
    80   1 H        0.926     0.042     2.418     2.432
    81   1 H        0.926     0.036     2.509     2.477
    82   1 H        0.926     0.035     2.522     2.484
    83   1 H        0.926     0.038     2.476     2.461
    84   1 H        0.926     0.037     2.486     2.465
    85   1 H        0.926     0.036     2.501     2.473
    86   1 H        0.926     0.031     2.575     2.509
    87   1 H        0.926     0.059     2.216     2.328
    88   1 H        0.926     0.050     2.315     2.379
    89   1 H        0.926     0.047     2.352     2.398

molecular dipole:
                 x           y           z       tot (Debye)
 q only:       -1.096      -0.042      -0.325
   full:       -1.250      -0.050      -0.316       3.279

 projected vibrational frequencies (cm⁻¹)
eigval :       -0.00    -0.00    -0.00    -0.00    -0.00     0.00
eigval :        9.46    10.67    12.86    14.98    20.11    23.61
eigval :       29.80    32.64    36.84    41.92    50.92    56.75
eigval :       63.62    73.52    86.15    92.50    98.02    99.10
eigval :      107.78   114.60   137.90   140.92   148.89   152.26
eigval :      157.01   181.51   190.78   194.57   206.47   218.87
eigval :      244.95   253.78   261.72   270.64   272.90   280.57
eigval :      293.89   301.78   333.92   359.81   364.28   365.06
eigval :      370.37   376.32   386.97   397.18   400.15   402.04
eigval :      409.03   421.94   424.54   426.94   435.63   438.10
eigval :      449.70   460.49   476.56   517.27   520.07   529.94
eigval :      537.88   540.70   542.09   547.20   557.98   562.49
eigval :      585.39   586.92   587.23   587.74   589.12   599.30
eigval :      612.68   618.98   622.51   628.16   628.79   649.58
eigval :      650.62   668.12   673.65   673.96   679.17   681.17
eigval :      681.71   703.86   707.74   708.14   723.56   751.18
eigval :      752.41   754.75   763.19   769.31   773.88   775.27
eigval :      780.47   793.46   795.41   821.46   842.27   846.77
eigval :      866.21   871.80   872.52   872.76   875.28   878.37
eigval :      879.53   880.74   890.74   894.73   897.38   901.15
eigval :      902.79   903.12   908.46   909.64   911.08   911.58
eigval :      919.97   922.45   922.82   926.20   928.38   929.34
eigval :      932.06   932.38   933.17   934.20   936.18   967.27
eigval :      971.88   984.65   989.38  1011.28  1027.07  1044.34
eigval :     1049.38  1068.28  1070.38  1071.81  1074.07  1074.83
eigval :     1084.00  1090.69  1105.55  1107.64  1111.11  1117.65
eigval :     1122.87  1139.00  1149.62  1151.96  1165.14  1167.02
eigval :     1171.25  1175.95  1177.02  1177.58  1179.95  1180.68
eigval :     1181.96  1189.00  1192.25  1199.92  1202.19  1205.86
eigval :     1221.60  1228.54  1234.88  1238.33  1244.42  1265.07
eigval :     1266.71  1271.41  1278.39  1281.70  1294.60  1303.18
eigval :     1305.22  1315.42  1321.76  1325.94  1327.78  1338.58
eigval :     1345.70  1356.03  1357.74  1360.82  1364.22  1367.79
eigval :     1370.91  1387.17  1410.28  1420.84  1424.49  1427.39
eigval :     1428.73  1429.86  1430.93  1438.26  1462.80  1469.58
eigval :     1471.87  1475.50  1476.05  1487.37  1487.89  1490.10
eigval :     1505.74  1509.61  1555.14  1566.94  1572.28  1577.67
eigval :     1581.20  1582.20  1583.65  1584.68  1587.24  1592.35
eigval :     1592.92  1596.40  1597.39  1598.64  1611.97  1613.69
eigval :     3069.63  3069.79  3070.44  3073.75  3074.85  3074.93
eigval :     3075.96  3078.06  3078.32  3078.72  3080.50  3082.73
eigval :     3083.03  3083.18  3084.41  3084.89  3086.69  3089.67
eigval :     3090.24  3091.51  3091.97  3092.57  3092.78  3093.07
eigval :     3094.36  3097.22  3102.75  3104.31  3105.35  3105.96
eigval :     3106.35  3106.80  3112.59

   temp. (K)  partition function   enthalpy   heat capacity  entropy
                                   cal/mol     cal/K/mol   cal/K/mol   J/K/mol
 298.15  VIB  0.174E+22            25748.942    160.517    161.797
         ROT  0.156E+09              888.752      2.981     40.477
         INT  0.272E+30            26637.695    163.498    202.274
         TR   0.185E+29             1481.254      4.968     45.564
         TOT                       28118.9486   168.4659   247.8388  1036.9574

       T/K    H(0)-H(T)+PV         H(T)/Eh          T*S/Eh         G(T)/Eh
   ------------------------------------------------------------------------
    298.15    0.448104E-01    0.722625E+00    0.117756E+00    0.604869E+00
   ------------------------------------------------------------------------

         :::::::::::::::::::::::::::::::::::::::::::::::::::::
         ::                  THERMODYNAMIC                  ::
         :::::::::::::::::::::::::::::::::::::::::::::::::::::
         :: total free energy        -140.198153568591 Eh   ::
         ::.................................................::
         :: total energy             -140.803022606658 Eh   ::
         :: zero point energy           0.677814832655 Eh   ::
         :: G(RRHO) w/o ZPVE           -0.072945794587 Eh   ::
         :: G(RRHO) contrib.            0.604869038067 Eh   ::
         :::::::::::::::::::::::::::::::::::::::::::::::::::::

           -------------------------------------------------
          | TOTAL ENERGY             -140.803022606658 Eh   |
          | TOTAL ENTHALPY           -140.080397377043 Eh   |
          | TOTAL FREE ENERGY        -140.198153568591 Eh   |
          | GRADIENT NORM               0.000069549957 Eh/α |
          | HOMO-LUMO GAP               1.635859028747 eV   |
           -------------------------------------------------

 * finished run on 2025/09/13 at 07:55:18.093
