   * xtb version 6.7.1 (edcfbbe) compiled by 'albert@albert-system' on 2024-07-22

   ID    Z sym.   atoms
    1    6 C      1-5, 7-13, 15-19, 21-29, 31-53, 55, 56
    2    7 N      6, 14, 20, 30, 54
    3    1 H      57-89

          program call               : xtb data2507/toluene/1PCTRz/1PCTRz_toluene_S0_finalOpt.xtbopt.xyz --gfn 2 --uhf 2 --gbsa toluene --ohess vtight --parallel 40 --molden --ceasefiles --namespace data2507/toluene/1PCTRz/1PCTRz_toluene_T1_preOpt
      * Solvation model:               GBSA
        Solvent                        toluene
        Solvent mass                       9.2140E+01 g/mol
          :  Hamiltonian                  GFN2-xTB          :
 * total energy  :  -140.7223634 Eh     change        0.3435616E-08 Eh
 * total energy  :  -140.7242983 Eh     change       -0.1934942E-02 Eh
 * total energy  :  -140.7252431 Eh     change       -0.9447912E-03 Eh
 * total energy  :  -140.7254018 Eh     change       -0.1586785E-03 Eh
 * total energy  :  -140.7255704 Eh     change       -0.1685781E-03 Eh
 * total energy  :  -140.7256043 Eh     change       -0.3388341E-04 Eh
 * total energy  :  -140.7256220 Eh     change       -0.1769906E-04 Eh
 * total energy  :  -140.7256280 Eh     change       -0.6092908E-05 Eh
 * total energy  :  -140.7256370 Eh     change       -0.8917692E-05 Eh
 * total energy  :  -140.7256501 Eh     change       -0.1312459E-04 Eh
 * total energy  :  -140.7257306 Eh     change       -0.1488970E-06 Eh
 * total energy  :  -140.7257308 Eh     change       -0.1666058E-06 Eh
 * total energy  :  -140.7257311 Eh     change       -0.3360043E-06 Eh
 * total energy  :  -140.7257314 Eh     change       -0.2882483E-06 Eh
 * total energy  :  -140.7257317 Eh     change       -0.2635537E-06 Eh
 * total energy  :  -140.7257319 Eh     change       -0.2674858E-06 Eh
 * total energy  :  -140.7257322 Eh     change       -0.2315897E-06 Eh
 * total energy  :  -140.7257323 Eh     change       -0.1247106E-06 Eh
 * total energy  :  -140.7257323 Eh     change       -0.5284383E-07 Eh
   *** GEOMETRY OPTIMIZATION CONVERGED AFTER 42 ITERATIONS ***

 final structure:
================
89
 xtb: 6.7.1 (edcfbbe)
C           -7.25579696402996        5.35342179113493       -0.86084168592843
C           -5.95535081322055        4.96340553855037       -1.14876896297162
C           -5.53176617253365        3.68414673671409       -0.85108439664777
C           -6.40837819865390        2.77210091508898       -0.25940849800626
C           -5.96543679999270        1.41884204045381        0.05823197427748
N           -6.86590074379211        0.57018723658889        0.59552755700388
C           -6.41656025689984       -0.67080332078649        0.87466563269015
C           -7.35931103466875       -1.62428051775738        1.44937194020596
C           -8.68072619817018       -1.24795240605581        1.69750971663460
C           -9.57193452899610       -2.15178042264816        2.24113312401522
C           -9.16017342399225       -3.44079257687096        2.54536172267114
C           -7.84844862781228       -3.82288030640128        2.30129643744627
C           -6.95287012068445       -2.92415882761166        1.75848395868014
N           -5.18318295612150       -1.05763273183864        0.66048001147018
C           -4.31715178917944       -0.16793808929948        0.11452398156035
C           -2.97259861172589       -0.55399905049627       -0.13138773197907
C           -2.51801140889433       -1.85673413993860        0.17370137775640
C           -1.21568905639204       -2.20972428872907       -0.06031919935044
C           -0.30995009908215       -1.29435041023195       -0.61014053801532
N            1.02719793845045       -1.68323792188930       -0.79667998571177
C            1.44756200643600       -2.76203397612505       -1.54953750894344
C            0.69429827490856       -3.67204436536373       -2.27808405178296
C            1.37221768223190       -4.66237656439373       -2.96637410677361
C            2.76257106300778       -4.74466531628148       -2.93829580743198
C            3.51930304895765       -3.82816596263691       -2.22905582482498
C            2.86137387017611       -2.82488066049810       -1.53280843514423
C            3.30256416315503       -1.72457883659807       -0.71808076378443
C            4.54863250244480       -1.27061915832056       -0.32913422071428
C            4.62050582408298       -0.15383758814978        0.50191843686348
N            5.86570087065334        0.32703520312156        0.91182229194550
C            6.89557968994318       -0.43656333904075        1.42853490535443
C            6.93286389969951       -1.79542377197048        1.71347057703758
C            8.09175459641124       -2.30709643283901        2.26887345419178
C            9.18580312549229       -1.49183551849344        2.54637900047236
C            9.14357819337832       -0.13178124235518        2.29244530712275
C            7.99250741394796        0.40285485398501        1.73441146036103
C            7.59607829354563        1.73992429180212        1.37464847889508
C            8.23750738292369        2.96830560413334        1.41819216802851
C            7.56013198426574        4.08475686316202        0.95902425076198
C            6.27013986046384        3.98013960998966        0.44522459499550
C            5.61134362363643        2.76515707526486        0.39033576282445
C            6.27487904778396        1.64649725796081        0.87743671417215
C            3.45085837312040        0.48495440904052        0.94801495283856
C            2.20415905584848        0.04201223415364        0.57042309295268
C            2.12781581626412       -1.05407191565695       -0.28454152435226
C           -0.74355225109465        0.00678893009470       -0.94495802663359
C            0.15843366342261        0.97474268387383       -1.59551897583959
C            0.22789083004139        2.28699582014250       -1.13302106014726
C            1.06849460826898        3.20299789256113       -1.73777441531624
C            1.85037685969268        2.82399439902233       -2.81673570927504
C            1.77732518342038        1.52591932320924       -3.29403560013916
C            0.93637045981493        0.60849286467780       -2.69130265461000
C           -2.05287003018973        0.35502641871750       -0.69088830722078
N           -4.72281034682984        1.08927471282994       -0.19388327459412
C           -7.71527304807121        3.17181149674166        0.02599134291528
C           -8.13274268515215        4.45346673763001       -0.27376753876130
H           -7.58453694833783        6.35528159163637       -1.09459015728275
H           -5.27137484138423        5.66274705109842       -1.60758520303166
H           -4.52381415566365        3.36599729462093       -1.07054771813036
H           -8.98600899843838       -0.24139470502283        1.45521858551451
H          -10.59270969343643       -1.85207644092344        2.42980259911931
H           -9.85883564085335       -4.14611709986109        2.97053948788047
H           -7.52615935745961       -4.82686572583272        2.53699862636242
H           -5.92944744723984       -3.20660838272904        1.56354113872299
H           -3.21643636374180       -2.55718097652373        0.60397936700809
H           -0.86249478280911       -3.19698986432096        0.20168676273821
H           -0.38256529582920       -3.60473290881148       -2.30899606832762
H            0.81070890000153       -5.38492885660235       -3.53958698451394
H            3.25469358325544       -5.53373205791900       -3.48688552484406
H            4.59679846350978       -3.88818420273364       -2.22066249633570
H            5.44868682100767       -1.74947370721707       -0.68115916576317
H            6.08233006564774       -2.43217931134178        1.52554347346978
H            8.14645390862866       -3.36117435318902        2.49684275682809
H           10.07416029015948       -1.92797936886959        2.97822056234065
H            9.98468949132548        0.50185318652228        2.52872980312396
H            9.24458050937723        3.04912322898866        1.79773717699523
H            8.04080094548499        5.05121789441181        0.98829890851958
H            5.77396395199598        4.86571728631107        0.07708313649306
H            4.62006433128437        2.69070766772141       -0.02833295345798
H            3.54021975065114        1.31637369973231        1.62976352194534
H            1.31098467779632        0.51896866510098        0.94051687966023
H           -0.37492053772077        2.58165183805414       -0.28548862306419
H            1.11505459481408        4.21597333718543       -1.36428189802126
H            2.51018387150201        3.53861977078155       -3.28660703592564
H            2.37483848850416        1.22640820820058       -4.14295415904460
H            0.86725387508009       -0.39420824028647       -3.08811206321941
H           -2.41173296215407        1.33835292092611       -0.95453873307412
H           -8.38532962384452        2.45977195912067        0.48334335088212
H           -9.14580992010086        4.75461533938376       -0.04925345824259

          :  Hamiltonian                  GFN2-xTB          :
         :: gradient norm              0.000134291450 Eh/a0 ::
         :: HOMO-LUMO gap              0.158157132443 eV    ::
         :: SCC energy              -143.334510606881 Eh    ::
         :: -> dispersion             -0.127987647733 Eh    ::
         :: -> Gsolv                  -0.068145008687 Eh    ::
         :: repulsion energy           2.608778257677 Eh    ::

    * Orbital Energies and Occupations

         #    Occupation            Energy/Eh            Energy/eV
      -------------------------------------------------------------
         1        2.0000           -0.6916134             -18.8198
       ...           ...                  ...                  ...
       120        2.0000           -0.4078058             -11.0970
       121        2.0000           -0.4074671             -11.0877
       122        2.0000           -0.4039524             -10.9921
       123        2.0000           -0.4015829             -10.9276
       124        2.0000           -0.3993276             -10.8663
       125        2.0000           -0.3953778             -10.7588
       126        2.0000           -0.3911761             -10.6444
       127        2.0000           -0.3899087             -10.6100
       128        2.0000           -0.3810727             -10.3695
       129        1.8408           -0.3679334             -10.0120
       130        1.7641           -0.3674694              -9.9994
       131        1.3951           -0.3659481              -9.9580
       132        0.9552           -0.2821934              -7.6789 (HOMO)
       133        0.0448           -0.2763805              -7.5207 (LUMO)
       134                         -0.2606698              -7.0932
       135                         -0.2558947              -6.9632
       136                         -0.2464767              -6.7070
       137                         -0.2416965              -6.5769
       138                         -0.2381286              -6.4798
       139                         -0.2335675              -6.3557
       140                         -0.2254729              -6.1354
       141                         -0.2247696              -6.1163
       142                         -0.2246914              -6.1142
       143                         -0.2173290              -5.9138
       ...                                ...                  ...
       257                          0.7331321              19.9495
      -------------------------------------------------------------
                  HL-Gap            0.0058129 Eh            0.1582 eV

     #   Z          covCN         q      C6AA      α(0)
     1   6 C        2.920    -0.030    28.758     8.794
     2   6 C        2.918    -0.031    28.765     8.795
     3   6 C        2.923    -0.031    28.776     8.797
     4   6 C        2.983    -0.010    28.269     8.721
     5   6 C        2.934     0.210    23.571     7.962
     6   7 N        1.843    -0.345    29.820     8.093
     7   6 C        2.934     0.210    23.573     7.963
     8   6 C        2.983    -0.010    28.270     8.722
     9   6 C        2.924    -0.031    28.764     8.795
    10   6 C        2.917    -0.030    28.761     8.794
    11   6 C        2.920    -0.030    28.757     8.794
    12   6 C        2.918    -0.031    28.765     8.795
    13   6 C        2.923    -0.031    28.779     8.797
    14   7 N        1.845    -0.303    28.698     7.939
    15   6 C        2.937     0.171    24.316     8.087
    16   6 C        2.975    -0.019    28.486     8.755
    17   6 C        2.920    -0.044    29.094     8.845
    18   6 C        2.915    -0.044    29.087     8.844
    19   6 C        2.915     0.030    27.325     8.572
    20   7 N        2.801    -0.007    21.384     6.868
    21   6 C        3.085     0.047    26.857     8.495
    22   6 C        2.909    -0.042    29.032     8.835
    23   6 C        2.923    -0.030    28.751     8.793
    24   6 C        2.920    -0.034    28.855     8.809
    25   6 C        2.912    -0.029    28.714     8.787
    26   6 C        3.064    -0.013    28.270     8.719
    27   6 C        3.068    -0.010    28.185     8.705
    28   6 C        2.914    -0.042    29.046     8.838
    29   6 C        2.913     0.057    26.731     8.478
    30   7 N        2.802    -0.012    21.492     6.885
    31   6 C        3.071     0.046    26.902     8.505
    32   6 C        2.909    -0.044    29.096     8.845
    33   6 C        2.923    -0.031    28.769     8.796
    34   6 C        2.920    -0.034    28.847     8.808
    35   6 C        2.912    -0.029    28.736     8.790
    36   6 C        3.065    -0.011    28.229     8.712
    37   6 C        3.065    -0.011    28.232     8.713
    38   6 C        2.912    -0.030    28.740     8.791
    39   6 C        2.920    -0.034    28.846     8.808
    40   6 C        2.923    -0.031    28.764     8.795
    41   6 C        2.909    -0.044    29.082     8.843
    42   6 C        3.071     0.046    26.901     8.504
    43   6 C        2.924    -0.044    29.089     8.845
    44   6 C        2.908    -0.039    28.972     8.826
    45   6 C        3.080     0.048    26.839     8.493
    46   6 C        2.971    -0.003    28.089     8.693
    47   6 C        2.977     0.011    27.770     8.644
    48   6 C        2.925    -0.034    28.854     8.809
    49   6 C        2.918    -0.030    28.758     8.794
    50   6 C        2.920    -0.032    28.807     8.802
    51   6 C        2.918    -0.031    28.772     8.796
    52   6 C        2.924    -0.034    28.849     8.808
    53   6 C        2.929    -0.045    29.111     8.848
    54   7 N        1.845    -0.303    28.711     7.941
    55   6 C        2.924    -0.031    28.765     8.795
    56   6 C        2.917    -0.030    28.761     8.794
    57   1 H        0.926     0.041     2.440     2.443
    58   1 H        0.926     0.039     2.457     2.451
    59   1 H        0.926     0.040     2.447     2.446
    60   1 H        0.926     0.041     2.440     2.443
    61   1 H        0.926     0.039     2.467     2.456
    62   1 H        0.926     0.041     2.440     2.443
    63   1 H        0.926     0.039     2.458     2.452
    64   1 H        0.926     0.040     2.444     2.445
    65   1 H        0.926     0.035     2.510     2.478
    66   1 H        0.926     0.038     2.473     2.459
    67   1 H        0.926     0.039     2.463     2.454
    68   1 H        0.926     0.041     2.440     2.443
    69   1 H        0.926     0.042     2.427     2.436
    70   1 H        0.926     0.045     2.378     2.412
    71   1 H        0.926     0.058     2.225     2.333
    72   1 H        0.926     0.042     2.417     2.431
    73   1 H        0.926     0.041     2.440     2.443
    74   1 H        0.926     0.039     2.459     2.452
    75   1 H        0.926     0.042     2.427     2.436
    76   1 H        0.926     0.042     2.424     2.435
    77   1 H        0.926     0.039     2.460     2.453
    78   1 H        0.926     0.040     2.445     2.445
    79   1 H        0.926     0.042     2.429     2.437
    80   1 H        0.926     0.053     2.280     2.361
    81   1 H        0.926     0.047     2.363     2.404
    82   1 H        0.926     0.030     2.583     2.513
    83   1 H        0.926     0.034     2.525     2.485
    84   1 H        0.926     0.035     2.522     2.483
    85   1 H        0.926     0.033     2.540     2.492
    86   1 H        0.926     0.027     2.631     2.536
    87   1 H        0.926     0.037     2.482     2.464
    88   1 H        0.926     0.041     2.441     2.443
    89   1 H        0.926     0.039     2.468     2.457

molecular dipole:
                 x           y           z       tot (Debye)
 q only:        5.529      -0.347      -0.096
   full:        5.229      -0.325      -0.100      13.320

 projected vibrational frequencies (cm⁻¹)
eigval :       -0.00     0.00     0.00     0.00     0.00     0.00
eigval :        8.20    10.83    14.91    23.27    25.77    29.00
eigval :       30.35    34.08    38.28    41.82    49.67    54.99
eigval :       63.32    73.22    86.07    95.24   102.18   105.67
eigval :      113.72   114.25   134.85   138.85   147.87   152.77
eigval :      159.01   186.50   189.43   197.16   211.56   214.97
eigval :      245.13   251.05   255.68   268.06   273.06   280.76
eigval :      292.39   296.01   330.04   348.34   361.46   366.85
eigval :      367.95   369.84   376.72   382.16   396.36   399.68
eigval :      407.93   411.37   415.29   420.52   425.73   435.49
eigval :      437.64   445.47   465.87   507.56   515.00   529.39
eigval :      533.99   537.71   539.63   544.80   556.80   560.75
eigval :      561.16   572.65   582.92   585.22   586.25   588.09
eigval :      588.72   595.78   606.37   607.28   615.63   626.38
eigval :      643.32   644.48   656.21   663.80   665.29   674.98
eigval :      676.38   679.51   681.61   690.68   707.94   710.88
eigval :      718.46   727.93   753.68   760.34   760.86   762.66
eigval :      769.76   773.61   778.87   791.19   808.32   809.64
eigval :      824.98   853.66   860.50   862.51   868.65   870.88
eigval :      871.44   873.48   880.14   880.69   889.76   896.54
eigval :      896.85   898.33   901.83   903.25   905.28   906.75
eigval :      908.50   914.88   921.23   922.44   924.11   924.14
eigval :      924.16   925.12   925.64   927.08   931.35   932.37
eigval :      950.02   968.09   970.81   984.04   989.58  1010.57
eigval :     1022.03  1034.05  1062.17  1064.87  1067.83  1070.97
eigval :     1073.49  1074.74  1083.70  1102.85  1107.59  1107.94
eigval :     1115.30  1120.82  1127.53  1141.10  1144.05  1148.64
eigval :     1156.39  1164.59  1168.99  1174.16  1175.76  1176.63
eigval :     1177.13  1179.20  1180.26  1186.26  1187.68  1198.50
eigval :     1202.32  1217.89  1226.83  1231.00  1232.90  1238.59
eigval :     1258.52  1264.43  1266.80  1268.22  1274.67  1281.66
eigval :     1283.92  1286.92  1291.19  1315.18  1327.04  1329.10
eigval :     1330.28  1333.58  1337.26  1339.33  1347.34  1350.47
eigval :     1358.68  1363.03  1384.54  1395.82  1410.98  1412.18
eigval :     1418.32  1421.58  1431.66  1431.97  1434.89  1436.87
eigval :     1457.13  1461.37  1461.86  1462.95  1470.52  1477.00
eigval :     1479.55  1480.53  1490.78  1547.11  1551.74  1567.00
eigval :     1567.42  1568.48  1568.72  1578.43  1579.30  1579.89
eigval :     1580.25  1581.32  1590.28  1593.51  1597.10  1602.10
eigval :     3067.05  3069.79  3071.51  3071.75  3073.21  3074.55
eigval :     3074.71  3075.74  3079.71  3080.23  3080.42  3080.75
eigval :     3085.42  3085.70  3086.11  3086.68  3087.40  3089.71
eigval :     3092.25  3092.73  3093.01  3093.71  3095.02  3095.68
eigval :     3096.19  3097.78  3098.42  3099.23  3099.50  3099.69
eigval :     3102.32  3103.01  3112.32

   temp. (K)  partition function   enthalpy   heat capacity  entropy
                                   cal/mol     cal/K/mol   cal/K/mol   J/K/mol
 298.15  VIB  0.826E+21            26058.325    163.470    162.610
         ROT  0.157E+09              888.752      2.981     40.482
         INT  0.130E+30            26947.078    166.451    203.093
         TR   0.185E+29             1481.254      4.968     45.564
         TOT                       28428.3317   171.4189   248.6570  1040.3808

       T/K    H(0)-H(T)+PV         H(T)/Eh          T*S/Eh         G(T)/Eh
   ------------------------------------------------------------------------
    298.15    0.453034E-01    0.717234E+00    0.118145E+00    0.599090E+00
   ------------------------------------------------------------------------

         :::::::::::::::::::::::::::::::::::::::::::::::::::::
         ::                  THERMODYNAMIC                  ::
         :::::::::::::::::::::::::::::::::::::::::::::::::::::
         :: total free energy        -140.126642824134 Eh   ::
         ::.................................................::
         :: total energy             -140.725732350531 Eh   ::
         :: zero point energy           0.671931053362 Eh   ::
         :: G(RRHO) w/o ZPVE           -0.072841526966 Eh   ::
         :: G(RRHO) contrib.            0.599089526397 Eh   ::
         :::::::::::::::::::::::::::::::::::::::::::::::::::::

           -------------------------------------------------
          | TOTAL ENERGY             -140.725732350531 Eh   |
          | TOTAL ENTHALPY           -140.008497866890 Eh   |
          | TOTAL FREE ENERGY        -140.126642824134 Eh   |
          | GRADIENT NORM               0.000141410760 Eh/α |
          | HOMO-LUMO GAP               0.158175702661 eV   |
           -------------------------------------------------

 * finished run on 2025/09/13 at 07:55:29.663
