   * xtb version 6.7.1 (edcfbbe) compiled by 'albert@albert-system' on 2024-07-22

   ID    Z sym.   atoms
    1    6 C      1-5, 7-13, 15-19, 21-29, 31-53, 55, 56
    2    7 N      6, 14, 20, 30, 54
    3    1 H      57-89

          program call               : xtb data2507/toluene/1PCTRz/1PCTRz_toluene_T1_crest.xyz --gfn 2 --uhf 2 --gbsa toluene --ohess vtight --parallel 40 --molden --ceasefiles --namespace data2507/toluene/1PCTRz/1PCTRz_toluene_T1_finalOpt
      * Solvation model:               GBSA
        Solvent                        toluene
        Solvent mass                       9.2140E+01 g/mol
          :  Hamiltonian                  GFN2-xTB          :
 * total energy  :  -140.7249317 Eh     change       -0.1279409E-07 Eh
 * total energy  :  -140.7251203 Eh     change       -0.1885872E-03 Eh
 * total energy  :  -140.7252087 Eh     change       -0.8844514E-04 Eh
 * total energy  :  -140.7252371 Eh     change       -0.2842027E-04 Eh
 * total energy  :  -140.7252686 Eh     change       -0.3142161E-04 Eh
 * total energy  :  -140.7253194 Eh     change       -0.5079956E-04 Eh
 * total energy  :  -140.7253608 Eh     change       -0.4144251E-04 Eh
 * total energy  :  -140.7253892 Eh     change       -0.2841042E-04 Eh
 * total energy  :  -140.7254156 Eh     change       -0.2636638E-04 Eh
 * total energy  :  -140.7254303 Eh     change       -0.1470341E-04 Eh
 * total energy  :  -140.7257346 Eh     change       -0.5169368E-06 Eh
 * total energy  :  -140.7257351 Eh     change       -0.4501675E-06 Eh
 * total energy  :  -140.7257355 Eh     change       -0.3796187E-06 Eh
 * total energy  :  -140.7257357 Eh     change       -0.2795268E-06 Eh
 * total energy  :  -140.7257359 Eh     change       -0.2094717E-06 Eh
 * total energy  :  -140.7257361 Eh     change       -0.1991055E-06 Eh
 * total energy  :  -140.7257363 Eh     change       -0.1790636E-06 Eh
 * total energy  :  -140.7257364 Eh     change       -0.1239833E-06 Eh
 * total energy  :  -140.7257365 Eh     change       -0.8224029E-07 Eh
   *** GEOMETRY OPTIMIZATION CONVERGED AFTER 110 ITERATIONS ***

 final structure:
================
89
 xtb: 6.7.1 (edcfbbe)
C           -7.21673349300432        5.35752223055934       -0.90640530738369
C           -8.10160270709817        4.46671742913202       -0.31728256741216
C           -7.69339141722446        3.18427277037510       -0.00823521409719
C           -6.38799026230613        2.77464195510957       -0.28612609923417
C           -5.95480567843310        1.42057762279444        0.04186765343781
N           -6.86172935025444        0.58181010485791        0.58326709421602
C           -6.42176549661721       -0.66092335440957        0.87028929937266
C           -7.37251591305179       -1.60346930800830        1.44953584401475
C           -8.68854760495174       -1.21189038991621        1.70286085718460
C           -9.58748170636869       -2.10468049237670        2.25187238448749
C           -9.18896689737974       -3.39783219761211        2.55622511238643
C           -7.88279511894982       -3.79515723853197        2.30674822772042
C           -6.97944550451234       -2.90743415982340        1.75871842549705
N           -5.19082456096525       -1.05777297682174        0.66033675247321
C           -4.31752154360973       -0.17717826696998        0.11168648856926
C           -2.97426324346776       -0.57166375789878       -0.12791637930685
C           -2.52531132710091       -1.87422891725666        0.18599262611802
C           -1.22335282672121       -2.23323723350650       -0.04187306658048
C           -0.31285287339538       -1.32434039401642       -0.59430006071922
N            1.02425572014447       -1.71607441343267       -0.77513860494458
C            1.44808822002405       -2.79427416138834       -1.52691348081263
C            0.69740016264290       -3.71156482546218       -2.24886132176080
C            1.37852166546419       -4.69993585492655       -2.93685770892211
C            2.76947895969710       -4.77305950642622       -2.91501862834605
C            3.52352905637797       -3.84926683945539       -2.21239230504766
C            2.86242178332557       -2.84801192125174       -1.51621258100109
C            3.30032746380665       -1.74245027431353       -0.70672949870944
C            4.54513249839290       -1.27682058395498       -0.32734619207311
C            4.61306521473114       -0.15730272533520        0.50039074939775
N            5.85618730353361        0.33891642744348        0.89793185377213
C            6.90153706432223       -0.40992212479590        1.40519989374918
C            6.96141972985798       -1.76810587630771        1.68953860047438
C            8.13294859425003       -2.26299340334199        2.23353460660051
C            9.21765653130905       -1.43204979068041        2.50100660212833
C            9.15317748490211       -0.07273861232203        2.24787853561053
C            7.98917694510658        0.44512219059965        1.70098993272064
C            7.57068548793777        1.77637016449589        1.34476033088800
C            8.19492554899483        3.01376896362162        1.38296011642213
C            7.49795429396921        4.12045006966732        0.92951297827881
C            6.20545273923432        3.99729519810388        0.42625337625898
C            5.56359143365001        2.77304924395303        0.37707925908039
C            6.24671330483462        1.66404747886847        0.85916736684057
C            3.44082450921400        0.47125612143266        0.95449949009504
C            2.19555836668437        0.01798485639086        0.58489354003465
C            2.12310619152524       -1.07927573804830       -0.26889512061100
C           -0.74105289547275       -0.02374886744698       -0.93842962556191
C            0.16579895835588        0.93719082091575       -1.59269311990955
C            0.24094179406541        2.25105469336119       -1.13585053437912
C            1.08572628074615        3.16067349369033       -1.74439953000499
C            1.86638612566818        2.77340086539508       -2.82129765316977
C            1.78761401754406        1.47363086656182       -3.29304674676814
C            0.94226536563861        0.56265438318339       -2.68669632737389
C           -2.04965076955136        0.33066475610554       -0.69025465748085
N           -4.71404898297010        1.08093623429180       -0.20568725312143
C           -5.50340885215675        3.67740971659188       -0.88011204855775
C           -5.91773995706306        4.95753939012122       -1.18706535722931
H           -7.53818356080602        6.36004511117447       -1.14733521462897
H           -9.11364015556440        4.77553963595209       -0.09865359672475
H           -8.36973838819212        2.47918124772240        0.45060492822564
H           -8.98338034580506       -0.20226248984890        1.46042008093823
H          -10.60394299429591       -1.79315554109626        2.44465598856055
H           -9.89372133522447       -4.09447094773049        2.98564983918648
H           -7.57089968180559       -4.80242017984947        2.54246339748887
H           -5.96015957530340       -3.20176138749229        1.55969551042811
H           -3.22747092464411       -2.56967791029839        0.61832794508559
H           -0.87448479468943       -3.22015258905038        0.22716760061579
H           -0.37999732195165       -3.65126341933015       -2.27498271906501
H            0.81906831136978       -5.42823138367033       -3.50478249310784
H            3.26417677576754       -5.56080349659664       -3.46320407626293
H            4.60141975322552       -3.90234681522901       -2.20890155132875
H            5.44663642078604       -1.74832078483390       -0.68538774082845
H            6.11849091890681       -2.41723167417389        1.50988985449556
H            8.20514106385571       -3.31622944707697        2.46050748672265
H           10.11639086033185       -1.85537257821946        2.92404154092777
H            9.98702260238229        0.57325503029660        2.47628483771362
H            9.20387468895222        3.10887091201002        1.75409141203639
H            7.96501318081512        5.09369154403594        0.95487137427316
H            5.69363141893703        4.87553807110362        0.06197056213214
H            4.57018758000148        2.68437657462433       -0.03354925818778
H            3.52762885313117        1.30350644886120        1.63554175668494
H            1.30060112019913        0.48763516380152        0.96009673191971
H           -0.36078466021482        2.55197591585540       -0.28976107223780
H            1.13685539147494        4.17500193864470       -1.37518400785012
H            2.52961665460626        3.48296589804445       -3.29401329910049
H            2.38399288849070        1.16777694935809       -4.14049342339556
H            0.86869430715947       -0.44150170737846       -3.07906553837651
H           -2.40428667650343        1.31363732465328       -0.96085138960761
H           -4.49660452951868        3.35166328646355       -1.09372089259443
H           -5.22758293179359        5.64971865915164       -1.64748685972856

          :  Hamiltonian                  GFN2-xTB          :
         :: gradient norm              0.000134186972 Eh/a0 ::
         :: HOMO-LUMO gap              0.158225514600 eV    ::
         :: SCC energy              -143.334535516953 Eh    ::
         :: -> dispersion             -0.128109273099 Eh    ::
         :: -> Gsolv                  -0.068079884301 Eh    ::
         :: repulsion energy           2.608798994174 Eh    ::

    * Orbital Energies and Occupations

         #    Occupation            Energy/Eh            Energy/eV
      -------------------------------------------------------------
         1        2.0000           -0.6915974             -18.8193
       ...           ...                  ...                  ...
       120        2.0000           -0.4077729             -11.0961
       121        2.0000           -0.4074950             -11.0885
       122        2.0000           -0.4039408             -10.9918
       123        2.0000           -0.4015852             -10.9277
       124        2.0000           -0.3993174             -10.8660
       125        2.0000           -0.3953535             -10.7581
       126        2.0000           -0.3911682             -10.6442
       127        2.0000           -0.3899197             -10.6103
       128        2.0000           -0.3811255             -10.3710
       129        1.8404           -0.3679094             -10.0113
       130        1.7640           -0.3674473              -9.9988
       131        1.3956           -0.3659286              -9.9574
       132        0.9552           -0.2821801              -7.6785 (HOMO)
       133        0.0448           -0.2763654              -7.5203 (LUMO)
       134                         -0.2606685              -7.0931
       135                         -0.2559134              -6.9638
       136                         -0.2464323              -6.7058
       137                         -0.2417070              -6.5772
       138                         -0.2380789              -6.4785
       139                         -0.2335812              -6.3561
       140                         -0.2254837              -6.1357
       141                         -0.2248062              -6.1173
       142                         -0.2246490              -6.1130
       143                         -0.2173487              -5.9144
       ...                                ...                  ...
       257                          0.7330816              19.9482
      -------------------------------------------------------------
                  HL-Gap            0.0058147 Eh            0.1582 eV

     #   Z          covCN         q      C6AA      α(0)
     1   6 C        2.920    -0.030    28.757     8.794
     2   6 C        2.917    -0.030    28.761     8.794
     3   6 C        2.924    -0.031    28.764     8.795
     4   6 C        2.983    -0.010    28.268     8.721
     5   6 C        2.934     0.210    23.570     7.962
     6   7 N        1.843    -0.345    29.820     8.093
     7   6 C        2.934     0.210    23.575     7.963
     8   6 C        2.983    -0.010    28.270     8.722
     9   6 C        2.924    -0.031    28.765     8.795
    10   6 C        2.917    -0.030    28.761     8.794
    11   6 C        2.920    -0.030    28.758     8.794
    12   6 C        2.918    -0.031    28.765     8.795
    13   6 C        2.923    -0.031    28.779     8.797
    14   7 N        1.845    -0.303    28.697     7.939
    15   6 C        2.937     0.171    24.315     8.087
    16   6 C        2.975    -0.019    28.487     8.755
    17   6 C        2.920    -0.044    29.095     8.845
    18   6 C        2.915    -0.044    29.087     8.844
    19   6 C        2.915     0.030    27.325     8.572
    20   7 N        2.801    -0.007    21.386     6.868
    21   6 C        3.084     0.047    26.857     8.495
    22   6 C        2.909    -0.042    29.033     8.835
    23   6 C        2.923    -0.030    28.751     8.793
    24   6 C        2.920    -0.034    28.856     8.809
    25   6 C        2.912    -0.029    28.714     8.787
    26   6 C        3.064    -0.013    28.269     8.719
    27   6 C        3.067    -0.010    28.185     8.705
    28   6 C        2.914    -0.042    29.047     8.838
    29   6 C        2.913     0.057    26.730     8.478
    30   7 N        2.802    -0.012    21.490     6.885
    31   6 C        3.070     0.046    26.903     8.505
    32   6 C        2.909    -0.044    29.096     8.845
    33   6 C        2.923    -0.031    28.769     8.796
    34   6 C        2.920    -0.034    28.846     8.808
    35   6 C        2.912    -0.029    28.736     8.790
    36   6 C        3.065    -0.011    28.228     8.712
    37   6 C        3.065    -0.011    28.231     8.713
    38   6 C        2.912    -0.030    28.740     8.791
    39   6 C        2.920    -0.034    28.846     8.807
    40   6 C        2.923    -0.031    28.764     8.795
    41   6 C        2.909    -0.044    29.082     8.843
    42   6 C        3.071     0.046    26.902     8.505
    43   6 C        2.925    -0.044    29.090     8.845
    44   6 C        2.908    -0.039    28.971     8.826
    45   6 C        3.081     0.048    26.838     8.493
    46   6 C        2.971    -0.003    28.090     8.694
    47   6 C        2.977     0.011    27.771     8.644
    48   6 C        2.925    -0.034    28.855     8.809
    49   6 C        2.918    -0.030    28.759     8.794
    50   6 C        2.920    -0.032    28.808     8.802
    51   6 C        2.918    -0.031    28.772     8.796
    52   6 C        2.924    -0.034    28.849     8.808
    53   6 C        2.929    -0.045    29.111     8.848
    54   7 N        1.845    -0.303    28.714     7.942
    55   6 C        2.923    -0.031    28.775     8.797
    56   6 C        2.918    -0.031    28.764     8.795
    57   1 H        0.926     0.041     2.439     2.442
    58   1 H        0.926     0.039     2.468     2.457
    59   1 H        0.926     0.041     2.441     2.443
    60   1 H        0.926     0.041     2.440     2.443
    61   1 H        0.926     0.039     2.468     2.457
    62   1 H        0.926     0.041     2.441     2.443
    63   1 H        0.926     0.039     2.459     2.452
    64   1 H        0.926     0.040     2.445     2.445
    65   1 H        0.926     0.035     2.512     2.478
    66   1 H        0.926     0.038     2.473     2.459
    67   1 H        0.926     0.039     2.463     2.454
    68   1 H        0.926     0.041     2.440     2.443
    69   1 H        0.926     0.042     2.427     2.436
    70   1 H        0.926     0.045     2.378     2.412
    71   1 H        0.926     0.058     2.224     2.332
    72   1 H        0.926     0.042     2.416     2.431
    73   1 H        0.926     0.041     2.439     2.442
    74   1 H        0.926     0.039     2.459     2.452
    75   1 H        0.926     0.042     2.426     2.436
    76   1 H        0.926     0.042     2.424     2.435
    77   1 H        0.926     0.039     2.459     2.452
    78   1 H        0.926     0.040     2.445     2.445
    79   1 H        0.926     0.042     2.428     2.437
    80   1 H        0.926     0.053     2.279     2.361
    81   1 H        0.926     0.047     2.363     2.404
    82   1 H        0.926     0.030     2.583     2.513
    83   1 H        0.926     0.034     2.525     2.485
    84   1 H        0.926     0.035     2.521     2.483
    85   1 H        0.926     0.033     2.540     2.492
    86   1 H        0.926     0.027     2.632     2.537
    87   1 H        0.926     0.038     2.482     2.463
    88   1 H        0.926     0.040     2.446     2.446
    89   1 H        0.926     0.039     2.457     2.451

molecular dipole:
                 x           y           z       tot (Debye)
 q only:        5.533      -0.339      -0.095
   full:        5.233      -0.319      -0.099      13.328

 projected vibrational frequencies (cm⁻¹)
eigval :       -0.00    -0.00    -0.00    -0.00     0.00     0.00
eigval :        9.39    11.47    13.48    22.14    28.02    28.51
eigval :       31.80    34.37    37.37    42.70    49.48    55.05
eigval :       62.36    72.54    86.27    94.89   101.26   105.28
eigval :      113.37   114.26   134.02   138.44   147.86   152.79
eigval :      158.90   186.52   189.42   197.10   210.96   214.86
eigval :      244.74   250.91   255.88   267.78   272.67   280.48
eigval :      292.47   295.73   329.87   348.53   361.46   367.06
eigval :      368.68   369.37   376.25   382.16   396.32   399.20
eigval :      408.06   411.46   416.15   420.58   424.48   435.30
eigval :      437.42   444.25   465.86   506.77   514.76   529.77
eigval :      534.11   537.44   539.64   544.68   557.63   560.57
eigval :      561.30   572.23   583.02   585.22   586.19   588.04
eigval :      588.90   596.48   606.61   607.39   613.73   626.33
eigval :      642.62   644.96   655.81   663.81   665.31   674.68
eigval :      676.04   679.52   681.75   690.81   707.00   710.63
eigval :      718.32   728.55   753.54   760.07   760.82   762.73
eigval :      768.94   773.09   778.60   791.13   807.35   809.53
eigval :      824.87   853.86   860.67   862.35   868.59   870.89
eigval :      871.03   871.73   879.99   880.53   889.85   896.46
eigval :      897.00   898.55   901.25   901.55   904.43   906.93
eigval :      907.75   914.03   921.18   922.08   924.01   924.18
eigval :      924.47   925.55   925.86   927.16   931.31   931.93
eigval :      950.13   967.80   970.48   983.79   989.48  1010.49
eigval :     1021.78  1033.79  1062.00  1066.18  1068.04  1071.43
eigval :     1073.23  1074.79  1083.43  1102.54  1107.58  1107.70
eigval :     1114.95  1120.60  1127.15  1140.18  1143.47  1148.29
eigval :     1156.19  1164.79  1169.06  1174.89  1176.01  1176.78
eigval :     1176.98  1179.01  1180.11  1186.35  1189.04  1198.52
eigval :     1202.18  1217.76  1226.60  1231.14  1233.17  1238.66
eigval :     1258.28  1264.29  1266.62  1268.26  1274.75  1281.41
eigval :     1283.79  1286.82  1291.24  1315.21  1326.71  1328.99
eigval :     1330.28  1333.67  1337.74  1339.13  1347.20  1350.34
eigval :     1358.68  1362.94  1384.33  1396.26  1410.93  1412.26
eigval :     1418.00  1421.69  1431.63  1431.96  1434.26  1437.10
eigval :     1457.07  1461.41  1461.66  1462.96  1470.69  1477.20
eigval :     1479.45  1480.51  1490.75  1546.95  1551.74  1566.94
eigval :     1567.39  1568.41  1568.74  1578.45  1579.33  1579.84
eigval :     1580.16  1581.32  1590.29  1593.40  1597.16  1602.16
eigval :     3067.00  3069.76  3071.60  3071.88  3073.11  3074.52
eigval :     3074.76  3075.66  3080.16  3080.18  3080.50  3080.70
eigval :     3085.85  3086.03  3086.14  3086.75  3087.51  3089.85
eigval :     3091.75  3092.75  3092.83  3093.76  3094.87  3095.76
eigval :     3096.13  3097.80  3098.55  3099.00  3099.18  3099.45
eigval :     3102.88  3103.51  3110.41

   temp. (K)  partition function   enthalpy   heat capacity  entropy
                                   cal/mol     cal/K/mol   cal/K/mol   J/K/mol
 298.15  VIB  0.746E+21            26066.294    163.515    162.608
         ROT  0.156E+09              888.752      2.981     40.477
         INT  0.117E+30            26955.047    166.496    203.086
         TR   0.185E+29             1481.254      4.968     45.564
         TOT                       28436.3006   171.4645   248.6501  1040.3521

       T/K    H(0)-H(T)+PV         H(T)/Eh          T*S/Eh         G(T)/Eh
   ------------------------------------------------------------------------
    298.15    0.453161E-01    0.717194E+00    0.118142E+00    0.599053E+00
   ------------------------------------------------------------------------

         :::::::::::::::::::::::::::::::::::::::::::::::::::::
         ::                  THERMODYNAMIC                  ::
         :::::::::::::::::::::::::::::::::::::::::::::::::::::
         :: total free energy        -140.126684006900 Eh   ::
         ::.................................................::
         :: total energy             -140.725736526504 Eh   ::
         :: zero point energy           0.671878085325 Eh   ::
         :: G(RRHO) w/o ZPVE           -0.072825565721 Eh   ::
         :: G(RRHO) contrib.            0.599052519604 Eh   ::
         :::::::::::::::::::::::::::::::::::::::::::::::::::::

           -------------------------------------------------
          | TOTAL ENERGY             -140.725736526504 Eh   |
          | TOTAL ENTHALPY           -140.008542311729 Eh   |
          | TOTAL FREE ENERGY        -140.126684006900 Eh   |
          | GRADIENT NORM               0.000133617224 Eh/α |
          | HOMO-LUMO GAP               0.158226637804 eV   |
           -------------------------------------------------

 * finished run on 2025/09/13 at 08:06:19.644
