   * xtb version 6.7.1 (edcfbbe) compiled by 'albert@albert-system' on 2024-07-22

   ID    Z sym.   atoms
    1    6 C      1-5, 7-13, 15-19, 21-29, 31-53, 55, 56
    2    7 N      6, 14, 20, 30, 54
    3    1 H      57-89

          program call               : xtb data2507/toluene/1PCTRz/1PCTRz.xyz --gfn 2 --gbsa toluene --ohess vtight --parallel 40 --molden --ceasefiles --namespace data2507/toluene/1PCTRz/1PCTRz_toluene_S0_preOpt
      * Solvation model:               GBSA
        Solvent                        toluene
        Solvent mass                       9.2140E+01 g/mol
          :  Hamiltonian                  GFN2-xTB          :
 * total energy  :  -140.7798789 Eh     change       -0.1442515E-08 Eh
 * total energy  :  -140.7949829 Eh     change       -0.1510399E-01 Eh
 * total energy  :  -140.7990407 Eh     change       -0.4057727E-02 Eh
 * total energy  :  -140.8002498 Eh     change       -0.1209149E-02 Eh
 * total energy  :  -140.8009935 Eh     change       -0.7436654E-03 Eh
 * total energy  :  -140.8012847 Eh     change       -0.2912278E-03 Eh
 * total energy  :  -140.8014915 Eh     change       -0.2067511E-03 Eh
 * total energy  :  -140.8016700 Eh     change       -0.1785528E-03 Eh
 * total energy  :  -140.8018298 Eh     change       -0.1598102E-03 Eh
 * total energy  :  -140.8019897 Eh     change       -0.1599026E-03 Eh
 * total energy  :  -140.8024826 Eh     change       -0.5086678E-06 Eh
 * total energy  :  -140.8024830 Eh     change       -0.4311896E-06 Eh
 * total energy  :  -140.8024834 Eh     change       -0.3283221E-06 Eh
 * total energy  :  -140.8024836 Eh     change       -0.2593172E-06 Eh
 * total energy  :  -140.8024839 Eh     change       -0.2549482E-06 Eh
 * total energy  :  -140.8024842 Eh     change       -0.2702811E-06 Eh
 * total energy  :  -140.8024844 Eh     change       -0.2745765E-06 Eh
 * total energy  :  -140.8024847 Eh     change       -0.2468132E-06 Eh
 * total energy  :  -140.8024847 Eh     change       -0.5574634E-08 Eh
   *** GEOMETRY OPTIMIZATION CONVERGED AFTER 44 ITERATIONS ***

 final structure:
================
89
 xtb: 6.7.1 (edcfbbe)
C           -9.07950412644589        2.60258149377040        2.11093393126791
C           -7.76846466372316        2.99037142151456        1.87907337558099
C           -6.86555022828959        2.09384831501673        1.34081866707185
C           -7.27002569251332        0.79664157992203        1.02718615024922
C           -6.31525908446988       -0.15536839010856        0.45907017824182
N           -6.75085632807734       -1.37642497065909        0.15836623010684
C           -5.84925469880016       -2.20862526461308       -0.35716723585481
C           -6.28502737119830       -3.55908699098257       -0.71330320507986
C           -7.60391824006746       -3.95293464932092       -0.49032637891878
C           -8.01262247440132       -5.22919318524428       -0.82649110672834
C           -7.11235360665756       -6.12256538167923       -1.38725793952634
C           -5.79971448651299       -5.73649263345107       -1.61299442301454
C           -5.38487765848841       -4.46183591022022       -1.27833825830204
N           -4.57488640900754       -1.88688858276953       -0.56800105338930
C           -4.22525729195422       -0.64685340277427       -0.23573296277036
C           -2.83504199178940       -0.24584899677450       -0.44544937330549
C           -1.91709753967375       -1.13552211635628       -1.00273279617388
C           -0.61290867546111       -0.73851697629036       -1.20655091186183
C           -0.19603776739765        0.54245185054709       -0.84982371480844
N            1.13083301595479        0.92170401198630       -1.09685545392748
C            1.54034282566856        2.03181586281953       -1.80889111569194
C            0.78347372828872        2.94451497991663       -2.52857655409940
C            1.45189618510538        3.96643352004426       -3.17446995895508
C            2.84054718392734        4.07423398014966       -3.12419906969948
C            3.60121349557560        3.14725971873487       -2.44006431948166
C            2.95074878689878        2.11236554239191       -1.77998081762361
C            3.40731231173495        0.98791666197035       -1.01106570348444
C            4.66386936613101        0.54893099660695       -0.62124881325704
C            4.75500971999189       -0.60038092989044        0.15066063388795
N            6.01782698969592       -1.08182078403069        0.54158958739092
C            7.07408525550120       -1.34479664643144       -0.30544768444331
C            7.14571072160472       -1.23933272808941       -1.68790056463165
C            8.33267192328120       -1.59063601433464       -2.30146335563128
C            9.42632488022085       -2.04388972786469       -1.56542798490563
C            9.35526170462820       -2.16873628891507       -0.19219960289588
C            8.17203210677465       -1.82232662345935        0.44835892195218
C            7.74650475345616       -1.84019707987107        1.81978097344191
C            8.36857825174052       -2.19114671717158        3.01145686672136
C            7.65987084696198       -2.06837332772279        4.19008875294885
C            6.35108310267576       -1.58869967350781        4.19283739479069
C            5.71040047195211       -1.23411928759862        3.02126531250335
C            6.40983810749315       -1.37611846951944        1.83043021214907
C            3.60306813286784       -1.29051250686360        0.54698978829766
C            2.34464233393005       -0.85659768413350        0.18171742121050
C            2.25085225083544        0.27602670264809       -0.61498873508964
C           -1.10198819198780        1.44008495228417       -0.26185407749531
C           -0.68460989636276        2.78052704199413        0.19110504688574
C            0.45012891446363        2.94543154484907        0.98085336984479
C            0.83377427120242        4.20608650933715        1.39944103886518
C            0.09035604438541        5.31727001918491        1.03823733126580
C           -1.04963910724384        5.16063356714639        0.26751277584775
C           -1.43817827898924        3.90071237978423       -0.14883277067562
C           -2.41526911784823        1.03085698790175       -0.08184349625190
N           -5.06204263661462        0.25283336451746        0.27499218020260
C           -8.58985550930695        0.41315325574845        1.26212412521507
C           -9.48795767285542        1.31400236430161        1.80140676614043
H           -9.78327451048859        3.30485838776236        2.53257768593986
H           -7.45061052758539        3.99399171700758        2.11994768134162
H           -5.84162256163308        2.37851856755226        1.15538753646858
H           -8.29036864908453       -3.24467410577768       -0.05324300263430
H           -9.03496115150113       -5.52992240461623       -0.65154761165524
H           -7.43400336875203       -7.11969347980795       -1.64912688037024
H           -5.09924297642212       -6.43226346015871       -2.05069417796337
H           -4.36766713546550       -4.14447698148196       -1.44664618966753
H           -2.24639077050108       -2.12398757171706       -1.28013002504954
H            0.09734499436502       -1.41220096886622       -1.66250004962605
H           -0.29023489058139        2.85816017926609       -2.58680863759885
H            0.88542178843609        4.69531379230572       -3.73508665092628
H            3.32537172753869        4.88951501857522       -3.64057002132896
H            4.67828298303940        3.21843062208039       -2.41932454704185
H            5.55341601909036        1.09259310262859       -0.89970938223218
H            6.29957242899089       -0.90099023369538       -2.26715235983098
H            8.41434077474354       -1.51506195495874       -3.37622454206039
H           10.33814940213507       -2.30643560414474       -2.08200681223723
H           10.19884608947305       -2.53203770653053        0.37592516644158
H            9.38737852963982       -2.54957681491823        3.01214526511209
H            8.12498458725431       -2.33850406976925        5.12699087109458
H            5.82717469782000       -1.48981914741645        5.13265389516526
H            4.70121164012831       -0.85051704645293        3.03383908401140
H            3.71050150466463       -2.18328988618869        1.14437074077015
H            1.46298220294768       -1.38831942106676        0.50590641857544
H            1.02671842769636        2.08278351435201        1.28206962178761
H            1.71742162038586        4.31988815825623        2.01019746730813
H            0.39664008794605        6.30183763431993        1.35957864150818
H           -1.63741350811408        6.02289505560959       -0.01173355105366
H           -2.32200485360855        3.78088159420015       -0.75932328245179
H           -3.12884593903821        1.69832862429160        0.37550818663543
H           -8.89016367225048       -0.59333353260479        1.01590043475890
H          -10.50901092807237        1.01226173751899        1.98201243270576

          :  Hamiltonian                  GFN2-xTB          :
         :: gradient norm              0.000048773969 Eh/a0 ::
         :: HOMO-LUMO gap              1.650872598447 eV    ::
         :: SCC energy              -143.421215171728 Eh    ::
         :: -> dispersion             -0.127852145087 Eh    ::
         :: -> Gsolv                  -0.062725364868 Eh    ::
         :: repulsion energy           2.618730483178 Eh    ::

    * Orbital Energies and Occupations

         #    Occupation            Energy/Eh            Energy/eV
      -------------------------------------------------------------
         1        2.0000           -0.6918584             -18.8264
       ...           ...                  ...                  ...
       119        2.0000           -0.4157923             -11.3143
       120        2.0000           -0.4142641             -11.2727
       121        2.0000           -0.4134621             -11.2509
       122        2.0000           -0.4115334             -11.1984
       123        2.0000           -0.4093151             -11.1380
       124        2.0000           -0.4031968             -10.9715
       125        2.0000           -0.3979030             -10.8275
       126        2.0000           -0.3861688             -10.5082
       127        2.0000           -0.3821921             -10.4000
       128        2.0000           -0.3816486             -10.3852
       129        2.0000           -0.3764769             -10.2445
       130        2.0000           -0.3740190             -10.1776
       131        2.0000           -0.3568691              -9.7109 (HOMO)
       132                         -0.2962007              -8.0600 (LUMO)
       133                         -0.2943241              -8.0090
       134                         -0.2573995              -7.0042
       135                         -0.2529303              -6.8826
       136                         -0.2498103              -6.7977
       137                         -0.2435190              -6.6265
       138                         -0.2343865              -6.3780
       139                         -0.2343785              -6.3778
       140                         -0.2315300              -6.3003
       141                         -0.2269748              -6.1763
       142                         -0.2218157              -6.0359
       ...                                ...                  ...
       257                          0.7467114              20.3191
      -------------------------------------------------------------
                  HL-Gap            0.0606685 Eh            1.6509 eV

     #   Z          covCN         q      C6AA      α(0)
     1   6 C        2.920    -0.022    28.555     8.763
     2   6 C        2.918    -0.027    28.680     8.782
     3   6 C        2.923    -0.026    28.648     8.777
     4   6 C        2.983    -0.010    28.255     8.719
     5   6 C        2.979     0.217    23.426     7.939
     6   7 N        1.844    -0.322    29.213     8.010
     7   6 C        2.979     0.217    23.428     7.940
     8   6 C        2.983    -0.010    28.255     8.719
     9   6 C        2.924    -0.026    28.647     8.777
    10   6 C        2.918    -0.027    28.679     8.782
    11   6 C        2.920    -0.022    28.555     8.763
    12   6 C        2.918    -0.027    28.680     8.782
    13   6 C        2.923    -0.026    28.651     8.778
    14   7 N        1.844    -0.323    29.218     8.011
    15   6 C        2.981     0.217    23.430     7.940
    16   6 C        2.981    -0.012    28.316     8.729
    17   6 C        2.922    -0.028    28.699     8.785
    18   6 C        2.920    -0.042    29.037     8.837
    19   6 C        2.916     0.064    26.564     8.452
    20   7 N        2.803    -0.036    21.935     6.956
    21   6 C        3.077     0.048    26.847     8.495
    22   6 C        2.910    -0.049    29.206     8.862
    23   6 C        2.924    -0.033    28.811     8.802
    24   6 C        2.920    -0.040    29.003     8.831
    25   6 C        2.912    -0.033    28.820     8.803
    26   6 C        3.068    -0.016    28.348     8.730
    27   6 C        3.068    -0.014    28.301     8.723
    28   6 C        2.915    -0.046    29.141     8.852
    29   6 C        2.912     0.053    26.810     8.491
    30   7 N        2.803    -0.047    22.143     6.989
    31   6 C        3.078     0.047    26.859     8.497
    32   6 C        2.909    -0.052    29.298     8.876
    33   6 C        2.924    -0.036    28.885     8.814
    34   6 C        2.919    -0.044    29.082     8.843
    35   6 C        2.912    -0.035    28.881     8.812
    36   6 C        3.067    -0.020    28.428     8.743
    37   6 C        3.068    -0.020    28.428     8.743
    38   6 C        2.912    -0.035    28.881     8.812
    39   6 C        2.919    -0.044    29.085     8.844
    40   6 C        2.923    -0.036    28.890     8.814
    41   6 C        2.909    -0.052    29.303     8.876
    42   6 C        3.077     0.047    26.862     8.497
    43   6 C        2.926    -0.046    29.142     8.853
    44   6 C        2.909    -0.050    29.248     8.868
    45   6 C        3.075     0.044    26.941     8.510
    46   6 C        2.975     0.003    27.954     8.673
    47   6 C        2.977     0.012    27.744     8.640
    48   6 C        2.924    -0.031    28.769     8.796
    49   6 C        2.919    -0.029    28.716     8.788
    50   6 C        2.920    -0.029    28.726     8.789
    51   6 C        2.919    -0.028    28.712     8.787
    52   6 C        2.925    -0.032    28.804     8.801
    53   6 C        2.930    -0.031    28.780     8.798
    54   7 N        1.844    -0.323    29.217     8.011
    55   6 C        2.923    -0.026    28.647     8.777
    56   6 C        2.918    -0.027    28.679     8.782
    57   1 H        0.926     0.050     2.322     2.383
    58   1 H        0.926     0.048     2.349     2.397
    59   1 H        0.926     0.050     2.315     2.380
    60   1 H        0.926     0.051     2.313     2.378
    61   1 H        0.926     0.047     2.352     2.398
    62   1 H        0.926     0.050     2.323     2.383
    63   1 H        0.926     0.047     2.351     2.398
    64   1 H        0.926     0.050     2.314     2.379
    65   1 H        0.926     0.058     2.226     2.333
    66   1 H        0.926     0.055     2.254     2.348
    67   1 H        0.926     0.029     2.603     2.523
    68   1 H        0.926     0.034     2.523     2.484
    69   1 H        0.926     0.034     2.535     2.490
    70   1 H        0.926     0.036     2.497     2.471
    71   1 H        0.926     0.044     2.398     2.422
    72   1 H        0.926     0.029     2.601     2.522
    73   1 H        0.926     0.029     2.603     2.523
    74   1 H        0.926     0.026     2.638     2.540
    75   1 H        0.926     0.029     2.606     2.525
    76   1 H        0.926     0.029     2.605     2.524
    77   1 H        0.926     0.026     2.640     2.541
    78   1 H        0.926     0.028     2.610     2.526
    79   1 H        0.926     0.028     2.613     2.528
    80   1 H        0.926     0.043     2.413     2.429
    81   1 H        0.926     0.038     2.479     2.462
    82   1 H        0.926     0.030     2.591     2.517
    83   1 H        0.926     0.036     2.502     2.474
    84   1 H        0.926     0.038     2.481     2.463
    85   1 H        0.926     0.038     2.472     2.459
    86   1 H        0.926     0.034     2.524     2.484
    87   1 H        0.926     0.058     2.218     2.329
    88   1 H        0.926     0.050     2.315     2.379
    89   1 H        0.926     0.047     2.352     2.398

molecular dipole:
                 x           y           z       tot (Debye)
 q only:       -1.198       0.497      -0.154
   full:       -1.324       0.447      -0.144       3.572

 projected vibrational frequencies (cm⁻¹)
eigval :       -0.00    -0.00    -0.00    -0.00    -0.00     0.00
eigval :        8.49    10.06    10.22    10.85    18.44    26.81
eigval :       29.59    34.75    36.51    42.32    51.00    57.15
eigval :       67.01    71.70    89.31    92.41    97.15   102.16
eigval :      108.27   118.71   129.83   138.95   142.04   155.16
eigval :      159.13   181.84   188.18   198.74   205.41   220.30
eigval :      244.40   253.32   261.43   269.25   270.28   283.48
eigval :      290.69   306.15   336.96   351.46   364.29   365.90
eigval :      373.55   376.74   387.70   398.10   401.52   402.30
eigval :      406.99   420.23   422.95   430.18   433.17   438.45
eigval :      446.35   466.82   472.23   516.95   519.44   527.62
eigval :      538.66   540.00   542.54   547.19   557.67   565.46
eigval :      583.98   586.87   587.33   587.70   588.79   600.89
eigval :      612.75   617.46   621.04   629.18   631.54   649.09
eigval :      650.93   668.04   672.64   674.08   677.67   679.15
eigval :      682.15   705.36   707.99   710.45   720.73   750.74
eigval :      752.67   754.28   764.65   766.32   774.25   775.19
eigval :      776.49   793.68   796.11   825.86   842.85   846.84
eigval :      862.28   867.77   871.25   873.36   875.81   878.63
eigval :      881.86   882.30   890.45   894.93   895.80   897.30
eigval :      899.16   902.47   908.70   911.00   912.94   914.15
eigval :      919.67   920.75   921.39   926.11   929.03   930.41
eigval :      931.47   933.24   934.86   936.60   938.21   967.38
eigval :      971.69   984.72   989.30  1010.73  1027.71  1044.61
eigval :     1049.39  1067.69  1068.50  1070.94  1074.05  1074.91
eigval :     1084.51  1090.57  1105.72  1107.59  1110.88  1117.39
eigval :     1123.17  1137.68  1149.00  1151.45  1165.03  1166.97
eigval :     1171.24  1175.64  1176.43  1177.02  1180.71  1181.43
eigval :     1182.16  1188.34  1192.02  1200.99  1202.30  1205.79
eigval :     1221.85  1228.08  1234.08  1237.72  1243.91  1265.24
eigval :     1266.83  1272.40  1277.04  1281.70  1294.14  1303.52
eigval :     1304.52  1316.05  1321.30  1325.89  1327.75  1338.50
eigval :     1344.26  1355.75  1358.12  1361.20  1365.45  1367.90
eigval :     1372.02  1385.11  1410.34  1420.41  1424.57  1426.89
eigval :     1428.39  1429.86  1430.97  1437.82  1462.88  1469.58
eigval :     1471.59  1475.51  1476.39  1487.17  1487.98  1490.05
eigval :     1505.80  1509.48  1555.17  1565.34  1572.13  1578.26
eigval :     1581.20  1582.57  1583.89  1584.93  1587.03  1592.40
eigval :     1592.94  1596.51  1597.72  1599.09  1612.08  1613.58
eigval :     3069.58  3070.11  3070.30  3073.11  3074.71  3075.02
eigval :     3075.50  3078.29  3078.43  3078.77  3081.39  3082.61
eigval :     3083.07  3083.25  3083.41  3083.66  3086.19  3088.92
eigval :     3089.38  3090.73  3091.79  3092.28  3092.63  3093.29
eigval :     3096.36  3098.30  3099.90  3103.52  3104.25  3104.82
eigval :     3105.66  3106.61  3112.26

   temp. (K)  partition function   enthalpy   heat capacity  entropy
                                   cal/mol     cal/K/mol   cal/K/mol   J/K/mol
 298.15  VIB  0.307E+22            25757.817    160.637    162.461
         ROT  0.167E+09              888.752      2.981     40.611
         INT  0.513E+30            26646.570    163.618    203.072
         TR   0.185E+29             1481.254      4.968     45.564
         TOT                       28127.8237   168.5860   248.6362  1040.2941

       T/K    H(0)-H(T)+PV         H(T)/Eh          T*S/Eh         G(T)/Eh
   ------------------------------------------------------------------------
    298.15    0.448245E-01    0.722568E+00    0.118135E+00    0.604433E+00
   ------------------------------------------------------------------------

         :::::::::::::::::::::::::::::::::::::::::::::::::::::
         ::                  THERMODYNAMIC                  ::
         :::::::::::::::::::::::::::::::::::::::::::::::::::::
         :: total free energy        -140.198051587704 Eh   ::
         ::.................................................::
         :: total energy             -140.802484695052 Eh   ::
         :: zero point energy           0.677743671317 Eh   ::
         :: G(RRHO) w/o ZPVE           -0.073310563969 Eh   ::
         :: G(RRHO) contrib.            0.604433107348 Eh   ::
         :::::::::::::::::::::::::::::::::::::::::::::::::::::

           -------------------------------------------------
          | TOTAL ENERGY             -140.802484695052 Eh   |
          | TOTAL ENTHALPY           -140.079916483531 Eh   |
          | TOTAL FREE ENERGY        -140.198051587704 Eh   |
          | GRADIENT NORM               0.000048773365 Eh/α |
          | HOMO-LUMO GAP               1.650872965338 eV   |
           -------------------------------------------------

 * finished run on 2025/09/13 at 07:48:46.000
