   * xtb version 6.7.1 (edcfbbe) compiled by 'albert@albert-system' on 2024-07-22

   ID    Z sym.   atoms
    1    6 C      1-13, 15-27, 29, 30, 32-44
    2    7 N      14, 28, 31
    3    1 H      45-71

          program call               : xtb data2507/toluene/26DCzPPy/26DCzPPy.xyz --gfn 2 --gbsa toluene --ohess vtight --parallel 40 --molden --ceasefiles --namespace data2507/toluene/26DCzPPy/26DCzPPy_toluene_S0_preOpt
      * Solvation model:               GBSA
        Solvent                        toluene
        Solvent mass                       9.2140E+01 g/mol
          :  Hamiltonian                  GFN2-xTB          :
 * total energy  :  -110.4261863 Eh     change       -0.4020109E-08 Eh
 * total energy  :  -110.4394686 Eh     change       -0.1328235E-01 Eh
 * total energy  :  -110.4424335 Eh     change       -0.2964895E-02 Eh
 * total energy  :  -110.4430846 Eh     change       -0.6511416E-03 Eh
 * total energy  :  -110.4435809 Eh     change       -0.4962512E-03 Eh
 * total energy  :  -110.4437481 Eh     change       -0.1671506E-03 Eh
 * total energy  :  -110.4438361 Eh     change       -0.8801116E-04 Eh
 * total energy  :  -110.4438757 Eh     change       -0.3964826E-04 Eh
 * total energy  :  -110.4439193 Eh     change       -0.4354388E-04 Eh
 * total energy  :  -110.4439550 Eh     change       -0.3576338E-04 Eh
 * total energy  :  -110.4442812 Eh     change       -0.1459417E-05 Eh
 * total energy  :  -110.4442824 Eh     change       -0.1188237E-05 Eh
 * total energy  :  -110.4442831 Eh     change       -0.7083809E-06 Eh
 * total energy  :  -110.4442835 Eh     change       -0.4466523E-06 Eh
 * total energy  :  -110.4442839 Eh     change       -0.3331083E-06 Eh
 * total energy  :  -110.4442842 Eh     change       -0.3616298E-06 Eh
 * total energy  :  -110.4442847 Eh     change       -0.4503277E-06 Eh
 * total energy  :  -110.4442852 Eh     change       -0.5585590E-06 Eh
 * total energy  :  -110.4442852 Eh     change       -0.3936933E-08 Eh
   *** GEOMETRY OPTIMIZATION CONVERGED AFTER 44 ITERATIONS ***

 final structure:
================
71
 xtb: 6.7.1 (edcfbbe)
C           -3.46874825070528       -1.76196583188722       -2.40661666920028
C           -2.33393337842336       -1.03481781643543       -2.10157274223005
C           -2.37167488478553       -0.04258226192195       -1.12262107110825
C           -1.15108802017768        0.72070734410154       -0.81673598830604
C           -1.19452067212945        2.02102713217587       -0.30812906671465
C           -0.00002020862273        2.67418577242189       -0.05988506408440
C            1.19448759681121        2.02103702965027       -0.30811852419589
C            1.15107001227542        0.72071646249600       -0.81672409039229
C            2.37166741972079       -0.04255344587709       -1.12261463053113
C            2.33393863355024       -1.03478390102145       -2.10157214162417
C            3.46876103101879       -1.76191976989689       -2.40661628321904
C            4.65897914127318       -1.51390753878227       -1.74531336814503
C            4.70482889663055       -0.53761882690373       -0.75427500179324
N            5.90165416789690       -0.28449401050032       -0.06471677570382
C            6.68951307439304       -1.22758930709379        0.56453151784044
C            6.48870082446011       -2.59351079749381        0.70762750180579
C            7.43327101871237       -3.31411649552315        1.41337760804462
C            8.54964986188138       -2.69673136443911        1.97482741270332
C            8.74238018969012       -1.33459407828114        1.85644610828225
C            7.80673845543059       -0.58828992033037        1.15081801738534
C            7.67982434196119        0.81076675683929        0.85101850783250
C            8.45868262976935        1.92538030766099        1.13577152594366
C            8.04828125255170        3.15768972757081        0.66711073969186
C            6.88591426327516        3.28501578188440       -0.09127137664697
C            6.09496554218115        2.19140205008468       -0.38771584531377
C            6.48844515435475        0.95368775980654        0.10212349027001
C            3.56288180955097        0.19130367205518       -0.44348209737511
N           -0.00000527975119        0.10726338918803       -1.07033373320651
C           -3.56289422269657        0.19126509458915       -0.44349472120832
C           -4.70483544921909       -0.53766657404968       -0.75428913747332
N           -5.90166574360395       -0.28452337965734       -0.06474656562356
C           -6.48843240372998        0.95367146220753        0.10209220030710
C           -6.09494613255349        2.19137536569464       -0.38776902352530
C           -6.88587759150885        3.28500251069625       -0.09132755395241
C           -8.04823991191338        3.15770130769915        0.66706583016847
C           -8.45865554018766        1.92540135834551        1.13573791437023
C           -7.67980978227800        0.81077686557593        0.85099470041194
C           -7.80672438474293       -0.58826957053266        1.15084132141511
C           -8.74235711105164       -1.33454919590798        1.85650688218044
C           -8.54965627661375       -2.69669134043053        1.97488310720776
C           -7.43331340283018       -3.31410618927320        1.41339381165539
C           -6.48874516046034       -2.59352254883568        0.70761898203323
C           -6.68953343448755       -1.22759763040378        0.56452107277534
C           -4.65897261266455       -1.51396261854552       -1.74532047920146
H           -3.43200089427583       -2.52319463906616       -3.17171914650520
H           -1.40380846605133       -1.21854433919504       -2.61457659930504
H           -2.13569650622863        2.51794078945198       -0.13556134256169
H           -0.00002565580736        3.68657980519338        0.31885233618441
H            2.13565836920537        2.51795877251454       -0.13554653762650
H            1.40381455352607       -1.21852261511201       -2.61457339087156
H            3.43202965039566       -2.52313157304500       -3.17173666258830
H            5.55365158966729       -2.06426324578322       -1.99467319176714
H            5.61849266052335       -3.07756183135927        0.29042376424347
H            7.30164425821185       -4.37943652989893        1.53627886767446
H            9.26717759872735       -3.29534352556029        2.51684766192009
H            9.59952566937981       -0.85464933712949        2.30502593930029
H            9.36835890393950        1.82499540435000        1.70894453212231
H            8.63851222364143        4.03702184396214        0.88023434614880
H            6.59927728705081        4.25983429293346       -0.45880838574806
H            5.20694952270118        2.29615749025962       -0.99297937590483
H            3.60878262086554        0.91620177149506        0.35515479176135
H           -3.60881126047931        0.91617880183035        0.35512693469665
H           -5.20695436944290        2.29610921438298       -0.99307186478986
H           -6.59924493431963        4.25980928259197       -0.45889939045033
H           -8.63844490352818        4.03704684139513        0.88020605587094
H           -9.36829867580276        1.82503945615957        1.70896767304986
H           -9.59951587544585       -0.85459576106828        2.30505138458708
H           -9.26720142025963       -3.29529105399895        2.51689317797817
H           -7.30169090853037       -4.37942312962461        1.53632261282893
H           -5.61853419084717       -3.07758501149373        0.29043507420065
H           -5.55363230906593       -2.06434391090627       -1.99466856599720

          :  Hamiltonian                  GFN2-xTB          :
         :: gradient norm              0.000063903025 Eh/a0 ::
         :: HOMO-LUMO gap              2.610780977389 eV    ::
         :: SCC energy              -112.529151181244 Eh    ::
         :: -> dispersion             -0.096124304866 Eh    ::
         :: -> Gsolv                  -0.046015844690 Eh    ::
         :: repulsion energy           2.084865943576 Eh    ::

    * Orbital Energies and Occupations

         #    Occupation            Energy/Eh            Energy/eV
      -------------------------------------------------------------
         1        2.0000           -0.6762275             -18.4011
       ...           ...                  ...                  ...
        91        2.0000           -0.4182298             -11.3806
        92        2.0000           -0.4177413             -11.3673
        93        2.0000           -0.4128989             -11.2356
        94        2.0000           -0.4120283             -11.2119
        95        2.0000           -0.4090407             -11.1306
        96        2.0000           -0.4052156             -11.0265
        97        2.0000           -0.4051779             -11.0255
        98        2.0000           -0.3937659             -10.7149
        99        2.0000           -0.3786388             -10.3033
       100        2.0000           -0.3786378             -10.3033
       101        2.0000           -0.3710190             -10.0959
       102        2.0000           -0.3626335              -9.8678
       103        2.0000           -0.3626276              -9.8676 (HOMO)
       104                         -0.2666832              -7.2568 (LUMO)
       105                         -0.2659248              -7.2362
       106                         -0.2459206              -6.6918
       107                         -0.2459190              -6.6918
       108                         -0.2336911              -6.3591
       109                         -0.2336500              -6.3579
       110                         -0.2220254              -6.0416
       111                         -0.2220251              -6.0416
       112                         -0.2210604              -6.0154
       113                         -0.2019329              -5.4949
       114                         -0.1905263              -5.1845
       ...                                ...                  ...
       203                          0.7443788              20.2556
      -------------------------------------------------------------
                  HL-Gap            0.0959444 Eh            2.6108 eV

     #   Z          covCN         q      C6AA      α(0)
     1   6 C        2.918    -0.027    28.681     8.782
     2   6 C        2.925    -0.031    28.764     8.795
     3   6 C        2.979     0.007    27.869     8.660
     4   6 C        2.951     0.095    25.894     8.346
     5   6 C        2.917    -0.048    29.193     8.860
     6   6 C        2.924    -0.014    28.374     8.735
     7   6 C        2.917    -0.048    29.193     8.860
     8   6 C        2.951     0.095    25.894     8.346
     9   6 C        2.979     0.007    27.869     8.660
    10   6 C        2.925    -0.031    28.764     8.795
    11   6 C        2.918    -0.027    28.681     8.782
    12   6 C        2.922    -0.042    29.039     8.837
    13   6 C        2.911     0.065    26.551     8.449
    14   7 N        2.802    -0.047    22.139     6.988
    15   6 C        3.076     0.047    26.859     8.497
    16   6 C        2.909    -0.052    29.289     8.874
    17   6 C        2.924    -0.035    28.867     8.811
    18   6 C        2.919    -0.043    29.061     8.840
    19   6 C        2.912    -0.035    28.869     8.811
    20   6 C        3.067    -0.019    28.407     8.740
    21   6 C        3.067    -0.019    28.404     8.739
    22   6 C        2.912    -0.035    28.867     8.810
    23   6 C        2.919    -0.043    29.067     8.841
    24   6 C        2.923    -0.035    28.880     8.813
    25   6 C        2.910    -0.052    29.295     8.875
    26   6 C        3.076     0.047    26.864     8.498
    27   6 C        2.926    -0.047    29.167     8.857
    28   7 N        1.854    -0.254    27.462     7.767
    29   6 C        2.926    -0.047    29.167     8.857
    30   6 C        2.911     0.065    26.551     8.449
    31   7 N        2.802    -0.047    22.139     6.988
    32   6 C        3.076     0.047    26.864     8.498
    33   6 C        2.910    -0.052    29.295     8.875
    34   6 C        2.923    -0.035    28.880     8.813
    35   6 C        2.919    -0.043    29.067     8.841
    36   6 C        2.912    -0.035    28.867     8.810
    37   6 C        3.067    -0.019    28.404     8.739
    38   6 C        3.067    -0.019    28.407     8.740
    39   6 C        2.912    -0.035    28.869     8.811
    40   6 C        2.919    -0.043    29.061     8.840
    41   6 C        2.924    -0.035    28.867     8.811
    42   6 C        2.909    -0.052    29.290     8.874
    43   6 C        3.076     0.047    26.859     8.497
    44   6 C        2.922    -0.042    29.039     8.837
    45   1 H        0.926     0.046     2.365     2.405
    46   1 H        0.926     0.055     2.262     2.352
    47   1 H        0.926     0.039     2.458     2.452
    48   1 H        0.926     0.039     2.458     2.452
    49   1 H        0.926     0.039     2.458     2.452
    50   1 H        0.926     0.055     2.262     2.352
    51   1 H        0.926     0.046     2.365     2.405
    52   1 H        0.926     0.046     2.370     2.407
    53   1 H        0.926     0.031     2.578     2.511
    54   1 H        0.926     0.030     2.582     2.513
    55   1 H        0.926     0.028     2.618     2.530
    56   1 H        0.926     0.030     2.587     2.515
    57   1 H        0.926     0.030     2.585     2.514
    58   1 H        0.926     0.027     2.622     2.532
    59   1 H        0.926     0.029     2.596     2.520
    60   1 H        0.926     0.028     2.621     2.532
    61   1 H        0.926     0.043     2.410     2.428
    62   1 H        0.926     0.043     2.410     2.428
    63   1 H        0.926     0.028     2.621     2.532
    64   1 H        0.926     0.029     2.596     2.520
    65   1 H        0.926     0.027     2.622     2.532
    66   1 H        0.926     0.030     2.585     2.514
    67   1 H        0.926     0.030     2.587     2.515
    68   1 H        0.926     0.028     2.618     2.530
    69   1 H        0.926     0.030     2.582     2.513
    70   1 H        0.926     0.031     2.578     2.511
    71   1 H        0.926     0.046     2.370     2.407

molecular dipole:
                 x           y           z       tot (Debye)
 q only:       -0.000      -0.176      -0.675
   full:       -0.000       0.212      -0.530       1.451

 projected vibrational frequencies (cm⁻¹)
eigval :       -0.00    -0.00     0.00     0.00     0.00     0.00
eigval :      -11.21     6.51    14.42    18.36    28.53    31.85
eigval :       56.41    62.47    66.62    90.52    90.56   103.48
eigval :      105.19   125.69   126.29   138.37   139.89   183.35
eigval :      203.35   206.09   229.36   230.40   245.79   263.27
eigval :      270.86   271.08   282.05   302.54   331.13   334.16
eigval :      349.07   371.49   385.31   393.32   395.72   397.33
eigval :      421.80   422.41   428.62   433.24   435.71   438.65
eigval :      461.96   515.92   516.52   521.26   522.56   532.97
eigval :      538.63   539.35   549.17   581.66   586.36   592.23
eigval :      597.90   604.21   610.58   615.91   621.92   658.20
eigval :      667.40   670.78   671.36   675.64   679.89   703.66
eigval :      706.71   710.45   711.97   749.03   755.05   763.84
eigval :      766.15   766.19   777.69   777.85   782.37   801.14
eigval :      809.39   843.58   865.62   865.76   870.28   870.44
eigval :      881.18   886.63   887.67   895.89   896.29   899.05
eigval :      899.15   901.45   901.60   905.46   908.04   918.32
eigval :      918.32   920.78   921.20   930.54   931.49   933.39
eigval :      937.37   980.48  1000.96  1002.91  1006.64  1011.43
eigval :     1011.95  1068.06  1068.13  1071.65  1071.67  1088.23
eigval :     1110.03  1114.42  1115.47  1124.44  1125.99  1130.30
eigval :     1149.39  1149.58  1168.55  1174.07  1174.46  1178.46
eigval :     1178.70  1179.72  1180.23  1188.36  1189.30  1231.55
eigval :     1234.91  1234.94  1237.13  1256.34  1258.93  1259.01
eigval :     1287.04  1294.91  1299.07  1301.46  1301.98  1308.03
eigval :     1319.30  1321.02  1353.16  1354.56  1357.44  1357.69
eigval :     1361.28  1362.50  1385.88  1411.80  1418.86  1424.21
eigval :     1426.78  1426.89  1445.27  1453.00  1470.64  1472.41
eigval :     1475.87  1476.77  1486.55  1486.56  1553.64  1557.92
eigval :     1570.12  1571.08  1574.92  1575.92  1586.31  1586.45
eigval :     1587.66  1587.70  1597.16  1597.18  1612.80  1612.83
eigval :     3068.14  3069.43  3069.44  3070.57  3070.57  3075.13
eigval :     3075.15  3076.53  3076.53  3081.64  3081.79  3082.51
eigval :     3082.52  3084.34  3084.35  3089.69  3089.69  3091.68
eigval :     3091.89  3092.44  3092.46  3095.68  3095.81  3100.14
eigval :     3102.75  3112.74  3114.66

   temp. (K)  partition function   enthalpy   heat capacity  entropy
                                   cal/mol     cal/K/mol   cal/K/mol   J/K/mol
 298.15  VIB  0.233E+16            19430.014    126.119    120.420
         ROT  0.882E+08              888.752      2.981     39.338
         INT  0.205E+24            20318.766    129.100    159.757
         TR   0.129E+29             1481.254      4.968     44.842
         TOT                       21800.0199   134.0683   204.5991   856.0426

       T/K    H(0)-H(T)+PV         H(T)/Eh          T*S/Eh         G(T)/Eh
   ------------------------------------------------------------------------
    298.15    0.347405E-01    0.579685E+00    0.972116E-01    0.482474E+00
   ------------------------------------------------------------------------

         :::::::::::::::::::::::::::::::::::::::::::::::::::::
         ::                  THERMODYNAMIC                  ::
         :::::::::::::::::::::::::::::::::::::::::::::::::::::
         :: total free energy        -109.961811536146 Eh   ::
         ::.................................................::
         :: total energy             -110.444285234585 Eh   ::
         :: zero point energy           0.544944783364 Eh   ::
         :: G(RRHO) w/o ZPVE           -0.062471084925 Eh   ::
         :: G(RRHO) contrib.            0.482473698439 Eh   ::
         :::::::::::::::::::::::::::::::::::::::::::::::::::::

           -------------------------------------------------
          | TOTAL ENERGY             -110.444285234585 Eh   |
          | TOTAL ENTHALPY           -109.864599908133 Eh   |
          | TOTAL FREE ENERGY        -109.961811536146 Eh   |
          | GRADIENT NORM               0.000063912099 Eh/α |
          | HOMO-LUMO GAP               2.610781066515 eV   |
           -------------------------------------------------

 * finished run on 2025/09/14 at 03:05:15.756
