   * xtb version 6.7.1 (edcfbbe) compiled by 'albert@albert-system' on 2024-07-22

   ID    Z sym.   atoms
    1    6 C      1-13, 15-27, 29, 30, 32-44
    2    7 N      14, 28, 31
    3    1 H      45-71

          program call               : xtb data2507/toluene/26DCzPPy/26DCzPPy_toluene_S0_finalOpt.xtbopt.xyz --gfn 2 --uhf 2 --gbsa toluene --ohess vtight --parallel 40 --molden --ceasefiles --namespace data2507/toluene/26DCzPPy/26DCzPPy_toluene_T1_preOpt
      * Solvation model:               GBSA
        Solvent                        toluene
        Solvent mass                       9.2140E+01 g/mol
          :  Hamiltonian                  GFN2-xTB          :
 * total energy  :  -110.3457623 Eh     change       -0.8632185E-08 Eh
 * total energy  :  -110.3477943 Eh     change       -0.2032012E-02 Eh
 * total energy  :  -110.3486779 Eh     change       -0.8835449E-03 Eh
 * total energy  :  -110.3487582 Eh     change       -0.8032055E-04 Eh
 * total energy  :  -110.3488378 Eh     change       -0.7962153E-04 Eh
 * total energy  :  -110.3488608 Eh     change       -0.2301669E-04 Eh
 * total energy  :  -110.3488837 Eh     change       -0.2283660E-04 Eh
 * total energy  :  -110.3488932 Eh     change       -0.9547403E-05 Eh
 * total energy  :  -110.3489016 Eh     change       -0.8424373E-05 Eh
 * total energy  :  -110.3489119 Eh     change       -0.1030182E-04 Eh
 * total energy  :  -110.3490165 Eh     change       -0.2610334E-06 Eh
 * total energy  :  -110.3490168 Eh     change       -0.2641606E-06 Eh
 * total energy  :  -110.3490171 Eh     change       -0.3424315E-06 Eh
 * total energy  :  -110.3490174 Eh     change       -0.3006127E-06 Eh
 * total energy  :  -110.3490177 Eh     change       -0.2638435E-06 Eh
 * total energy  :  -110.3490179 Eh     change       -0.2693437E-06 Eh
 * total energy  :  -110.3490183 Eh     change       -0.3698675E-06 Eh
 * total energy  :  -110.3490183 Eh     change        0.3840782E-08 Eh
 * total energy  :  -110.3490183 Eh     change        0.3311129E-11 Eh
   *** GEOMETRY OPTIMIZATION CONVERGED AFTER 69 ITERATIONS ***

 final structure:
================
71
 xtb: 6.7.1 (edcfbbe)
C           -4.60688366514383       -2.68749557361830        1.11503100931301
C           -3.60290577262152       -3.59107662340183        0.84277485170564
C           -2.32374409920901       -3.14502500738932        0.45092385879040
C           -1.19713842247524       -4.00889122809165        0.20180235417659
C           -1.23475969318762       -5.42483209241590        0.19339021658608
C           -0.05244906569242       -6.11268234685879       -0.02633533556633
C            1.13956540655756       -5.44177571039978       -0.23746942693865
C            1.12628438472505       -4.02426752584218       -0.23041400056765
C            2.26763243980014       -3.17768294164731       -0.46258861695827
C            3.54962481947501       -3.64371706355185       -0.82423929736754
C            4.57460091331260       -2.75689904130516       -1.07031522574814
C            4.38276395494277       -1.38328252190706       -0.98157329594082
C            3.11806279835035       -0.90280760661703       -0.60930491432693
N            2.87153492706211        0.47696846634635       -0.53383807184381
C            3.65933018149773        1.41269235593301        0.10098697781196
C            4.80728720279491        1.23119591272948        0.86187096690438
C            5.39673208894407        2.35138048217156        1.41928130892800
C            4.85720917027945        3.62238570709449        1.23624654153656
C            3.69945308883152        3.80662480735791        0.49998555196421
C            3.08962399165226        2.69820504404461       -0.06719203802037
C            1.89355493767500        2.51369763156314       -0.84499692650033
C            0.93457606267370        3.38321175113847       -1.34120647899666
C           -0.11568378586569        2.86299502791975       -2.07567012870146
C           -0.20042120903626        1.49750152261301       -2.33550501103522
C            0.75182496256590        0.61313551362578       -1.86483339364081
C            1.79340849868749        1.12476844739897       -1.10029570193176
C            2.09464590937832       -1.78632261293100       -0.34263113789636
N           -0.03156819616484       -3.40415917645476       -0.01208251613680
C           -2.13174137112809       -1.75753867066919        0.32385287917962
C           -3.13265515849993       -0.85674779996230        0.61848000511860
N           -2.86339747482503        0.51835991509747        0.53825288698686
C           -3.65449262462839        1.47166514596720       -0.06621281621170
C           -4.83294169407715        1.31603358844422       -0.78502317810727
C           -5.42047175527757        2.44999714593301       -1.31603389889219
C           -4.84929812815426        3.70929793902380       -1.14919730416473
C           -3.66169020140564        3.86760336514807       -0.45577957674351
C           -3.05389124384767        2.74513096806235        0.08542916743121
C           -1.83602961278146        2.53486484942245        0.82170055336361
C           -0.84664212641218        3.38490807193630        1.29121109379206
C            0.21538818060076        2.84324658868209        1.99255581056708
C            0.28324881741092        1.47547024764959        2.24472551566473
C           -0.69883557569480        0.61029960798225        1.80035903489854
C           -1.75440448814882        1.14351203793142        1.07031653541560
C           -4.39415036063120       -1.31729342379773        1.02403906450036
H           -5.57770875578007       -3.04811163757026        1.42443350524333
H           -3.79906765308902       -4.64708125813585        0.94488375394712
H           -2.16275741857115       -5.94672090399175        0.35599118118944
H           -0.06124410069683       -7.19484949531465       -0.03245740250465
H            2.05908613851386       -5.97678221975114       -0.40588834890816
H            3.73178299771276       -4.70273864040559       -0.92093036616992
H            5.54691794640011       -3.13328037717762       -1.35546019466890
H            5.17645118466808       -0.69597497115302       -1.22764228387535
H            5.21961401911948        0.24716214853197        1.02387563035402
H            6.29157295132050        2.23680591010065        2.01302499812332
H            5.34723056321223        4.47352534578490        1.68549387144350
H            3.27473772434042        4.79089906174831        0.37346506435362
H            1.01087146453099        4.44391567027439       -1.15864981631935
H           -0.87870587053927        3.52079773855999       -2.46343125672689
H           -1.02425275261663        1.12132557071330       -2.92413006531357
H            0.69123165980972       -0.43927958901772       -2.09607847636931
H            1.13578141151940       -1.41645222461912       -0.01669187555983
H           -1.17635964704628       -1.40422322556490       -0.02929958342573
H           -5.27045277573123        0.34117395223222       -0.93576269582415
H           -6.33903763677364        2.35552122581775       -1.87614461451418
H           -5.33852432815394        4.57179552540772       -1.57711495643696
H           -3.21324846294652        4.84281010721695       -0.34167730053787
H           -0.90925129379666        4.44749042964622        1.11451746730446
H            1.00125566528939        3.48560759469417        2.35991837277584
H            1.11742836675239        1.08219072748224        2.80698093398953
H           -0.65018061352752       -0.44359597164744        2.02755917158517
H           -5.16952484331750       -0.61779505459855        1.29304768184923

          :  Hamiltonian                  GFN2-xTB          :
         :: gradient norm              0.000091554596 Eh/a0 ::
         :: HOMO-LUMO gap              0.022358876584 eV    ::
         :: SCC energy              -112.420382381805 Eh    ::
         :: -> dispersion             -0.110526907840 Eh    ::
         :: -> Gsolv                  -0.040508833419 Eh    ::
         :: repulsion energy           2.071364065600 Eh    ::

    * Orbital Energies and Occupations

         #    Occupation            Energy/Eh            Energy/eV
      -------------------------------------------------------------
         1        2.0000           -0.6826255             -18.5752
       ...           ...                  ...                  ...
        92        2.0000           -0.4152938             -11.3007
        93        2.0000           -0.4127871             -11.2325
        94        2.0000           -0.4090211             -11.1300
        95        2.0000           -0.4061790             -11.0527
        96        2.0000           -0.4056645             -11.0387
        97        2.0000           -0.3946108             -10.7379
        98        2.0000           -0.3850997             -10.4791
        99        2.0000           -0.3845465             -10.4640
       100        1.9999           -0.3735483             -10.1648
       101        1.8655           -0.3665601              -9.9746
       102        1.6028           -0.3651881              -9.9373
       103        1.5318           -0.3649130              -9.9298
       104        0.6058           -0.2595024              -7.0614 (HOMO)
       105        0.3930           -0.2586808              -7.0391 (LUMO)
       106        0.0012           -0.2526754              -6.8756
       107        0.0000           -0.2493140              -6.7842
       108                         -0.2289456              -6.2299
       109                         -0.2282695              -6.2115
       110                         -0.2258432              -6.1455
       111                         -0.2249941              -6.1224
       112                         -0.2034947              -5.5374
       113                         -0.1971743              -5.3654
       114                         -0.1934516              -5.2641
       115                         -0.1916233              -5.2143
       ...                                ...                  ...
       203                          0.7396955              20.1281
      -------------------------------------------------------------
                  HL-Gap            0.0008215 Eh            0.0224 eV

     #   Z          covCN         q      C6AA      α(0)
     1   6 C        2.915    -0.033    28.820     8.803
     2   6 C        2.918    -0.044    29.086     8.844
     3   6 C        2.977    -0.008    28.205     8.712
     4   6 C        2.923     0.076    26.299     8.410
     5   6 C        2.913    -0.066    29.641     8.928
     6   6 C        2.917    -0.029    28.714     8.787
     7   6 C        2.913    -0.065    29.621     8.925
     8   6 C        2.923     0.075    26.320     8.413
     9   6 C        2.976    -0.008    28.219     8.714
    10   6 C        2.917    -0.044    29.095     8.845
    11   6 C        2.915    -0.033    28.825     8.804
    12   6 C        2.918    -0.059    29.471     8.902
    13   6 C        2.908     0.056    26.737     8.479
    14   7 N        2.803    -0.021    21.646     6.910
    15   6 C        3.075     0.049    26.822     8.491
    16   6 C        2.909    -0.044    29.081     8.843
    17   6 C        2.922    -0.033    28.815     8.803
    18   6 C        2.920    -0.036    28.886     8.814
    19   6 C        2.912    -0.030    28.752     8.793
    20   6 C        3.066    -0.013    28.263     8.717
    21   6 C        3.066    -0.013    28.269     8.718
    22   6 C        2.912    -0.030    28.744     8.791
    23   6 C        2.920    -0.034    28.850     8.808
    24   6 C        2.923    -0.032    28.803     8.801
    25   6 C        2.910    -0.044    29.098     8.845
    26   6 C        3.076     0.049    26.828     8.492
    27   6 C        2.931    -0.050    29.247     8.869
    28   7 N        1.867    -0.217    26.572     7.641
    29   6 C        2.932    -0.050    29.237     8.868
    30   6 C        2.908     0.057    26.731     8.478
    31   7 N        2.803    -0.021    21.653     6.911
    32   6 C        3.074     0.049    26.826     8.492
    33   6 C        2.909    -0.044    29.085     8.843
    34   6 C        2.923    -0.033    28.815     8.803
    35   6 C        2.920    -0.036    28.887     8.814
    36   6 C        2.912    -0.030    28.754     8.793
    37   6 C        3.066    -0.013    28.268     8.718
    38   6 C        3.066    -0.013    28.271     8.719
    39   6 C        2.912    -0.030    28.744     8.791
    40   6 C        2.920    -0.034    28.847     8.808
    41   6 C        2.923    -0.032    28.800     8.801
    42   6 C        2.910    -0.044    29.100     8.846
    43   6 C        3.075     0.049    26.831     8.493
    44   6 C        2.918    -0.059    29.457     8.900
    45   1 H        0.926     0.032     2.564     2.504
    46   1 H        0.926     0.028     2.611     2.527
    47   1 H        0.926     0.024     2.667     2.554
    48   1 H        0.925     0.026     2.650     2.545
    49   1 H        0.926     0.025     2.665     2.553
    50   1 H        0.926     0.028     2.620     2.531
    51   1 H        0.926     0.031     2.572     2.508
    52   1 H        0.926     0.033     2.541     2.493
    53   1 H        0.926     0.039     2.460     2.453
    54   1 H        0.926     0.038     2.479     2.462
    55   1 H        0.926     0.038     2.481     2.463
    56   1 H        0.926     0.040     2.442     2.444
    57   1 H        0.926     0.042     2.422     2.434
    58   1 H        0.926     0.038     2.477     2.461
    59   1 H        0.926     0.034     2.528     2.486
    60   1 H        0.926     0.038     2.482     2.464
    61   1 H        0.926     0.045     2.388     2.417
    62   1 H        0.926     0.045     2.382     2.414
    63   1 H        0.926     0.039     2.459     2.452
    64   1 H        0.926     0.038     2.479     2.462
    65   1 H        0.926     0.038     2.481     2.463
    66   1 H        0.926     0.040     2.442     2.444
    67   1 H        0.926     0.042     2.422     2.434
    68   1 H        0.926     0.038     2.478     2.461
    69   1 H        0.926     0.034     2.535     2.490
    70   1 H        0.926     0.038     2.480     2.463
    71   1 H        0.926     0.034     2.531     2.488

molecular dipole:
                 x           y           z       tot (Debye)
 q only:       -0.009       2.072       0.011
   full:       -0.012       1.530       0.010       3.889

 projected vibrational frequencies (cm⁻¹)
eigval :       -0.00     0.00     0.00     0.00     0.00     0.00
eigval :        8.24    12.67    23.58    25.72    30.87    46.49
eigval :       63.08    65.67    75.35    87.82    92.08    99.12
eigval :      105.23   121.62   139.90   146.31   167.81   183.88
eigval :      188.88   211.06   212.65   229.53   235.55   255.43
eigval :      269.11   272.66   277.58   292.68   301.29   334.78
eigval :      344.55   373.54   378.69   386.40   393.18   393.99
eigval :      411.46   414.31   420.84   422.32   431.91   435.35
eigval :      436.90   486.68   505.79   513.97   514.50   522.45
eigval :      534.00   536.72   542.78   554.00   567.07   575.17
eigval :      580.03   583.76   587.60   605.15   605.95   610.10
eigval :      619.62   633.23   644.44   645.39   665.83   673.14
eigval :      673.31   697.99   702.68   708.06   708.90   710.30
eigval :      745.82   753.80   758.76   760.16   762.44   767.04
eigval :      771.26   775.83   779.62   832.18   833.96   840.73
eigval :      855.82   858.71   863.68   872.67   872.85   877.56
eigval :      882.90   891.93   895.63   896.38   903.05   903.95
eigval :      904.33   905.82   909.38   916.67   919.09   920.09
eigval :      920.29   928.39   929.11   966.20   980.13   994.70
eigval :     1000.84  1009.82  1010.49  1065.20  1065.94  1068.68
eigval :     1069.12  1070.52  1092.21  1093.11  1110.28  1112.17
eigval :     1118.57  1131.09  1141.13  1141.55  1159.27  1166.65
eigval :     1168.38  1175.26  1176.38  1178.57  1180.49  1192.22
eigval :     1201.12  1223.21  1227.19  1228.37  1228.42  1241.93
eigval :     1249.67  1274.31  1282.88  1283.56  1287.17  1288.55
eigval :     1317.07  1332.61  1334.78  1337.56  1339.58  1348.29
eigval :     1350.85  1357.22  1358.17  1361.37  1382.44  1394.61
eigval :     1401.27  1409.36  1409.71  1413.37  1425.80  1438.51
eigval :     1454.32  1455.94  1460.53  1460.99  1470.44  1479.96
eigval :     1480.42  1483.23  1536.63  1548.92  1561.64  1562.92
eigval :     1575.35  1576.57  1576.92  1578.97  1592.40  1595.42
eigval :     3046.18  3068.24  3069.14  3076.98  3077.02  3077.39
eigval :     3078.53  3083.45  3083.57  3086.33  3086.52  3090.60
eigval :     3090.93  3091.33  3091.60  3092.67  3093.93  3096.44
eigval :     3096.85  3098.16  3099.31  3099.86  3100.47  3100.94
eigval :     3103.45  3104.02  3108.33

   temp. (K)  partition function   enthalpy   heat capacity  entropy
                                   cal/mol     cal/K/mol   cal/K/mol   J/K/mol
 298.15  VIB  0.533E+15            19834.783    130.595    121.316
         ROT  0.435E+08              888.752      2.981     37.932
         INT  0.232E+23            20723.535    133.576    159.247
         TR   0.129E+29             1481.254      4.968     44.842
         TOT                       22204.7891   138.5441   204.0890   853.9083

       T/K    H(0)-H(T)+PV         H(T)/Eh          T*S/Eh         G(T)/Eh
   ------------------------------------------------------------------------
    298.15    0.353856E-01    0.572464E+00    0.969693E-01    0.475495E+00
   ------------------------------------------------------------------------

         :::::::::::::::::::::::::::::::::::::::::::::::::::::
         ::                  THERMODYNAMIC                  ::
         :::::::::::::::::::::::::::::::::::::::::::::::::::::
         :: total free energy        -109.873523266329 Eh   ::
         ::.................................................::
         :: total energy             -110.349018325884 Eh   ::
         :: zero point energy           0.537078737579 Eh   ::
         :: G(RRHO) w/o ZPVE           -0.061583678024 Eh   ::
         :: G(RRHO) contrib.            0.475495059555 Eh   ::
         :::::::::::::::::::::::::::::::::::::::::::::::::::::

           -------------------------------------------------
          | TOTAL ENERGY             -110.349018325884 Eh   |
          | TOTAL ENTHALPY           -109.776554004435 Eh   |
          | TOTAL FREE ENERGY        -109.873523266329 Eh   |
          | GRADIENT NORM               0.000088713886 Eh/α |
          | HOMO-LUMO GAP               0.022355342350 eV   |
           -------------------------------------------------

 * finished run on 2025/09/14 at 03:08:11.924
