   * xtb version 6.7.1 (edcfbbe) compiled by 'albert@albert-system' on 2024-07-22

   ID    Z sym.   atoms
    1    6 C      1-13, 15-27, 29, 30, 32-44
    2    7 N      14, 28, 31
    3    1 H      45-71

          program call               : xtb data2507/toluene/26DCzPPy/26DCzPPy_toluene_T1_crest.xyz --gfn 2 --uhf 2 --gbsa toluene --ohess vtight --parallel 40 --molden --ceasefiles --namespace data2507/toluene/26DCzPPy/26DCzPPy_toluene_T1_finalOpt
      * Solvation model:               GBSA
        Solvent                        toluene
        Solvent mass                       9.2140E+01 g/mol
          :  Hamiltonian                  GFN2-xTB          :
 * total energy  :  -110.3482871 Eh     change       -0.1162702E-07 Eh
 * total energy  :  -110.3483592 Eh     change       -0.7214488E-04 Eh
 * total energy  :  -110.3484393 Eh     change       -0.8013721E-04 Eh
 * total energy  :  -110.3484978 Eh     change       -0.5840369E-04 Eh
 * total energy  :  -110.3485403 Eh     change       -0.4256809E-04 Eh
 * total energy  :  -110.3485963 Eh     change       -0.5595593E-04 Eh
 * total energy  :  -110.3486326 Eh     change       -0.3637265E-04 Eh
 * total energy  :  -110.3486574 Eh     change       -0.2479446E-04 Eh
 * total energy  :  -110.3486807 Eh     change       -0.2324674E-04 Eh
 * total energy  :  -110.3487104 Eh     change       -0.2973376E-04 Eh
 * total energy  :  -110.3490508 Eh     change       -0.5954445E-06 Eh
 * total energy  :  -110.3490514 Eh     change       -0.5865451E-06 Eh
 * total energy  :  -110.3490520 Eh     change       -0.5786284E-06 Eh
 * total energy  :  -110.3490526 Eh     change       -0.5729888E-06 Eh
 * total energy  :  -110.3490531 Eh     change       -0.5694501E-06 Eh
 * total energy  :  -110.3490537 Eh     change       -0.5675140E-06 Eh
 * total energy  :  -110.3490543 Eh     change       -0.5651514E-06 Eh
 * total energy  :  -110.3490543 Eh     change        0.1283141E-08 Eh
 * total energy  :  -110.3490543 Eh     change       -0.1144670E-07 Eh
   *** GEOMETRY OPTIMIZATION CONVERGED AFTER 123 ITERATIONS ***

 final structure:
================
71
 xtb: 6.7.1 (edcfbbe)
C            2.39157652073681       -4.73612800606017        1.06005893975648
C            3.36836671740571       -3.80290259843811        0.78704847910212
C            3.01789744251378       -2.48580957339676        0.42512897383351
C            3.95314721201391       -1.41514588117741        0.19096792169605
C            5.36485522059975       -1.52855526040277        0.18262542727437
C            6.11476477748833       -0.38065499752874       -0.01682925683050
C            5.51038795265061        0.85072175705518       -0.21084134440282
C            4.09533710084987        0.91275705396632       -0.20677683673037
C            3.29774138590531        2.09046030412662       -0.43474514669120
C            3.80591727816109        3.35463394561935       -0.79889609092110
C            2.95036997295351        4.40164388514811       -1.06567467183199
C            1.57008969428208        4.24867837075521       -1.00217757549961
C            1.04804699023433        3.00253668023460       -0.62360530162647
N           -0.33682526528410        2.77725549389815       -0.58710547750018
C           -1.28878458490716        3.58992325972089       -0.01054440414506
C           -1.12694156384985        4.75995727157898        0.72059382510245
C           -2.26272275837495        5.37586265853489        1.21394964323966
C           -3.53062802382040        4.84122890940645        0.99746928269875
C           -3.69624737850721        3.66113084243104        0.29334444308784
C           -2.57190705822810        3.02465573061672       -0.20955576332462
C           -2.36910500444244        1.80412181621180       -0.94348832599958
C           -3.22827923618846        0.83685216687164       -1.44172558776520
C           -2.69185979741011       -0.23881566810585       -2.12603936517911
C           -1.31905874515075       -0.33862047198410       -2.33767180603970
C           -0.44453943204446        0.62184615917851       -1.86560992764465
C           -0.97300563727754        1.68767542184532       -1.14658856241060
C            1.90118886985829        1.96319880614427       -0.32322555568135
N            3.41591946919588       -0.21366077535162       -0.00524717256665
C            1.64724372082727       -2.18693755518002        0.32238505448195
C            0.67399499040181       -3.11289438268218        0.62858451488810
N           -0.67241535721777       -2.71790790193344        0.59811297502290
C           -1.71973826730939       -3.40436855532151        0.02285707727972
C           -1.70755925243118       -4.58677090458054       -0.70618004678699
C           -2.91221781501686       -5.05426287425783       -1.19908991678729
C           -4.10202265192153       -4.36266664132077       -0.98399208952424
C           -4.11672606085461       -3.17027387892976       -0.28128025973238
C           -2.92091048380895       -2.68095438253295        0.22142655766346
C           -2.56513865742037       -1.49519416710791        0.95419532379874
C           -3.29472351427574       -0.42669801969190        1.45227451173566
C           -2.62584173329263        0.57332668735882        2.13477112515988
C           -1.25126932885145        0.49897400031406        2.34550134060665
C           -0.50578962941099       -0.56522882032931        1.87449869704889
C           -1.16541803711995       -1.55604211271128        1.15653704591434
C            1.04043227855510       -4.41369084014128        1.00549425358729
H            2.67911650967154       -5.73850005823198        1.34468541681620
H            4.40746046488914       -4.08369234263117        0.86330831427083
H            5.83574737564403       -2.48619587043313        0.33061980337970
H            7.19490152284410       -0.44708185137006       -0.02118293461014
H            6.09446014919265        1.74303863200162       -0.36337816994859
H            4.87126792995023        3.50505617235356       -0.88161362983051
H            3.35782991662789        5.36109233576360       -1.35194970685032
H            0.91081333614531        5.05749642883584       -1.27406674096374
H           -0.14652681181752        5.16957343472587        0.90879504692473
H           -2.16359226980572        6.28851939445978        1.78283607204965
H           -4.39430434164837        5.35268480378312        1.39603735109579
H           -4.67844700313465        3.23982866369241        0.14229492699007
H           -4.29410207814098        0.92545381431976       -1.29951972854499
H           -3.34196080713849       -1.00875476101691       -2.51316142716102
H           -0.92864544455647       -1.18095087100040       -2.88968622008841
H            0.61366887426207        0.54866101585374       -2.06420964680285
H            1.50003504601718        1.02259743447577        0.01724747080795
H            1.36325141941081       -1.20395667293787       -0.01627385185176
H           -0.78696360787926       -5.11771632797828       -0.89342070998046
H           -2.92983087715562       -5.97296877138967       -1.76662868962112
H           -5.02338168594405       -4.76080844752816       -1.38262662650015
H           -5.03760172230586       -2.62770226986820       -0.13097028112947
H           -4.36337926094823       -0.37997763862911        1.31127696838603
H           -3.17310549021810        1.41961155628551        2.52145768645537
H           -0.75701508670954        1.28598936408820        2.89608207596071
H            0.55311567016135       -0.62708169681300        2.07323382444586
H            0.28788669942576       -5.13475169566883        1.28226379534460

          :  Hamiltonian                  GFN2-xTB          :
         :: gradient norm              0.000061276422 Eh/a0 ::
         :: HOMO-LUMO gap              0.020563662967 eV    ::
         :: SCC energy              -112.420318415710 Eh    ::
         :: -> dispersion             -0.112678171659 Eh    ::
         :: -> Gsolv                  -0.039960389396 Eh    ::
         :: repulsion energy           2.071264123032 Eh    ::

    * Orbital Energies and Occupations

         #    Occupation            Energy/Eh            Energy/eV
      -------------------------------------------------------------
         1        2.0000           -0.6825390             -18.5728
       ...           ...                  ...                  ...
        92        2.0000           -0.4150810             -11.2949
        93        2.0000           -0.4121825             -11.2161
        94        2.0000           -0.4091635             -11.1339
        95        2.0000           -0.4059244             -11.0458
        96        2.0000           -0.4057052             -11.0398
        97        2.0000           -0.3942486             -10.7281
        98        2.0000           -0.3856285             -10.4935
        99        2.0000           -0.3840788             -10.4513
       100        1.9999           -0.3734259             -10.1614
       101        1.9386           -0.3671953              -9.9919
       102        1.6030           -0.3650025              -9.9322
       103        1.4585           -0.3644473              -9.9171
       104        0.5977           -0.2593883              -7.0583 (HOMO)
       105        0.4015           -0.2586328              -7.0378 (LUMO)
       106        0.0007           -0.2521221              -6.8606
       107        0.0001           -0.2500110              -6.8031
       108                         -0.2297114              -6.2508
       109                         -0.2275934              -6.1931
       110                         -0.2255540              -6.1376
       111                         -0.2252166              -6.1285
       112                         -0.2034610              -5.5365
       113                         -0.1973308              -5.3696
       114                         -0.1926423              -5.2421
       115                         -0.1919183              -5.2224
       ...                                ...                  ...
       203                          0.7396065              20.1257
      -------------------------------------------------------------
                  HL-Gap            0.0007555 Eh            0.0206 eV

     #   Z          covCN         q      C6AA      α(0)
     1   6 C        2.915    -0.033    28.823     8.804
     2   6 C        2.917    -0.044    29.087     8.844
     3   6 C        2.978    -0.008    28.215     8.713
     4   6 C        2.923     0.075    26.316     8.413
     5   6 C        2.913    -0.065    29.628     8.926
     6   6 C        2.917    -0.029    28.716     8.787
     7   6 C        2.913    -0.065    29.625     8.925
     8   6 C        2.923     0.075    26.319     8.413
     9   6 C        2.978    -0.008    28.217     8.713
    10   6 C        2.917    -0.044    29.088     8.844
    11   6 C        2.915    -0.033    28.824     8.804
    12   6 C        2.918    -0.059    29.468     8.902
    13   6 C        2.907     0.056    26.736     8.478
    14   7 N        2.803    -0.021    21.649     6.910
    15   6 C        3.074     0.049    26.820     8.491
    16   6 C        2.909    -0.044    29.083     8.843
    17   6 C        2.923    -0.033    28.815     8.803
    18   6 C        2.920    -0.036    28.887     8.814
    19   6 C        2.912    -0.030    28.750     8.792
    20   6 C        3.066    -0.013    28.259     8.717
    21   6 C        3.065    -0.013    28.268     8.718
    22   6 C        2.912    -0.030    28.739     8.791
    23   6 C        2.920    -0.034    28.845     8.807
    24   6 C        2.923    -0.032    28.805     8.801
    25   6 C        2.910    -0.044    29.101     8.846
    26   6 C        3.076     0.049    26.832     8.493
    27   6 C        2.934    -0.051    29.258     8.871
    28   7 N        1.870    -0.216    26.559     7.639
    29   6 C        2.934    -0.051    29.256     8.871
    30   6 C        2.907     0.056    26.735     8.478
    31   7 N        2.803    -0.021    21.650     6.911
    32   6 C        3.074     0.049    26.821     8.491
    33   6 C        2.909    -0.044    29.084     8.843
    34   6 C        2.923    -0.033    28.815     8.803
    35   6 C        2.920    -0.036    28.887     8.814
    36   6 C        2.912    -0.030    28.750     8.792
    37   6 C        3.066    -0.013    28.260     8.717
    38   6 C        3.065    -0.013    28.269     8.719
    39   6 C        2.912    -0.030    28.739     8.791
    40   6 C        2.920    -0.034    28.845     8.807
    41   6 C        2.923    -0.032    28.805     8.801
    42   6 C        2.910    -0.044    29.100     8.846
    43   6 C        3.076     0.049    26.832     8.493
    44   6 C        2.918    -0.059    29.465     8.901
    45   1 H        0.926     0.031     2.568     2.506
    46   1 H        0.926     0.028     2.619     2.531
    47   1 H        0.926     0.024     2.671     2.556
    48   1 H        0.925     0.025     2.654     2.548
    49   1 H        0.926     0.024     2.671     2.556
    50   1 H        0.926     0.028     2.621     2.532
    51   1 H        0.926     0.031     2.569     2.507
    52   1 H        0.926     0.033     2.537     2.491
    53   1 H        0.926     0.039     2.458     2.452
    54   1 H        0.926     0.038     2.478     2.462
    55   1 H        0.926     0.038     2.481     2.463
    56   1 H        0.926     0.041     2.441     2.443
    57   1 H        0.926     0.042     2.421     2.433
    58   1 H        0.926     0.037     2.487     2.466
    59   1 H        0.926     0.034     2.531     2.488
    60   1 H        0.926     0.038     2.475     2.460
    61   1 H        0.926     0.046     2.372     2.408
    62   1 H        0.926     0.046     2.371     2.408
    63   1 H        0.926     0.039     2.458     2.452
    64   1 H        0.926     0.038     2.479     2.462
    65   1 H        0.926     0.038     2.481     2.463
    66   1 H        0.926     0.041     2.441     2.443
    67   1 H        0.926     0.042     2.422     2.433
    68   1 H        0.926     0.037     2.488     2.467
    69   1 H        0.926     0.034     2.531     2.488
    70   1 H        0.926     0.038     2.475     2.460
    71   1 H        0.926     0.034     2.536     2.490

molecular dipole:
                 x           y           z       tot (Debye)
 q only:       -2.092       0.127       0.005
   full:       -1.552       0.094       0.003       3.952

 projected vibrational frequencies (cm⁻¹)
eigval :       -0.00    -0.00    -0.00     0.00     0.00     0.00
eigval :       11.43    24.64    26.52    28.31    34.44    51.33
eigval :       65.69    67.86    77.99    87.05    94.76   101.25
eigval :      108.43   123.76   143.40   147.97   168.84   184.47
eigval :      193.11   212.56   213.57   232.38   235.93   254.29
eigval :      272.75   275.17   279.52   295.42   304.94   332.77
eigval :      345.21   373.69   378.60   387.14   393.49   394.95
eigval :      411.48   415.61   421.91   423.12   434.21   436.12
eigval :      438.25   488.36   507.06   514.32   514.86   525.48
eigval :      536.96   537.98   544.86   554.76   568.60   576.82
eigval :      581.44   584.48   588.63   606.06   607.46   610.58
eigval :      623.51   634.74   643.05   644.91   665.90   673.58
eigval :      673.78   701.13   702.41   709.36   709.91   711.38
eigval :      745.92   754.09   760.41   760.60   761.93   769.33
eigval :      771.06   777.94   778.74   831.84   835.46   841.73
eigval :      851.35   853.55   863.42   871.57   872.36   878.20
eigval :      882.47   893.88   895.36   896.76   903.84   904.34
eigval :      905.83   907.55   909.58   911.93   919.88   922.16
eigval :      924.27   925.99   928.76   965.71   979.11   993.62
eigval :     1001.06  1009.65  1010.39  1066.33  1066.40  1070.15
eigval :     1070.88  1071.96  1091.40  1092.64  1110.60  1112.90
eigval :     1117.39  1128.59  1142.31  1142.68  1157.90  1167.28
eigval :     1169.07  1175.78  1176.93  1179.04  1181.91  1191.07
eigval :     1198.96  1223.94  1227.71  1228.83  1229.75  1242.37
eigval :     1250.06  1273.21  1283.41  1284.19  1287.89  1288.87
eigval :     1316.92  1333.06  1335.77  1339.55  1341.08  1348.91
eigval :     1351.04  1358.59  1359.48  1361.80  1383.67  1394.80
eigval :     1401.00  1409.62  1410.76  1413.63  1425.35  1438.01
eigval :     1455.30  1455.87  1460.91  1461.32  1470.55  1480.32
eigval :     1480.62  1483.46  1537.30  1551.39  1562.75  1562.84
eigval :     1575.30  1577.04  1577.38  1578.88  1592.78  1596.38
eigval :     3046.86  3067.72  3068.26  3077.31  3077.41  3078.08
eigval :     3079.43  3083.64  3083.88  3086.42  3087.03  3089.34
eigval :     3090.42  3091.98  3092.08  3093.32  3094.63  3096.80
eigval :     3097.06  3097.28  3098.66  3098.96  3100.36  3100.76
eigval :     3102.05  3108.31  3114.40

   temp. (K)  partition function   enthalpy   heat capacity  entropy
                                   cal/mol     cal/K/mol   cal/K/mol   J/K/mol
 298.15  VIB  0.107E+15            19728.688    130.784    119.645
         ROT  0.208E+08              888.752      2.981     36.469
         INT  0.224E+22            20617.441    133.765    156.114
         TR   0.129E+29             1481.254      4.968     44.842
         TOT                       22098.6946   138.7329   200.9560   840.7997

       T/K    H(0)-H(T)+PV         H(T)/Eh          T*S/Eh         G(T)/Eh
   ------------------------------------------------------------------------
    298.15    0.352165E-01    0.572651E+00    0.954807E-01    0.477171E+00
   ------------------------------------------------------------------------

         :::::::::::::::::::::::::::::::::::::::::::::::::::::
         ::                  THERMODYNAMIC                  ::
         :::::::::::::::::::::::::::::::::::::::::::::::::::::
         :: total free energy        -109.871883522332 Eh   ::
         ::.................................................::
         :: total energy             -110.349054299477 Eh   ::
         :: zero point energy           0.537434924064 Eh   ::
         :: G(RRHO) w/o ZPVE           -0.060264146919 Eh   ::
         :: G(RRHO) contrib.            0.477170777145 Eh   ::
         :::::::::::::::::::::::::::::::::::::::::::::::::::::

           -------------------------------------------------
          | TOTAL ENERGY             -110.349054299477 Eh   |
          | TOTAL ENTHALPY           -109.776402863934 Eh   |
          | TOTAL FREE ENERGY        -109.871883522332 Eh   |
          | GRADIENT NORM               0.000063586087 Eh/α |
          | HOMO-LUMO GAP               0.020558208947 eV   |
           -------------------------------------------------

 * finished run on 2025/09/14 at 03:13:59.107
