   * xtb version 6.7.1 (edcfbbe) compiled by 'albert@albert-system' on 2024-07-22

   ID    Z sym.   atoms
    1    6 C      1-13, 15-27, 29, 30, 32-44
    2    7 N      14, 28, 31
    3    1 H      45-71

          program call               : xtb data2507/toluene/26DCzPPy/26DCzPPy_toluene_S0_crest.xyz --gfn 2 --gbsa toluene --ohess vtight --parallel 40 --molden --ceasefiles --namespace data2507/toluene/26DCzPPy/26DCzPPy_toluene_S0_finalOpt
      * Solvation model:               GBSA
        Solvent                        toluene
        Solvent mass                       9.2140E+01 g/mol
          :  Hamiltonian                  GFN2-xTB          :
 * total energy  :  -110.4478839 Eh     change       -0.2401407E-08 Eh
 * total energy  :  -110.4479298 Eh     change       -0.4589910E-04 Eh
 * total energy  :  -110.4479821 Eh     change       -0.5231215E-04 Eh
 * total energy  :  -110.4479995 Eh     change       -0.1736732E-04 Eh
 * total energy  :  -110.4480312 Eh     change       -0.3172261E-04 Eh
 * total energy  :  -110.4480202 Eh     change        0.1103636E-04 Eh
 * total energy  :  -110.4480378 Eh     change       -0.1759963E-04 Eh
 * total energy  :  -110.4480467 Eh     change       -0.8965348E-05 Eh
 * total energy  :  -110.4480510 Eh     change       -0.4306920E-05 Eh
 * total energy  :  -110.4480572 Eh     change       -0.6172849E-05 Eh
 * total energy  :  -110.4481991 Eh     change       -0.2509804E-06 Eh
 * total energy  :  -110.4481993 Eh     change       -0.2100216E-06 Eh
 * total energy  :  -110.4481995 Eh     change       -0.1880356E-06 Eh
 * total energy  :  -110.4481997 Eh     change       -0.1908271E-06 Eh
 * total energy  :  -110.4481999 Eh     change       -0.2274297E-06 Eh
 * total energy  :  -110.4482002 Eh     change       -0.2597541E-06 Eh
 * total energy  :  -110.4482004 Eh     change       -0.2672541E-06 Eh
 * total energy  :  -110.4482007 Eh     change       -0.2455953E-06 Eh
 * total energy  :  -110.4482007 Eh     change       -0.2087745E-08 Eh
   *** GEOMETRY OPTIMIZATION CONVERGED AFTER 94 ITERATIONS ***

 final structure:
================
71
 xtb: 6.7.1 (edcfbbe)
C           -4.53218118424331       -2.71222071927333        1.32971508700075
C           -3.52363987602695       -3.60266682942274        1.00330289480585
C           -2.31940346992214       -3.13309583132040        0.48313386308853
C           -1.17685596881917       -4.00629119831382        0.16819343106936
C           -1.25582491976608       -5.39640546841651        0.05830559115308
C           -0.09075699198508       -6.10016866827596       -0.19692194893054
C            1.10715384262309       -5.42202121250517       -0.35036534707137
C            1.09849607005211       -4.02796753712013       -0.25763904966479
C            2.28070551420823       -3.17357840846738       -0.46300219387190
C            3.53561598218545       -3.66425205519417       -0.81942341888142
C            4.58479058409544       -2.79028644043670       -1.04686614489727
C            4.40576827911537       -1.42163625679694       -0.95175971703476
C            3.15849196500080       -0.91769536169154       -0.58836454825289
N            2.93050675192412        0.46401980987096       -0.51550475201155
C            3.73349535798889        1.39552465125088        0.11167184786720
C            4.86731448756980        1.20619162598470        0.88976542592371
C            5.47094703274027        2.32295974075273        1.43632285385835
C            4.96114845010817        3.60249287362571        1.22464359516038
C            3.82054399315100        3.79517790666934        0.47049020912406
C            3.19436863244412        2.68783046569464       -0.08676811225304
C            2.00680940314917        2.51808095526987       -0.87567058880202
C            1.07424818838677        3.40520977945911       -1.39671656687763
C            0.02207914053157        2.90293010110396       -2.13456779483630
C           -0.09571168978403        1.53532702600264       -2.36988343374479
C            0.82601349218634        0.63450670055264       -1.87202211731964
C            1.87309459867549        1.13043301924177       -1.10782803199602
C            2.11841712645910       -1.79602598624336       -0.32599042699384
N           -0.02453236962991       -3.36877140892864        0.00292478915488
C           -2.16162903907734       -1.76226047351087        0.29266944604579
C           -3.15474660973346       -0.86645520614990        0.65854496758658
N           -2.91805710024764        0.51030078106546        0.53818284817534
C           -3.77328197409300        1.44894060806010       -0.00282000560254
C           -4.99269119297893        1.27100747671233       -0.64152054687772
C           -5.64068458593339        2.39306340604869       -1.12241543089126
C           -5.09090865532266        3.66603895169371       -0.98385268717844
C           -3.86715683724578        3.84693786945303       -0.37010668001388
C           -3.19607656693701        2.73435891657155        0.12066573549212
C           -1.93123254531463        2.55283924665726        0.77630738867729
C           -0.93891761573412        3.43000190370763        1.19412509803191
C            0.17240256400358        2.91840694659346        1.83225725471226
C            0.29515326967707        1.55107267406004        2.06605170743667
C           -0.68190437849162        0.65954914172307        1.66704612333099
C           -1.79363598694624        1.16545241030751        1.00771439016632
C           -4.35496042570800       -1.34847187987395        1.17688910591572
H           -5.46215150339189       -3.08438104243372        1.73393152446815
H           -3.67450764046927       -4.65690676149371        1.17498678867715
H           -2.19597216994571       -5.91407164473842        0.15735763580074
H           -0.11613651036113       -7.17777283953488       -0.27944327207360
H            2.01649541991724       -5.96754475984202       -0.54177917763850
H            3.70396461782016       -4.72370127416450       -0.92973852171047
H            5.55294215227237       -3.18060935751391       -1.32467827182286
H            5.21737093781376       -0.74549606700799       -1.17380845325700
H            5.26084051627673        0.21821724408621        1.07597659493303
H            6.35554732202940        2.20089484733611        2.04465058499537
H            5.46336831771265        4.45088429351082        1.66647638202274
H            3.41551776203249        4.78495762000902        0.31996351163683
H            1.17556403625809        4.46643370331199       -1.22609614803722
H           -0.71927459976894        3.57387924279391       -2.54269340091155
H           -0.92525148335051        1.17114502039357       -2.95899555661303
H            0.73476638005602       -0.42000778033517       -2.08440609620464
H            1.16068037467119       -1.41594440217139       -0.01185761386675
H           -1.24493731940652       -1.39971430247196       -0.14219976596591
H           -5.41958678710315        0.28775630765145       -0.77048110829640
H           -6.59288674677798        2.28023697715550       -1.62045041078671
H           -5.62954142890535        4.51879483285490       -1.37095475171154
H           -3.43361518076781        4.83159982398701       -0.27639188556131
H           -1.04187543951537        4.49128168840080        1.02459510450854
H            0.95967607641749        3.58082945539099        2.16011776363443
H            1.17290674794025        1.18046968091787        2.57577101967960
H           -0.58401043888785       -0.39475492325442        1.87724704560214
H           -5.12887870209894       -0.65806889486728        1.47630123652385

          :  Hamiltonian                  GFN2-xTB          :
         :: gradient norm              0.000043679747 Eh/a0 ::
         :: HOMO-LUMO gap              2.459552113800 eV    ::
         :: SCC energy              -112.534635563111 Eh    ::
         :: -> dispersion             -0.109882971205 Eh    ::
         :: -> Gsolv                  -0.040156451478 Eh    ::
         :: repulsion energy           2.086434883975 Eh    ::

    * Orbital Energies and Occupations

         #    Occupation            Energy/Eh            Energy/eV
      -------------------------------------------------------------
         1        2.0000           -0.6726613             -18.3040
       ...           ...                  ...                  ...
        91        2.0000           -0.4146790             -11.2840
        92        2.0000           -0.4144332             -11.2773
        93        2.0000           -0.4108191             -11.1790
        94        2.0000           -0.4098204             -11.1518
        95        2.0000           -0.4073167             -11.0837
        96        2.0000           -0.4037621             -10.9869
        97        2.0000           -0.3996048             -10.8738
        98        2.0000           -0.3917155             -10.6591
        99        2.0000           -0.3762140             -10.2373
       100        2.0000           -0.3743555             -10.1867
       101        2.0000           -0.3700195             -10.0687
       102        2.0000           -0.3596029              -9.7853
       103        2.0000           -0.3594179              -9.7803 (HOMO)
       104                         -0.2690310              -7.3207 (LUMO)
       105                         -0.2671305              -7.2690
       106                         -0.2443108              -6.6480
       107                         -0.2419530              -6.5839
       108                         -0.2317613              -6.3065
       109                         -0.2313895              -6.2964
       110                         -0.2189890              -5.9590
       111                         -0.2184352              -5.9439
       112                         -0.2180327              -5.9330
       113                         -0.1983385              -5.3971
       114                         -0.1884977              -5.1293
       ...                                ...                  ...
       203                          0.7489669              20.3804
      -------------------------------------------------------------
                  HL-Gap            0.0903869 Eh            2.4596 eV

     #   Z          covCN         q      C6AA      α(0)
     1   6 C        2.918    -0.029    28.725     8.789
     2   6 C        2.921    -0.039    28.960     8.825
     3   6 C        2.980     0.005    27.912     8.666
     4   6 C        2.946     0.094    25.912     8.349
     5   6 C        2.915    -0.048    29.189     8.859
     6   6 C        2.925    -0.015    28.380     8.736
     7   6 C        2.915    -0.048    29.186     8.859
     8   6 C        2.944     0.094    25.920     8.350
     9   6 C        2.979     0.004    27.921     8.668
    10   6 C        2.921    -0.039    28.962     8.825
    11   6 C        2.918    -0.029    28.730     8.790
    12   6 C        2.921    -0.043    29.062     8.840
    13   6 C        2.910     0.065    26.533     8.446
    14   7 N        2.802    -0.045    22.116     6.985
    15   6 C        3.074     0.048    26.847     8.495
    16   6 C        2.910    -0.052    29.292     8.875
    17   6 C        2.923    -0.036    28.887     8.814
    18   6 C        2.919    -0.043    29.069     8.841
    19   6 C        2.912    -0.034    28.851     8.808
    20   6 C        3.068    -0.017    28.357     8.732
    21   6 C        3.068    -0.017    28.362     8.732
    22   6 C        2.913    -0.033    28.821     8.803
    23   6 C        2.920    -0.041    29.015     8.833
    24   6 C        2.924    -0.034    28.850     8.808
    25   6 C        2.910    -0.052    29.290     8.874
    26   6 C        3.075     0.048    26.841     8.494
    27   6 C        2.934    -0.043    29.079     8.844
    28   7 N        1.862    -0.257    27.547     7.779
    29   6 C        2.933    -0.042    29.053     8.840
    30   6 C        2.910     0.066    26.532     8.446
    31   7 N        2.802    -0.046    22.123     6.986
    32   6 C        3.073     0.048    26.854     8.497
    33   6 C        2.910    -0.052    29.295     8.875
    34   6 C        2.923    -0.036    28.888     8.814
    35   6 C        2.919    -0.043    29.069     8.841
    36   6 C        2.912    -0.034    28.857     8.809
    37   6 C        3.068    -0.017    28.372     8.734
    38   6 C        3.067    -0.017    28.375     8.735
    39   6 C        2.913    -0.033    28.825     8.804
    40   6 C        2.920    -0.040    28.996     8.830
    41   6 C        2.924    -0.033    28.828     8.805
    42   6 C        2.910    -0.052    29.288     8.874
    43   6 C        3.075     0.048    26.848     8.495
    44   6 C        2.921    -0.043    29.062     8.840
    45   1 H        0.926     0.044     2.401     2.423
    46   1 H        0.926     0.041     2.433     2.439
    47   1 H        0.926     0.040     2.444     2.445
    48   1 H        0.926     0.039     2.459     2.452
    49   1 H        0.926     0.040     2.446     2.446
    50   1 H        0.926     0.041     2.435     2.440
    51   1 H        0.926     0.043     2.405     2.425
    52   1 H        0.926     0.045     2.383     2.414
    53   1 H        0.926     0.030     2.591     2.517
    54   1 H        0.926     0.029     2.595     2.519
    55   1 H        0.926     0.027     2.628     2.535
    56   1 H        0.926     0.029     2.593     2.518
    57   1 H        0.926     0.031     2.578     2.511
    58   1 H        0.926     0.027     2.631     2.537
    59   1 H        0.926     0.027     2.630     2.536
    60   1 H        0.926     0.030     2.588     2.516
    61   1 H        0.926     0.063     2.163     2.300
    62   1 H        0.926     0.060     2.197     2.318
    63   1 H        0.926     0.030     2.590     2.517
    64   1 H        0.926     0.029     2.594     2.519
    65   1 H        0.926     0.027     2.626     2.534
    66   1 H        0.926     0.030     2.591     2.517
    67   1 H        0.926     0.030     2.581     2.512
    68   1 H        0.926     0.027     2.630     2.536
    69   1 H        0.926     0.026     2.645     2.543
    70   1 H        0.926     0.031     2.567     2.506
    71   1 H        0.926     0.045     2.381     2.413

molecular dipole:
                 x           y           z       tot (Debye)
 q only:       -0.009      -1.269      -0.002
   full:       -0.014      -1.805      -0.027       4.589

 projected vibrational frequencies (cm⁻¹)
eigval :       -0.00    -0.00     0.00     0.00     0.00     0.00
eigval :        8.54    19.51    25.93    27.47    36.28    51.11
eigval :       59.82    63.92    72.10    91.50    96.30    99.88
eigval :      108.15   126.23   145.68   148.84   173.48   187.02
eigval :      200.83   218.21   227.04   236.35   238.86   264.15
eigval :      272.42   274.79   286.67   293.37   301.04   343.46
eigval :      353.39   382.19   387.21   396.94   397.93   401.39
eigval :      423.43   425.19   430.72   433.88   439.03   439.42
eigval :      480.23   499.69   517.22   518.25   524.89   535.80
eigval :      540.45   540.98   551.98   579.15   586.20   589.80
eigval :      598.24   600.60   610.91   615.59   619.79   657.77
eigval :      665.10   671.64   674.98   675.82   679.54   704.23
eigval :      705.20   708.42   711.98   750.28   755.64   765.59
eigval :      769.26   770.97   778.18   781.20   782.42   797.90
eigval :      801.85   839.59   868.96   869.88   871.33   872.00
eigval :      874.28   889.96   890.66   897.37   897.83   899.64
eigval :      901.78   903.41   904.25   908.07   916.79   919.71
eigval :      921.82   927.14   927.71   929.36   931.73   934.28
eigval :      937.06   974.62  1000.56  1002.27  1007.96  1011.54
eigval :     1012.47  1069.45  1069.62  1073.59  1075.06  1090.20
eigval :     1107.00  1107.98  1117.25  1122.76  1124.05  1140.74
eigval :     1151.86  1152.50  1171.27  1173.13  1173.52  1179.88
eigval :     1180.31  1184.08  1185.48  1196.83  1202.20  1224.33
eigval :     1234.42  1235.63  1236.86  1248.96  1253.44  1267.13
eigval :     1293.24  1295.43  1299.61  1300.78  1301.66  1306.03
eigval :     1322.32  1328.86  1352.39  1355.44  1358.05  1358.91
eigval :     1362.11  1362.33  1396.79  1404.27  1420.70  1424.25
eigval :     1427.46  1427.76  1437.22  1444.51  1474.38  1475.20
eigval :     1476.40  1479.96  1487.62  1487.66  1555.92  1557.28
eigval :     1570.90  1572.00  1574.99  1576.65  1585.07  1586.89
eigval :     1588.62  1589.07  1598.22  1598.34  1613.82  1614.32
eigval :     3067.10  3069.71  3070.01  3070.15  3071.29  3075.61
eigval :     3075.78  3078.07  3078.27  3078.35  3078.72  3083.52
eigval :     3083.60  3086.13  3087.20  3090.36  3090.70  3093.58
eigval :     3093.89  3094.47  3095.44  3098.88  3100.46  3104.58
eigval :     3107.82  3122.36  3127.17

   temp. (K)  partition function   enthalpy   heat capacity  entropy
                                   cal/mol     cal/K/mol   cal/K/mol   J/K/mol
 298.15  VIB  0.125E+15            19230.739    126.684    117.501
         ROT  0.445E+08              888.752      2.981     37.977
         INT  0.556E+22            20119.491    129.665    155.478
         TR   0.129E+29             1481.254      4.968     44.842
         TOT                       21600.7451   134.6332   200.3195   838.1366

       T/K    H(0)-H(T)+PV         H(T)/Eh          T*S/Eh         G(T)/Eh
   ------------------------------------------------------------------------
    298.15    0.344230E-01    0.580130E+00    0.951782E-01    0.484952E+00
   ------------------------------------------------------------------------

         :::::::::::::::::::::::::::::::::::::::::::::::::::::
         ::                  THERMODYNAMIC                  ::
         :::::::::::::::::::::::::::::::::::::::::::::::::::::
         :: total free energy        -109.963249141257 Eh   ::
         ::.................................................::
         :: total energy             -110.448200678930 Eh   ::
         :: zero point energy           0.545706798393 Eh   ::
         :: G(RRHO) w/o ZPVE           -0.060755260720 Eh   ::
         :: G(RRHO) contrib.            0.484951537673 Eh   ::
         :::::::::::::::::::::::::::::::::::::::::::::::::::::

           -------------------------------------------------
          | TOTAL ENERGY             -110.448200678930 Eh   |
          | TOTAL ENTHALPY           -109.868070902101 Eh   |
          | TOTAL FREE ENERGY        -109.963249141257 Eh   |
          | GRADIENT NORM               0.000043682854 Eh/α |
          | HOMO-LUMO GAP               2.459552153610 eV   |
           -------------------------------------------------

 * finished run on 2025/09/14 at 03:08:01.485
