   * xtb version 6.7.1 (edcfbbe) compiled by 'albert@albert-system' on 2024-07-22

   ID    Z sym.   atoms
    1    6 C      1-8, 10-28, 30-35, 37-46, 48-57, 59-66
    2    7 N      9, 29
    3    8 O      36, 58
    4    5 B      47
    5    1 H      67-121

          program call               : xtb data2507/toluene/TDBA-SBA/TDBA-SBA_toluene_T1_crest.xyz --gfn 2 --uhf 2 --gbsa toluene --ohess vtight --parallel 40 --molden --ceasefiles --namespace data2507/toluene/TDBA-SBA/TDBA-SBA_toluene_T1_finalOpt
      * Solvation model:               GBSA
        Solvent                        toluene
        Solvent mass                       9.2140E+01 g/mol
          :  Hamiltonian                  GFN2-xTB          :
 * total energy  :  -174.0092224 Eh     change       -0.2326470E-07 Eh
 * total energy  :  -174.0093328 Eh     change       -0.1104347E-03 Eh
 * total energy  :  -174.0093807 Eh     change       -0.4786539E-04 Eh
 * total energy  :  -174.0093953 Eh     change       -0.1462010E-04 Eh
 * total energy  :  -174.0094087 Eh     change       -0.1343851E-04 Eh
 * total energy  :  -174.0094172 Eh     change       -0.8511036E-05 Eh
 * total energy  :  -174.0094204 Eh     change       -0.3180381E-05 Eh
 * total energy  :  -174.0094227 Eh     change       -0.2281835E-05 Eh
 * total energy  :  -174.0094258 Eh     change       -0.3119445E-05 Eh
 * total energy  :  -174.0094288 Eh     change       -0.2981310E-05 Eh
 * total energy  :  -174.0096706 Eh     change       -0.2231363E-05 Eh
 * total energy  :  -174.0096711 Eh     change       -0.4844937E-06 Eh
 * total energy  :  -174.0096712 Eh     change       -0.1729514E-06 Eh
 * total energy  :  -174.0096711 Eh     change        0.1805963E-06 Eh
 * total energy  :  -174.0096714 Eh     change       -0.3584317E-06 Eh
 * total energy  :  -174.0096716 Eh     change       -0.1634594E-06 Eh
 * total energy  :  -174.0096718 Eh     change       -0.2131285E-06 Eh
 * total energy  :  -174.0096718 Eh     change        0.4408065E-08 Eh
 * total energy  :  -174.0096719 Eh     change       -0.9467612E-07 Eh
   *** GEOMETRY OPTIMIZATION CONVERGED AFTER 142 ITERATIONS ***

 final structure:
================
121
 xtb: 6.7.1 (edcfbbe)
C           12.34695292881237        1.43536748281484        0.36741455269217
C           11.86372726112646        0.02343241869992        0.00322074212390
C           12.49239924859403       -0.36679882395316       -1.33784933765305
C           12.33909411469900       -0.97974393610920        1.06506968800752
C           10.34358324975643        0.01717187128012       -0.03768797650141
C            9.61921734633339       -0.29952122670044       -1.18157873154283
C            8.23473846614385       -0.29637235650659       -1.18090779948944
C            7.53984350547595        0.02551081859755       -0.02542751974989
N            6.11287330108532        0.02637389511753       -0.01920762900176
C            5.44392260995794       -1.14999852528059        0.26168463728797
C            6.16247688000073       -2.31970654235301        0.53839144012061
C            5.50766700336026       -3.49934781047788        0.82073173569494
C            4.12168764091197       -3.54329350885566        0.83545255494591
C            3.40552745477639       -2.39177182159756        0.56538482349499
C            4.04470612383406       -1.19531616985299        0.27904697059669
C            3.19521204912001        0.02745423462924       -0.00481976257212
C            4.04279848338642        1.25027535563607       -0.29418628681627
C            3.40187749340235        2.44778253612720       -0.57202277533989
C            4.11636973190253        3.59909751994381       -0.84741828415853
C            5.50238623800501        3.55378081167062       -0.84753509164190
C            6.15893655862142        2.37313795731979       -0.57350136375782
C            5.44210103017144        1.20369090243491       -0.29131786839242
C            2.35041329368149        0.31256134837558        1.21967096620774
C            2.99226799200637        0.59328536620315        2.41608327334248
C            2.27904382312510        0.86020882857583        3.56999307889946
C            0.89222645305934        0.84497574317977        3.53015905403267
C            0.23461043861207        0.56840086521185        2.35140381220028
C            0.95005725874907        0.29941463950741        1.17710710394240
N            0.27551356021622        0.02729535354518        0.00344322043732
C           -1.14970495740604        0.02726811364869        0.00745012597102
C           -1.84880343429522        1.21176600972032       -0.24369588236618
C           -3.23495751340463        1.19787573180887       -0.23334835511366
C           -3.97709490757576        0.02730762287815        0.01494621568023
C           -3.23367534760054       -1.14324232697278        0.25947142807593
C           -1.84747792532266       -1.15718736600520        0.26243110818289
O           -3.85715400406939       -2.32971103906268        0.51515517411697
C           -5.21959354796376       -2.45358475039435        0.44096545806676
C           -5.68366433357387       -3.74902935569405        0.63763798827101
C           -7.03534436789456       -4.03040980959115        0.55121698150965
C           -7.95123548695041       -3.01931308781211        0.24520639340449
C           -9.42643479030998       -3.37007436781553        0.12447773285520
C           -9.60080972180587       -4.41904441198646       -0.98494952477691
C          -10.30177875998287       -2.16248741460809       -0.22344488886261
C           -9.91595082868457       -3.94475502199275        1.46263198765741
C           -7.46382723596688       -1.73283740206582        0.06716996786114
C           -6.10787614816981       -1.38157510830903        0.17963773000296
B           -5.49582903300490        0.02720926847248        0.01823495435228
C           -6.10884838694827        1.43578720957822       -0.14116871365891
C           -7.46447626322635        1.78679563499449       -0.02384506662738
C           -7.95289633292765        3.07298422386654       -0.20113735428523
C           -9.42787919322803        3.42326596585426       -0.07625101844696
C           -9.92251755640877        3.99041384721433       -1.41573622820878
C          -10.30087258370865        2.21683377563401        0.28146765634905
C           -9.59935455638186        4.47785769045786        1.02827651573896
C           -7.03845155006122        4.08406730138942       -0.51153304347575
C           -5.68698590788761        3.80305826589987       -0.60238518735916
C           -5.22186524424071        2.50787803449093       -0.40651810766403
O           -3.85967969185801        2.38431678013156       -0.48596821048147
C            0.94343699501776       -0.24491813230013       -1.17399016907803
C            0.22140263658476       -0.51416920921097       -2.34417679676703
C            0.87238934949700       -0.79127608594053       -3.52649192864672
C            2.25896000108487       -0.80671243504593       -3.57409164529017
C            2.97866784061886       -0.53929258145577       -2.42432753189512
C            2.34351790143897       -0.25802472061429       -1.22447561565520
C            8.24452754985756        0.34621575853744        1.12706892732436
C            9.62550488000410        0.34064270512215        1.11266591964880
H           11.99694164397957        2.15593353505208       -0.36933914110946
H           11.98272756354586        1.74159690802091        1.34418830216907
H           13.43426493558854        1.46345161865849        0.38624759539966
H           12.19961068221647       -1.37247797449950       -1.63111061583970
H           12.21099467913561        0.33199300540088       -2.12240898933617
H           13.57655442398296       -0.34768282699787       -1.24707772346768
H           13.42628578572794       -1.00646621450364        1.09144441369323
H           11.97582356020236       -1.97846493038616        0.83027994369833
H           11.98294265666678       -0.71102862591630        2.05566760195984
H           10.12366224394650       -0.55562214248171       -2.09819657173719
H            7.69017059515296       -0.54588645601945       -2.07985341549669
H            7.24093294820926       -2.29452948634812        0.53035893396073
H            6.08162225238686       -4.38930616216614        1.03104288807822
H            3.60459452944869       -4.46444501316463        1.05570835178904
H            2.32552109323140       -2.41443230108323        0.57584956739088
H            2.32184550138473        2.47153531211377       -0.57143385114798
H            3.59787670681846        4.52105420348671       -1.06092914481834
H            6.07496241197646        4.44353962258775       -1.06238050003188
H            7.23741085978545        2.34685012840575       -0.57631239802995
H            4.07211538953592        0.60149827065216        2.43720172085699
H            2.79701354580817        1.07713933786950        4.49135903118806
H            0.31970613845387        1.04974295977258        4.42236876715618
H           -0.84383072528181        0.55651966486474        2.32393036149346
H           -1.32090874196270        2.13079276969150       -0.44730668830490
H           -1.31855871065466       -2.07625208059514        0.46321432900952
H           -4.96682455739404       -4.52939383865262        0.84937169479574
H           -7.36250807415322       -5.04603210998620        0.71049599483209
H           -9.04999548850792       -5.32847182106785       -0.76115192455945
H           -9.23819247613774       -4.02579803607092       -1.93292318215631
H          -10.65276853455881       -4.67506014986399       -1.09548448969154
H          -11.34042365204566       -2.47838381776879       -0.30239953090142
H          -10.00797798216584       -1.72976439320010       -1.17710412364674
H          -10.24020934786944       -1.40019616214774        0.54941191650256
H           -9.77211447149479       -3.21614169666337        2.25828956311480
H          -10.97523847893028       -4.18657814840040        1.40129465537791
H           -9.37440324347494       -4.84881284042161        1.72740454365955
H           -8.14759716303408       -0.94192871833082       -0.18321712939372
H           -8.14706458843123        0.99592752896275        0.22988897793488
H          -10.98142665863883        4.23314690900371       -1.35159589229494
H           -9.78222766446740        3.25706421387357       -2.20765628013399
H           -9.38143383358840        4.89255541217538       -1.68791607913299
H          -10.24310966770934        1.45107007113671       -0.48821946293089
H          -10.00184034942520        1.78856059913047        1.23551377026680
H          -11.33922272145191        2.53266851821363        0.36440115296614
H           -9.23274019382015        4.08998158372844        1.97690454198720
H          -10.65123942362851        4.73299474317248        1.14143636448735
H           -9.05076771934829        5.38693800535601        0.79780408228723
H           -7.36655796238372        5.09936006373057       -0.67096334633751
H           -4.97114241752295        4.58342698378985       -0.81743984632754
H           -0.85686782766145       -0.50219218062172       -2.31067966315544
H            0.29486616012327       -0.99634159199203       -4.41540246845692
H            2.77173993207763       -1.02419132954869       -4.49823177089689
H            4.05838149388246       -0.54759517601010       -2.45143889170552
H            7.70742331158276        0.59879337447208        2.02955125230128
H           10.14678313465065        0.59406113151394        2.02263161845705

          :  Hamiltonian                  GFN2-xTB          :
         :: gradient norm              0.000103440876 Eh/a0 ::
         :: HOMO-LUMO gap              0.206642752747 eV    ::
         :: SCC energy              -176.993517549435 Eh    ::
         :: -> dispersion             -0.171054291947 Eh    ::
         :: -> Gsolv                  -0.069160226359 Eh    ::
         :: repulsion energy           2.983845653656 Eh    ::

    * Orbital Energies and Occupations

         #    Occupation            Energy/Eh            Energy/eV
      -------------------------------------------------------------
         1        2.0000           -0.7175980             -19.5268
       ...           ...                  ...                  ...
       151        2.0000           -0.4020990             -10.9417
       152        2.0000           -0.4012638             -10.9189
       153        2.0000           -0.3995534             -10.8724
       154        2.0000           -0.3984250             -10.8417
       155        2.0000           -0.3863199             -10.5123
       156        2.0000           -0.3827094             -10.4141
       157        2.0000           -0.3736020             -10.1662
       158        2.0000           -0.3708961             -10.0926
       159        2.0000           -0.3685010             -10.0274
       160        1.7927           -0.3592163              -9.7748
       161        1.7249           -0.3588622              -9.7651
       162        1.4824           -0.3578750              -9.7383
       163        0.9820           -0.2537835              -6.9058 (HOMO)
       164        0.0180           -0.2461892              -6.6991 (LUMO)
       165        0.0000           -0.2356636              -6.4127
       166                         -0.2339908              -6.3672
       167                         -0.2331646              -6.3447
       168                         -0.2315839              -6.3017
       169                         -0.2313699              -6.2959
       170                         -0.2294395              -6.2434
       171                         -0.2241625              -6.0998
       172                         -0.2223643              -6.0508
       173                         -0.2195135              -5.9733
       174                         -0.2053216              -5.5871
       ...                                ...                  ...
       319                          0.7141538              19.4331
      -------------------------------------------------------------
                  HL-Gap            0.0075943 Eh            0.2067 eV

     #   Z          covCN         q      C6AA      α(0)
     1   6 C        3.761    -0.107    22.590     6.775
     2   6 C        3.902     0.027    20.071     6.368
     3   6 C        3.761    -0.110    22.647     6.784
     4   6 C        3.761    -0.107    22.592     6.776
     5   6 C        2.972     0.014    27.699     8.633
     6   6 C        2.925    -0.037    28.919     8.819
     7   6 C        2.920    -0.040    28.983     8.828
     8   6 C        2.928     0.057    26.715     8.476
     9   7 N        2.753    -0.045    22.111     6.984
    10   6 C        2.926     0.061    26.631     8.463
    11   6 C        2.923    -0.053    29.308     8.878
    12   6 C        2.919    -0.030    28.744     8.792
    13   6 C        2.917    -0.037    28.929     8.820
    14   6 C        2.925    -0.033    28.819     8.804
    15   6 C        2.987    -0.007    28.192     8.710
    16   6 C        3.927     0.017    20.227     6.392
    17   6 C        2.987    -0.007    28.192     8.710
    18   6 C        2.925    -0.033    28.819     8.804
    19   6 C        2.917    -0.037    28.929     8.820
    20   6 C        2.919    -0.030    28.744     8.792
    21   6 C        2.923    -0.053    29.308     8.878
    22   6 C        2.926     0.061    26.631     8.463
    23   6 C        2.987    -0.006    28.162     8.705
    24   6 C        2.925    -0.034    28.839     8.807
    25   6 C        2.917    -0.036    28.907     8.817
    26   6 C        2.919    -0.029    28.733     8.790
    27   6 C        2.923    -0.050    29.240     8.868
    28   6 C        2.927     0.063    26.597     8.458
    29   7 N        2.753    -0.037    21.953     6.959
    30   6 C        2.926     0.032    27.291     8.567
    31   6 C        2.912    -0.073    29.817     8.954
    32   6 C        2.870     0.124    25.279     8.242
    33   6 C        2.885    -0.127    31.228     9.162
    34   6 C        2.870     0.124    25.280     8.242
    35   6 C        2.912    -0.073    29.816     8.954
    36   8 O        1.711    -0.253    18.195     5.759
    37   6 C        2.871     0.129    25.165     8.223
    38   6 C        2.911    -0.065    29.618     8.924
    39   6 C        2.924    -0.049    29.220     8.865
    40   6 C        2.967     0.003    27.954     8.672
    41   6 C        3.902     0.024    20.107     6.374
    42   6 C        3.761    -0.104    22.529     6.766
    43   6 C        3.761    -0.106    22.572     6.773
    44   6 C        3.761    -0.104    22.532     6.767
    45   6 C        2.928    -0.061    29.510     8.909
    46   6 C        2.879    -0.090    30.243     9.015
    47   5 B        2.723     0.149    19.149     7.333
    48   6 C        2.879    -0.090    30.243     9.015
    49   6 C        2.928    -0.061    29.510     8.909
    50   6 C        2.967     0.003    27.954     8.672
    51   6 C        3.902     0.024    20.107     6.374
    52   6 C        3.761    -0.104    22.531     6.767
    53   6 C        3.761    -0.106    22.572     6.773
    54   6 C        3.761    -0.104    22.530     6.766
    55   6 C        2.924    -0.049    29.220     8.865
    56   6 C        2.911    -0.065    29.618     8.924
    57   6 C        2.871     0.129    25.165     8.223
    58   8 O        1.711    -0.253    18.195     5.759
    59   6 C        2.927     0.063    26.597     8.458
    60   6 C        2.923    -0.050    29.240     8.868
    61   6 C        2.919    -0.029    28.733     8.790
    62   6 C        2.917    -0.036    28.906     8.817
    63   6 C        2.925    -0.034    28.840     8.807
    64   6 C        2.987    -0.006    28.162     8.705
    65   6 C        2.919    -0.040    28.982     8.828
    66   6 C        2.928    -0.033    28.813     8.803
    67   1 H        0.925     0.035     2.517     2.481
    68   1 H        0.925     0.039     2.461     2.453
    69   1 H        0.925     0.042     2.427     2.436
    70   1 H        0.925     0.038     2.471     2.458
    71   1 H        0.925     0.038     2.471     2.458
    72   1 H        0.925     0.040     2.448     2.447
    73   1 H        0.925     0.042     2.428     2.437
    74   1 H        0.925     0.035     2.517     2.481
    75   1 H        0.925     0.039     2.459     2.452
    76   1 H        0.926     0.052     2.293     2.368
    77   1 H        0.926     0.041     2.439     2.442
    78   1 H        0.926     0.041     2.438     2.442
    79   1 H        0.926     0.040     2.449     2.447
    80   1 H        0.926     0.036     2.503     2.474
    81   1 H        0.926     0.029     2.603     2.523
    82   1 H        0.926     0.029     2.603     2.523
    83   1 H        0.926     0.036     2.503     2.474
    84   1 H        0.926     0.040     2.449     2.447
    85   1 H        0.926     0.041     2.437     2.441
    86   1 H        0.926     0.035     2.512     2.478
    87   1 H        0.926     0.040     2.446     2.446
    88   1 H        0.926     0.039     2.458     2.452
    89   1 H        0.926     0.037     2.489     2.467
    90   1 H        0.926     0.041     2.439     2.442
    91   1 H        0.926     0.041     2.439     2.442
    92   1 H        0.926     0.025     2.662     2.551
    93   1 H        0.926     0.024     2.677     2.558
    94   1 H        0.925     0.035     2.511     2.478
    95   1 H        0.925     0.032     2.563     2.503
    96   1 H        0.925     0.039     2.467     2.456
    97   1 H        0.925     0.037     2.493     2.469
    98   1 H        0.925     0.035     2.516     2.481
    99   1 H        0.925     0.037     2.489     2.467
   100   1 H        0.925     0.032     2.556     2.500
   101   1 H        0.925     0.039     2.468     2.457
   102   1 H        0.925     0.035     2.512     2.479
   103   1 H        0.926     0.037     2.483     2.464
   104   1 H        0.926     0.037     2.483     2.464
   105   1 H        0.925     0.039     2.468     2.457
   106   1 H        0.925     0.032     2.556     2.500
   107   1 H        0.925     0.035     2.512     2.479
   108   1 H        0.925     0.037     2.489     2.467
   109   1 H        0.925     0.035     2.516     2.481
   110   1 H        0.925     0.037     2.492     2.469
   111   1 H        0.925     0.032     2.563     2.503
   112   1 H        0.925     0.039     2.467     2.456
   113   1 H        0.925     0.035     2.511     2.478
   114   1 H        0.926     0.024     2.677     2.558
   115   1 H        0.926     0.025     2.662     2.551
   116   1 H        0.926     0.037     2.489     2.467
   117   1 H        0.926     0.039     2.458     2.452
   118   1 H        0.926     0.040     2.446     2.445
   119   1 H        0.926     0.035     2.511     2.478
   120   1 H        0.926     0.041     2.442     2.443
   121   1 H        0.926     0.045     2.380     2.413

molecular dipole:
                 x           y           z       tot (Debye)
 q only:        5.839      -0.001      -0.015
   full:        5.837       0.001      -0.007      14.836

 projected vibrational frequencies (cm⁻¹)
eigval :       -0.00    -0.00     0.00     0.00     0.00     0.00
eigval :        6.88     7.23     7.84    10.48    16.10    19.92
eigval :       25.83    27.01    34.21    36.82    43.44    47.01
eigval :       49.71    53.71    58.96    70.84    72.83    74.96
eigval :       85.84    91.73   105.75   106.33   107.32   116.39
eigval :      122.53   131.22   137.22   148.02   152.21   172.77
eigval :      172.96   180.15   183.19   209.55   212.20   213.39
eigval :      218.26   220.99   225.69   227.97   234.34   234.86
eigval :      240.22   249.15   257.72   258.06   262.07   266.59
eigval :      276.29   276.40   286.75   296.47   313.85   316.24
eigval :      316.56   317.62   327.51   331.04   347.39   357.42
eigval :      358.90   360.03   361.98   372.20   373.84   377.60
eigval :      382.24   391.91   392.84   397.87   399.39   402.85
eigval :      405.55   411.38   418.62   429.88   431.12   432.48
eigval :      437.47   445.12   447.08   452.30   456.63   461.38
eigval :      471.06   476.90   486.55   487.14   507.53   509.18
eigval :      512.30   513.60   517.44   528.98   540.05   552.37
eigval :      557.52   573.26   593.48   594.06   594.78   597.19
eigval :      604.36   605.60   612.35   618.96   620.84   639.52
eigval :      644.09   652.31   665.41   669.05   676.38   682.93
eigval :      686.31   689.51   690.51   698.31   699.01   703.26
eigval :      710.01   718.81   748.87   770.99   771.23   772.18
eigval :      779.03   784.95   795.84   798.14   800.63   814.29
eigval :      814.69   828.64   833.86   834.98   843.48   858.88
eigval :      865.76   867.33   867.57   867.74   869.16   876.88
eigval :      882.19   882.50   883.69   893.46   895.39   897.33
eigval :      907.67   908.73   911.07   911.17   911.76   921.43
eigval :      921.63   922.34   922.61   925.04   925.53   935.24
eigval :      940.00   943.03   955.41   958.67   958.86   960.30
eigval :      960.68   961.36   962.28   962.67   963.48   963.96
eigval :     1003.36  1013.91  1030.15  1032.50  1032.53  1034.09
eigval :     1034.52  1034.56  1035.07  1069.12  1088.62  1097.65
eigval :     1100.05  1100.45  1102.56  1113.43  1121.67  1122.26
eigval :     1125.49  1127.08  1132.37  1138.64  1143.40  1157.23
eigval :     1164.76  1165.89  1178.74  1178.89  1179.17  1180.40
eigval :     1182.53  1188.33  1193.48  1200.36  1202.18  1215.88
eigval :     1220.24  1221.47  1221.62  1223.45  1224.27  1224.43
eigval :     1225.44  1225.79  1229.63  1231.13  1240.64  1243.38
eigval :     1257.80  1259.56  1264.11  1264.97  1271.99  1274.17
eigval :     1283.04  1283.60  1285.77  1297.99  1308.78  1313.85
eigval :     1317.88  1321.03  1323.40  1330.16  1330.22  1330.58
eigval :     1333.95  1335.75  1337.03  1368.39  1368.80  1390.42
eigval :     1394.96  1400.08  1400.19  1401.73  1401.77  1402.63
eigval :     1406.45  1411.17  1420.99  1421.89  1424.37  1424.89
eigval :     1426.73  1426.87  1431.01  1433.24  1448.37  1455.30
eigval :     1459.56  1466.24  1468.57  1474.03  1478.29  1484.78
eigval :     1488.09  1488.28  1488.36  1489.39  1493.15  1493.32
eigval :     1495.94  1498.27  1498.31  1499.29  1500.70  1502.13
eigval :     1503.19  1509.64  1510.31  1511.45  1513.13  1515.45
eigval :     1516.41  1520.26  1528.44  1551.10  1552.55  1556.17
eigval :     1559.66  1567.06  1567.50  1575.35  1577.08  1583.36
eigval :     1587.19  1597.64  3016.69  3016.99  3017.61  3017.62
eigval :     3022.56  3022.62  3022.68  3022.81  3023.11  3023.21
eigval :     3025.77  3025.91  3026.50  3026.86  3030.74  3031.38
eigval :     3031.76  3032.63  3035.68  3036.48  3037.87  3042.73
eigval :     3043.37  3044.88  3046.11  3046.58  3048.19  3071.27
eigval :     3071.46  3081.07  3081.19  3081.24  3082.08  3082.13
eigval :     3082.92  3083.69  3083.76  3084.56  3084.69  3087.05
eigval :     3087.48  3092.89  3094.13  3096.47  3096.79  3096.83
eigval :     3097.56  3097.85  3104.71  3104.73  3104.91  3105.42
eigval :     3120.51  3139.37  3146.95

   temp. (K)  partition function   enthalpy   heat capacity  entropy
                                   cal/mol     cal/K/mol   cal/K/mol   J/K/mol
 298.15  VIB  0.133E+29            35301.147    219.572    220.206
         ROT  0.239E+09              888.752      2.981     41.317
         INT  0.317E+37            36189.899    222.553    261.523
         TR   0.244E+29             1481.254      4.968     46.107
         TOT                       37671.1530   227.5215   307.6305  1287.1259

       T/K    H(0)-H(T)+PV         H(T)/Eh          T*S/Eh         G(T)/Eh
   ------------------------------------------------------------------------
    298.15    0.600328E-01    0.103203E+01    0.146165E+00    0.885870E+00
   ------------------------------------------------------------------------

         :::::::::::::::::::::::::::::::::::::::::::::::::::::
         ::                  THERMODYNAMIC                  ::
         :::::::::::::::::::::::::::::::::::::::::::::::::::::
         :: total free energy        -173.123802223686 Eh   ::
         ::.................................................::
         :: total energy             -174.009671899071 Eh   ::
         :: zero point energy           0.972002040687 Eh   ::
         :: G(RRHO) w/o ZPVE           -0.086132365302 Eh   ::
         :: G(RRHO) contrib.            0.885869675385 Eh   ::
         :::::::::::::::::::::::::::::::::::::::::::::::::::::

           -------------------------------------------------
          | TOTAL ENERGY             -174.009671899071 Eh   |
          | TOTAL ENTHALPY           -172.977637054880 Eh   |
          | TOTAL FREE ENERGY        -173.123802223686 Eh   |
          | GRADIENT NORM               0.000103566492 Eh/α |
          | HOMO-LUMO GAP               0.206651380854 eV   |
           -------------------------------------------------

 * finished run on 2025/08/23 at 01:06:02.377
