   * xtb version 6.7.1 (edcfbbe) compiled by 'albert@albert-system' on 2024-07-22

   ID    Z sym.   atoms
    1    6 C      1-8, 10-28, 30-35, 37-46, 48-57, 59-66
    2    7 N      9, 29
    3    8 O      36, 58
    4    5 B      47
    5    1 H      67-121

          program call               : xtb data2507/toluene/TDBA-SBA/TDBA-SBA.xyz --gfn 2 --gbsa toluene --ohess vtight --parallel 40 --molden --ceasefiles --namespace data2507/toluene/TDBA-SBA/TDBA-SBA_toluene_S0_preOpt
      * Solvation model:               GBSA
        Solvent                        toluene
        Solvent mass                       9.2140E+01 g/mol
          :  Hamiltonian                  GFN2-xTB          :
 * total energy  :  -173.9908492 Eh     change       -0.6100208E-08 Eh
 * total energy  :  -174.0451513 Eh     change       -0.5430211E-01 Eh
 * total energy  :  -174.0668717 Eh     change       -0.2172040E-01 Eh
 * total energy  :  -174.0760621 Eh     change       -0.9190406E-02 Eh
 * total energy  :  -174.0817481 Eh     change       -0.5686004E-02 Eh
 * total energy  :  -174.0856890 Eh     change       -0.3940938E-02 Eh
 * total energy  :  -174.0887589 Eh     change       -0.3069862E-02 Eh
 * total energy  :  -174.0912876 Eh     change       -0.2528672E-02 Eh
 * total energy  :  -174.0933852 Eh     change       -0.2097602E-02 Eh
 * total energy  :  -174.0951181 Eh     change       -0.1732901E-02 Eh
 * total energy  :  -174.1026427 Eh     change       -0.5521017E-06 Eh
 * total energy  :  -174.1026433 Eh     change       -0.6411925E-06 Eh
 * total energy  :  -174.1026440 Eh     change       -0.6444714E-06 Eh
 * total energy  :  -174.1026447 Eh     change       -0.7180372E-06 Eh
 * total energy  :  -174.1026453 Eh     change       -0.6364494E-06 Eh
 * total energy  :  -174.1026457 Eh     change       -0.4182774E-06 Eh
 * total energy  :  -174.1026461 Eh     change       -0.3681340E-06 Eh
 * total energy  :  -174.1026464 Eh     change       -0.3163792E-06 Eh
 * total energy  :  -174.1026465 Eh     change       -0.7005175E-07 Eh
   *** GEOMETRY OPTIMIZATION CONVERGED AFTER 133 ITERATIONS ***

 final structure:
================
121
 xtb: 6.7.1 (edcfbbe)
C           12.66858539874706        0.61085652231506        1.22940522360100
C           12.03683753643516        0.16379308166514       -0.09236363589588
C           12.45776968815335        1.15775444722340       -1.18530034481884
C           12.57022117054099       -1.23692351209195       -0.42852904124845
C           10.51785478318164        0.11297079732946       -0.02910614751726
C            9.79720360744204       -0.27325823450963       -1.15813935002610
C            8.41750356146395       -0.33365699915960       -1.15066459016533
C            7.71432517078340       -0.00367035695971        0.00029498403003
N            6.28988648929429       -0.05887152021266        0.01443430510220
C            5.66482950953190       -1.21616091444782        0.44829406339336
C            6.42488461782305       -2.31297576901557        0.86535091238691
C            5.81502508073040       -3.47192777242595        1.30056349160533
C            4.43395275777074       -3.56590459661812        1.32972449762892
C            3.67718391633444       -2.48546121816155        0.91464253876651
C            4.27048700866630       -1.31307618127587        0.47305416316095
C            3.37274678026013       -0.17488046273751        0.03112775420543
C            4.17289226377542        1.02153828440686       -0.44764629229421
C            3.48500954943548        2.13427985902691       -0.90591144585844
C            4.14980792940901        3.26573842626439       -1.34180615029121
C            5.53389852441191        3.28613823131649       -1.31502679126114
C            6.23723623509781        2.18727263457237       -0.86546202183922
C            5.57049695407040        1.03804437572762       -0.43014234406648
C            2.53634416895300        0.26387420174482        1.21737541711781
C            3.18908010560899        0.67243462528146        2.37011747992091
C            2.48930155652902        1.08948416345635        3.48743303815604
C            1.10535722875607        1.09607145076926        3.45232198670761
C            0.43666092122690        0.69261204334956        2.31429291695174
C            1.13945944569930        0.27521547038452        1.18069045122663
N            0.45492022850176       -0.12914805081053        0.04504521311448
C           -0.96771131850065       -0.09718173465855        0.04743433141759
C           -1.62345829505075        1.08140272003673       -0.27778235279560
C           -3.01450301292421        1.10812791211157       -0.27073642177275
C           -3.76651624910081       -0.03432297599517        0.04196706499115
C           -3.06803028973841       -1.20894929492329        0.36106723845761
C           -1.67745923880123       -1.24459738498267        0.37301864099105
O           -3.71621316281900       -2.35025762480065        0.67720340707013
C           -5.07684745201034       -2.45194202468191        0.58588801476940
C           -5.57899976844640       -3.72544557871834        0.84683390179675
C           -6.92908164808663       -3.97908535174205        0.74893816261875
C           -7.81976002773155       -2.97337111394303        0.37143028922429
C           -9.31312105543615       -3.21461862848493        0.20044867826235
C           -9.71981686956983       -4.65336130573765        0.53325317965331
C           -9.69492625080162       -2.93490207123663       -1.26102069692941
C          -10.08926382464752       -2.27163940368043        1.13161191597532
C           -7.29811627970673       -1.71166588493756        0.13728569951266
C           -5.93955853053712       -1.39210117780435        0.25099229356485
B           -5.29460400993585       -0.00083493741120        0.03343703980066
C           -5.87621182564031        1.41685480051147       -0.19022869367894
C           -7.22606803818244        1.78973176208418       -0.09421888881955
C           -7.68693122167029        3.07098953907102       -0.32870826947552
C           -9.15231115262132        3.46485411097481       -0.21201543095646
C          -10.05335832309828        2.28676514255045        0.17009083022777
C           -9.29124617649539        4.54504383475531        0.87121205116874
C           -9.63337516355111        4.01601648454664       -1.56262233506358
C           -6.74408935409028        4.04195726781139       -0.68350481227981
C           -5.40710605150592        3.73643346144584       -0.76562531550677
C           -4.96473309833075        2.43810339796787       -0.50778686419524
O           -3.60954819799464        2.27830846830344       -0.58605474897225
C            1.11506719696040       -0.60470733908428       -1.07747825662493
C            0.38936608233158       -1.03076104297187       -2.19334451668397
C            1.03404960804005       -1.51262461422393       -3.31461409073292
C            2.41640448666192       -1.57926892188149       -3.35000901494180
C            3.13921945676956       -1.14746499242247       -2.25316702072724
C            2.51092620740743       -0.65800723113480       -1.11844997533075
C            8.41364730869743        0.38190592466591        1.13334922889014
C            9.79696041967550        0.43765124742557        1.11448064949855
H           12.34245437076902        1.61227567880056        1.50122398575358
H           12.42169093413431       -0.07732200285532        2.03472612036362
H           13.75149915742777        0.62840151955496        1.12411091306201
H           12.05941404169864        2.14715674811022       -0.96844728122492
H           13.54264054788995        1.22496076139826       -1.23049215545888
H           12.09564706911882        0.85123208039475       -2.16270527231245
H           13.65756895997062       -1.22401356333984       -0.46108971306604
H           12.20543283127138       -1.58071375814016       -1.39244654583630
H           12.25638409050496       -1.95172590091829        0.32983960846369
H           10.31530875487688       -0.53527811045780       -2.06784365801385
H            7.87750252487962       -0.63380822808672       -2.03712689933200
H            7.50238116812518       -2.25157958376427        0.84488431133816
H            6.42460101450322       -4.30538773350627        1.61809411161573
H            3.95167903299875       -4.46989244006639        1.66990147016140
H            2.59792638255412       -2.54533125537082        0.92952868589853
H            2.40473918828549        2.10690848979881       -0.91869816283615
H            3.59394245189903        4.12119050977248       -1.69486983980052
H            6.07232623304774        4.16246404298852       -1.64563354988510
H            7.31616724884623        2.21437604835352       -0.84811322931565
H            4.26948794562934        0.65938189149377        2.38586867842405
H            3.01768610946147        1.40397522446229        4.37463958963823
H            0.53933113342011        1.41489793688005        4.31543082267500
H           -0.64264729360820        0.69729778131193        2.29874022562960
H           -1.06879658209673        1.97232383057746       -0.52600637821818
H           -1.16306459041901       -2.15874255768334        0.62408590859466
H           -4.88459285163820       -4.50778896982897        1.11516927160723
H           -7.27643381965466       -4.97730464212212        0.95754662824431
H           -9.22279240961529       -5.36418632319464       -0.12304662701604
H          -10.79350044252611       -4.76639480050441        0.39610853018332
H           -9.48629712916694       -4.89740587642140        1.56721215673469
H           -9.46843678765231       -1.91006655267329       -1.54148308034038
H          -10.75967796228666       -3.10303256444489       -1.40876800758122
H           -9.14510904195955       -3.59768195978630       -1.92663539874360
H           -9.79152570518042       -2.43427419113060        2.16568609286499
H           -9.90731156255477       -1.23039014662776        0.88366298828585
H          -11.15770827522249       -2.45856942228574        1.04688162937009
H           -7.96427986628806       -0.92346861936392       -0.16991185527025
H           -7.92123288842647        1.02384682437847        0.19832289042979
H          -10.01258001159759        1.50494384070609       -0.58460167582093
H          -11.08398348262198        2.62855975357424        0.24219033796034
H           -9.76980785451833        1.87357632526165        1.13534859358551
H           -8.93392320584005        4.16723095883491        1.82736439486163
H           -8.71886208533472        5.43423715767216        0.62147135575249
H          -10.33492616017582        4.83209393752665        0.98150640608307
H           -9.08025235713134        4.90604088222358       -1.84954930671151
H          -10.68826909219364        4.27630822289736       -1.50539471049690
H           -9.50401938723531        3.26797684681705       -2.34251330277214
H           -7.05395970105123        5.05565799105933       -0.88546089855670
H           -4.67531665108551        4.48928227045154       -1.01806358461295
H           -0.68871846089726       -0.98046411607244       -2.17743641630500
H            0.45036112585146       -1.83669970637172       -4.16389640335389
H            2.92580624819841       -1.95807494579378       -4.22308492540980
H            4.21900424400207       -1.18695521884662       -2.27052588621237
H            7.87154389214318        0.63859238379949        2.03211895487477
H           10.30306388818120        0.74216678529402        2.01553590786143

          :  Hamiltonian                  GFN2-xTB          :
         :: gradient norm              0.000117281314 Eh/a0 ::
         :: HOMO-LUMO gap              1.888305481234 eV    ::
         :: SCC energy              -177.102942923374 Eh    ::
         :: -> dispersion             -0.171378514101 Eh    ::
         :: -> Gsolv                  -0.065397763533 Eh    ::
         :: repulsion energy           3.000296428965 Eh    ::

    * Orbital Energies and Occupations

         #    Occupation            Energy/Eh            Energy/eV
      -------------------------------------------------------------
         1        2.0000           -0.7348572             -19.9965
       ...           ...                  ...                  ...
       150        2.0000           -0.4041422             -10.9973
       151        2.0000           -0.4024021             -10.9499
       152        2.0000           -0.4022205             -10.9450
       153        2.0000           -0.3971270             -10.8064
       154        2.0000           -0.3954902             -10.7618
       155        2.0000           -0.3904701             -10.6252
       156        2.0000           -0.3902676             -10.6197
       157        2.0000           -0.3898948             -10.6096
       158        2.0000           -0.3896592             -10.6032
       159        2.0000           -0.3853914             -10.4870
       160        2.0000           -0.3712580             -10.1024
       161        2.0000           -0.3470346              -9.4433
       162        2.0000           -0.3446254              -9.3777 (HOMO)
       163                         -0.2752314              -7.4894 (LUMO)
       164                         -0.2379608              -6.4752
       165                         -0.2346770              -6.3859
       166                         -0.2328459              -6.3361
       167                         -0.2289543              -6.2302
       168                         -0.2272462              -6.1837
       169                         -0.2223576              -6.0507
       170                         -0.2217407              -6.0339
       171                         -0.2203327              -5.9956
       172                         -0.2191946              -5.9646
       173                         -0.2179098              -5.9296
       ...                                ...                  ...
       319                          0.6938826              18.8815
      -------------------------------------------------------------
                  HL-Gap            0.0693940 Eh            1.8883 eV

     #   Z          covCN         q      C6AA      α(0)
     1   6 C        3.761    -0.109    22.632     6.782
     2   6 C        3.902     0.026    20.079     6.369
     3   6 C        3.761    -0.106    22.578     6.774
     4   6 C        3.761    -0.106    22.578     6.774
     5   6 C        2.972     0.011    27.767     8.643
     6   6 C        2.927    -0.034    28.857     8.810
     7   6 C        2.920    -0.041    29.016     8.833
     8   6 C        2.927     0.063    26.590     8.456
     9   7 N        2.753    -0.077    22.733     7.081
    10   6 C        2.925     0.061    26.627     8.462
    11   6 C        2.923    -0.060    29.480     8.904
    12   6 C        2.920    -0.035    28.863     8.810
    13   6 C        2.917    -0.046    29.141     8.852
    14   6 C        2.926    -0.036    28.908     8.817
    15   6 C        2.987    -0.013    28.338     8.732
    16   6 C        3.927     0.018    20.214     6.390
    17   6 C        2.988    -0.014    28.342     8.733
    18   6 C        2.926    -0.037    28.922     8.819
    19   6 C        2.917    -0.046    29.146     8.853
    20   6 C        2.920    -0.035    28.865     8.810
    21   6 C        2.924    -0.059    29.478     8.904
    22   6 C        2.926     0.061    26.625     8.462
    23   6 C        2.988    -0.012    28.307     8.727
    24   6 C        2.926    -0.036    28.905     8.817
    25   6 C        2.917    -0.045    29.128     8.850
    26   6 C        2.920    -0.034    28.854     8.809
    27   6 C        2.924    -0.059    29.472     8.903
    28   6 C        2.926     0.061    26.632     8.463
    29   7 N        2.754    -0.074    22.682     7.073
    30   6 C        2.929     0.073    26.360     8.420
    31   6 C        2.916    -0.079    29.986     8.980
    32   6 C        2.874     0.140    24.944     8.187
    33   6 C        2.887    -0.125    31.188     9.156
    34   6 C        2.874     0.140    24.940     8.187
    35   6 C        2.915    -0.079    29.986     8.980
    36   8 O        1.711    -0.235    17.892     5.711
    37   6 C        2.877     0.132    25.116     8.216
    38   6 C        2.913    -0.056    29.398     8.891
    39   6 C        2.925    -0.035    28.876     8.812
    40   6 C        2.969     0.003    27.953     8.672
    41   6 C        3.902     0.026    20.087     6.371
    42   6 C        3.761    -0.109    22.628     6.781
    43   6 C        3.761    -0.107    22.592     6.776
    44   6 C        3.761    -0.108    22.604     6.778
    45   6 C        2.933    -0.040    28.982     8.829
    46   6 C        2.881    -0.091    30.293     9.023
    47   5 B        2.723     0.213    18.194     7.148
    48   6 C        2.882    -0.092    30.301     9.024
    49   6 C        2.930    -0.044    29.087     8.845
    50   6 C        2.968     0.003    27.955     8.673
    51   6 C        3.902     0.026    20.088     6.371
    52   6 C        3.761    -0.109    22.626     6.781
    53   6 C        3.761    -0.107    22.585     6.775
    54   6 C        3.761    -0.107    22.586     6.775
    55   6 C        2.928    -0.031    28.767     8.796
    56   6 C        2.913    -0.056    29.384     8.889
    57   6 C        2.877     0.132    25.107     8.214
    58   8 O        1.711    -0.234    17.877     5.709
    59   6 C        2.926     0.061    26.633     8.463
    60   6 C        2.923    -0.059    29.475     8.903
    61   6 C        2.920    -0.034    28.854     8.809
    62   6 C        2.917    -0.045    29.127     8.850
    63   6 C        2.927    -0.036    28.900     8.816
    64   6 C        2.987    -0.012    28.305     8.727
    65   6 C        2.920    -0.041    29.019     8.834
    66   6 C        2.925    -0.039    28.964     8.826
    67   1 H        0.925     0.038     2.482     2.463
    68   1 H        0.925     0.038     2.481     2.463
    69   1 H        0.925     0.040     2.448     2.447
    70   1 H        0.925     0.034     2.530     2.487
    71   1 H        0.925     0.041     2.429     2.437
    72   1 H        0.925     0.038     2.472     2.459
    73   1 H        0.925     0.042     2.429     2.437
    74   1 H        0.925     0.038     2.473     2.459
    75   1 H        0.925     0.034     2.529     2.487
    76   1 H        0.926     0.041     2.436     2.441
    77   1 H        0.926     0.035     2.513     2.479
    78   1 H        0.926     0.028     2.612     2.528
    79   1 H        0.926     0.029     2.600     2.521
    80   1 H        0.926     0.025     2.652     2.546
    81   1 H        0.926     0.020     2.731     2.584
    82   1 H        0.926     0.021     2.723     2.580
    83   1 H        0.926     0.025     2.653     2.547
    84   1 H        0.926     0.029     2.599     2.521
    85   1 H        0.926     0.028     2.609     2.526
    86   1 H        0.926     0.024     2.674     2.557
    87   1 H        0.926     0.028     2.615     2.529
    88   1 H        0.926     0.030     2.588     2.516
    89   1 H        0.926     0.025     2.664     2.552
    90   1 H        0.926     0.051     2.304     2.374
    91   1 H        0.926     0.051     2.307     2.375
    92   1 H        0.926     0.041     2.440     2.443
    93   1 H        0.926     0.048     2.343     2.394
    94   1 H        0.925     0.036     2.503     2.474
    95   1 H        0.925     0.039     2.461     2.453
    96   1 H        0.925     0.036     2.496     2.471
    97   1 H        0.925     0.039     2.464     2.455
    98   1 H        0.925     0.041     2.435     2.440
    99   1 H        0.925     0.033     2.549     2.497
   100   1 H        0.925     0.033     2.537     2.491
   101   1 H        0.925     0.041     2.439     2.442
   102   1 H        0.925     0.041     2.439     2.442
   103   1 H        0.926     0.049     2.333     2.388
   104   1 H        0.926     0.054     2.271     2.357
   105   1 H        0.925     0.038     2.482     2.464
   106   1 H        0.925     0.040     2.451     2.448
   107   1 H        0.925     0.038     2.472     2.459
   108   1 H        0.925     0.034     2.534     2.489
   109   1 H        0.925     0.037     2.494     2.470
   110   1 H        0.925     0.041     2.440     2.443
   111   1 H        0.925     0.037     2.492     2.469
   112   1 H        0.925     0.041     2.440     2.443
   113   1 H        0.925     0.034     2.528     2.487
   114   1 H        0.926     0.042     2.426     2.436
   115   1 H        0.926     0.041     2.435     2.440
   116   1 H        0.926     0.025     2.664     2.552
   117   1 H        0.926     0.030     2.589     2.516
   118   1 H        0.926     0.028     2.616     2.529
   119   1 H        0.926     0.024     2.679     2.560
   120   1 H        0.926     0.036     2.507     2.476
   121   1 H        0.926     0.048     2.344     2.394

molecular dipole:
                 x           y           z       tot (Debye)
 q only:       -0.979       0.134      -0.026
   full:       -0.815       0.132      -0.037       2.101

 projected vibrational frequencies (cm⁻¹)
eigval :       -0.00    -0.00    -0.00    -0.00    -0.00     0.00
eigval :       -6.43     4.12     6.25     8.84    14.95    21.04
eigval :       23.56    29.10    30.40    30.72    37.04    46.12
eigval :       48.85    54.07    61.18    67.86    69.17    77.43
eigval :       86.21    93.95   105.05   107.59   108.91   116.55
eigval :      123.01   131.58   136.92   148.09   150.89   169.33
eigval :      172.34   175.00   183.19   206.40   211.69   212.95
eigval :      217.35   223.09   225.15   226.38   234.57   236.32
eigval :      242.65   255.44   259.98   268.08   270.00   272.23
eigval :      279.58   288.02   293.53   298.42   312.82   314.13
eigval :      316.89   317.99   319.99   329.93   349.62   357.93
eigval :      361.09   361.45   364.76   374.29   381.29   384.81
eigval :      387.93   389.86   392.59   397.43   400.73   404.01
eigval :      417.56   427.61   431.67   434.82   436.34   436.76
eigval :      440.19   444.97   449.56   453.11   455.16   461.47
eigval :      478.63   488.85   493.15   501.64   505.47   507.69
eigval :      516.63   517.79   530.37   541.42   553.79   558.23
eigval :      570.37   581.32   594.64   596.73   598.06   600.34
eigval :      605.68   612.40   619.14   624.26   644.98   649.24
eigval :      653.53   657.27   666.21   680.99   683.83   688.72
eigval :      692.39   694.52   697.34   703.33   706.02   710.34
eigval :      718.11   728.78   750.18   765.16   769.08   772.58
eigval :      780.36   802.79   815.61   825.23   827.08   828.15
eigval :      830.41   850.58   858.48   859.59   861.63   861.97
eigval :      865.40   871.62   872.63   873.17   877.19   882.68
eigval :      891.81   894.56   895.77   899.87   901.33   903.30
eigval :      904.84   907.97   910.92   915.64   916.77   918.09
eigval :      920.84   922.83   924.27   926.13   929.17   938.93
eigval :      945.98   946.69   958.87   959.56   959.93   960.29
eigval :      960.79   961.58   962.48   962.69   964.88   967.03
eigval :     1014.94  1023.71  1033.63  1034.11  1034.59  1034.85
eigval :     1035.16  1035.64  1075.16  1082.22  1100.78  1103.80
eigval :     1105.14  1106.10  1106.53  1122.06  1122.56  1130.44
eigval :     1133.41  1137.93  1139.58  1140.17  1143.87  1168.84
eigval :     1177.09  1179.00  1179.58  1181.13  1181.91  1183.69
eigval :     1186.78  1193.70  1207.74  1212.92  1215.96  1225.20
eigval :     1225.85  1226.24  1228.50  1228.51  1229.46  1230.65
eigval :     1231.45  1232.72  1239.05  1248.06  1251.37  1262.71
eigval :     1263.68  1268.03  1268.27  1272.17  1273.93  1279.68
eigval :     1284.60  1291.22  1294.60  1309.15  1323.93  1326.14
eigval :     1327.04  1327.14  1332.27  1333.56  1335.23  1336.13
eigval :     1336.65  1337.31  1348.22  1395.65  1395.69  1396.82
eigval :     1397.65  1402.15  1402.65  1403.23  1406.49  1407.14
eigval :     1408.38  1426.12  1426.47  1427.13  1434.70  1436.59
eigval :     1436.77  1437.37  1442.15  1445.45  1461.43  1477.94
eigval :     1478.27  1483.59  1487.47  1487.87  1489.30  1490.18
eigval :     1490.77  1491.78  1492.11  1494.98  1496.57  1498.26
eigval :     1499.53  1501.48  1502.72  1503.59  1510.56  1510.78
eigval :     1510.91  1516.01  1516.26  1516.72  1535.67  1545.41
eigval :     1548.34  1568.62  1571.59  1572.57  1572.80  1583.85
eigval :     1589.06  1589.10  1590.11  1592.29  1597.56  1598.99
eigval :     1602.17  1603.69  3020.57  3020.78  3021.64  3021.69
eigval :     3021.78  3022.28  3025.10  3025.25  3025.70  3025.88
eigval :     3026.32  3026.46  3028.69  3029.30  3029.88  3031.76
eigval :     3032.01  3033.08  3036.73  3037.38  3037.41  3045.04
eigval :     3045.52  3046.96  3048.84  3048.93  3054.08  3069.17
eigval :     3071.58  3071.97  3072.32  3072.65  3073.91  3074.23
eigval :     3074.64  3076.95  3079.62  3082.04  3085.27  3087.06
eigval :     3087.35  3088.61  3089.38  3092.36  3094.20  3095.28
eigval :     3096.13  3096.56  3097.66  3106.59  3108.03  3116.54
eigval :     3117.06  3120.21  3147.66

   temp. (K)  partition function   enthalpy   heat capacity  entropy
                                   cal/mol     cal/K/mol   cal/K/mol   J/K/mol
 298.15  VIB  0.459E+29            35073.255    217.403    219.973
         ROT  0.237E+09              888.752      2.981     41.301
         INT  0.109E+38            35962.007    220.384    261.274
         TR   0.244E+29             1481.254      4.968     46.107
         TOT                       37443.2611   225.3518   307.3815  1286.0841

       T/K    H(0)-H(T)+PV         H(T)/Eh          T*S/Eh         G(T)/Eh
   ------------------------------------------------------------------------
    298.15    0.596696E-01    0.103607E+01    0.146047E+00    0.890025E+00
   ------------------------------------------------------------------------

         :::::::::::::::::::::::::::::::::::::::::::::::::::::
         ::                  THERMODYNAMIC                  ::
         :::::::::::::::::::::::::::::::::::::::::::::::::::::
         :: total free energy        -173.212621588055 Eh   ::
         ::.................................................::
         :: total energy             -174.102646493065 Eh   ::
         :: zero point energy           0.976402126867 Eh   ::
         :: G(RRHO) w/o ZPVE           -0.086377221856 Eh   ::
         :: G(RRHO) contrib.            0.890024905010 Eh   ::
         :::::::::::::::::::::::::::::::::::::::::::::::::::::

           -------------------------------------------------
          | TOTAL ENERGY             -174.102646493065 Eh   |
          | TOTAL ENTHALPY           -173.066574731530 Eh   |
          | TOTAL FREE ENERGY        -173.212621588055 Eh   |
          | GRADIENT NORM               0.000117308344 Eh/α |
          | HOMO-LUMO GAP               1.888307657924 eV   |
           -------------------------------------------------

 * finished run on 2025/08/23 at 00:17:42.856
