   * xtb version 6.7.1 (edcfbbe) compiled by 'albert@albert-system' on 2024-07-22

   ID    Z sym.   atoms
    1    6 C      1-8, 10-28, 30-35, 37-46, 48-57, 59-66
    2    7 N      9, 29
    3    8 O      36, 58
    4    5 B      47
    5    1 H      67-121

          program call               : xtb data2507/toluene/TDBA-SBA/TDBA-SBA_toluene_S0_crest.xyz --gfn 2 --gbsa toluene --ohess vtight --parallel 40 --molden --ceasefiles --namespace data2507/toluene/TDBA-SBA/TDBA-SBA_toluene_S0_finalOpt
      * Solvation model:               GBSA
        Solvent                        toluene
        Solvent mass                       9.2140E+01 g/mol
          :  Hamiltonian                  GFN2-xTB          :
 * total energy  :  -174.1025174 Eh     change       -0.5424369E-08 Eh
 * total energy  :  -174.1025848 Eh     change       -0.6741422E-04 Eh
 * total energy  :  -174.1026260 Eh     change       -0.4117556E-04 Eh
 * total energy  :  -174.1026510 Eh     change       -0.2501073E-04 Eh
 * total energy  :  -174.1026701 Eh     change       -0.1916698E-04 Eh
 * total energy  :  -174.1026890 Eh     change       -0.1882188E-04 Eh
 * total energy  :  -174.1026966 Eh     change       -0.7685263E-05 Eh
 * total energy  :  -174.1027067 Eh     change       -0.1007567E-04 Eh
 * total energy  :  -174.1027197 Eh     change       -0.1294902E-04 Eh
 * total energy  :  -174.1027278 Eh     change       -0.8144803E-05 Eh
 * total energy  :  -174.1028014 Eh     change       -0.9639968E-06 Eh
 * total energy  :  -174.1028024 Eh     change       -0.9904028E-06 Eh
 * total energy  :  -174.1028035 Eh     change       -0.1107440E-05 Eh
 * total energy  :  -174.1028047 Eh     change       -0.1213916E-05 Eh
 * total energy  :  -174.1028060 Eh     change       -0.1274180E-05 Eh
 * total energy  :  -174.1028072 Eh     change       -0.1225090E-05 Eh
 * total energy  :  -174.1028081 Eh     change       -0.9032664E-06 Eh
 * total energy  :  -174.1028088 Eh     change       -0.6962863E-06 Eh
 * total energy  :  -174.1028088 Eh     change       -0.9271787E-08 Eh
   *** GEOMETRY OPTIMIZATION CONVERGED AFTER 44 ITERATIONS ***

 final structure:
================
121
 xtb: 6.7.1 (edcfbbe)
C           12.25751698363502        1.72096347717054        0.30835482902366
C           11.84252010198925        0.24411941675927        0.22943267491553
C           12.54984267882696       -0.38735216124383       -0.97352233132168
C           12.30055453239920       -0.49418316681875        1.49620079811973
C           10.32695160587493        0.16097880165699        0.12899193832132
C            9.67126509694162       -0.42508492792927       -0.94793877396793
C            8.28920840505460       -0.48266149720501       -1.00437877651291
C            7.52493680868889        0.04642569077915        0.02436149067327
N            6.10152728483110       -0.01260905046147       -0.02774156030034
C            5.45860958106732       -1.15803036219991        0.41202384661608
C            6.19928480085497       -2.23500468810593        0.90811769574278
C            5.57187999078279       -3.38439436495114        1.34374896907647
C            4.19205458166740       -3.48772990402089        1.29593977509539
C            3.45377543714795       -2.42176232407585        0.81533709880657
C            4.06476312388750       -1.25807561256201        0.37495750690836
C            3.18599014201264       -0.12215911540768       -0.11073940876976
C            4.00658148481650        1.04677677161313       -0.62066218840168
C            3.33971566853078        2.13704532307200       -1.15738417677856
C            4.02428624549361        3.24199772788772       -1.62938307563861
C            5.40716123598724        3.25656365395963       -1.56353849515249
C            6.08974585182903        2.18013731692408       -1.03461230290696
C            5.40274257237853        1.06130035009990       -0.55400509914509
C            2.35388793916699        0.36039796804092        1.06165289380135
C            3.01291363262488        0.82725013000113        2.18864908074545
C            2.31990337763333        1.26369276634426        3.30244273226475
C            0.93623929781852        1.22089583805495        3.29349161587845
C            0.26169497048219        0.76205179927788        2.18027841307915
C            0.95684906292948        0.33895988657808        1.04380817013492
N            0.26587616280351       -0.11251416080925       -0.07134677497683
C           -1.15538528431595       -0.08172718504443       -0.05957284672801
C           -1.81241661530816        1.12431067825461       -0.26069146581705
C           -3.20257797890395        1.15459699083476       -0.22879265288471
C           -3.95534686511881       -0.01123657282490       -0.02172426792682
C           -3.25680909564956       -1.21394225690462        0.16412644279041
C           -1.86630636156271       -1.25402894561030        0.15785724235548
O           -3.90600071522140       -2.38025953388789        0.36823860024924
C           -5.26836678698720       -2.46586082466108        0.29269513166023
C           -5.77182717669651       -3.76072228664189        0.42581223080483
C           -7.12329717166592       -3.99148905294934        0.33492633531005
C           -8.02028263094692       -2.94570449261448        0.09186441991918
C           -9.50562120593121       -3.25285774490310       -0.03295962023277
C           -9.71803049020612       -4.23185805758697       -1.19729589865986
C          -10.34776266088145       -2.00218102735070       -0.30159555886040
C           -9.99556185430832       -3.88751122231583        1.27725702875265
C           -7.49904064464359       -1.67107130610397       -0.02168179899702
C           -6.13142692341731       -1.37547584057920        0.09059333462771
B           -5.48293531471672        0.02830465328862        0.00314562583013
C           -6.06000616897918        1.46455459828569       -0.05654003128409
C           -7.40442579861073        1.83109370203097        0.11205026229188
C           -7.86056031724260        3.13288573710282        0.03105407852990
C           -9.32057679779297        3.51802411503041        0.22166063302121
C           -9.82846130325040        4.20342575782375       -1.05570892128378
C          -10.21881195884306        2.31024908677053        0.50442203605216
C           -9.43069244949640        4.48517707853952        1.40986416926685
C           -6.91913707344025        4.13233438146462       -0.23745644115626
C           -5.58699238359192        3.83087352970221       -0.38645465508044
C           -5.14885466633944        2.50979976479383       -0.28410357517672
O           -3.79680728925845        2.35311721996001       -0.41221880180817
C            0.92386882902917       -0.58900693142429       -1.19589074437527
C            0.19690725508592       -1.02287256972309       -2.30807096920465
C            0.83962897796122       -1.50974047458911       -3.42829196209503
C            2.22213907236009       -1.57045530666794       -3.46893917891614
C            2.94671896396551       -1.12198281808515       -2.38018878999444
C            2.31998824947552       -0.62744406776167       -1.24656362077006
C            8.16230371207795        0.63587112970228        1.10775168690691
C            9.54172136257560        0.69012465373667        1.15186211147158
H           11.91550972193763        2.25593760988372       -0.57560773654379
H           11.83651536741877        2.20621498270722        1.18454688282112
H           13.34108629608188        1.80154954857213        0.36251736456369
H           12.30715559972870       -1.44401774128938       -1.06110929390459
H           12.28085633295586        0.11981797718026       -1.89736913817645
H           13.62693976029930       -0.30056766221599       -0.84536399477118
H           13.38504365469041       -0.46091165860554        1.57567152894512
H           11.98943131369882       -1.53644551775300        1.45812315801175
H           11.88034852020181       -0.04580321148864        2.39220726996552
H           10.22898049539423       -0.84862112697415       -1.76663820316834
H            7.79789143338257       -0.94221938066007       -1.85006539696251
H            7.27554084609058       -2.16472870291712        0.95163829573518
H            6.16663037570896       -4.20265808153089        1.72294221020588
H            3.69607194664824       -4.38538210263601        1.63318884688549
H            2.37536436374440       -2.48582841663449        0.77911543372689
H            2.26022087334905        2.11225102833298       -1.20496308661991
H            3.48455590675834        4.08020621124485       -2.04350883208111
H            5.96094333771545        4.10975248269964       -1.92751232976232
H            7.16810897183424        2.20039373402426       -0.99163126649959
H            4.09324245171748        0.84415174864533        2.18704400519990
H            2.85293950938180        1.62536276680023        4.16861667433554
H            0.37482244159641        1.54399361537102        4.15802145969811
H           -0.81692194097479        0.72659060732099        2.18863887650544
H           -1.25772748306577        2.03459148346708       -0.42480813299461
H           -1.35326827824121       -2.19030501215837        0.31118498062682
H           -5.07601436543833       -4.56969775145292        0.59199160270623
H           -7.48076621387028       -5.00407553682817        0.44141870415241
H           -9.18934988608012       -5.16673169542309       -1.03276909595825
H           -9.35736029533004       -3.79554772195921       -2.12689498365685
H          -10.77698163635418       -4.45552358758709       -1.30908230485645
H          -11.39531679562955       -2.28394401973296       -0.38777756428711
H          -10.05189386168358       -1.52421824656510       -1.23261794864904
H          -10.25922850245813       -1.28912411244560        0.51431633124599
H           -9.48442484717913       -4.82441184005608        1.48085973075413
H           -9.81654346868280       -3.21267989148686        2.11209278478148
H          -11.06320743567475       -4.08883974195392        1.21872152280304
H           -8.15877352886029       -0.84740636741020       -0.22577652432878
H           -8.09891090201162        1.04155624124124        0.33477464140960
H           -9.27240134242660        5.11247127620541       -1.26774717513177
H          -10.87878494406321        4.46554005765625       -0.94664204864259
H           -9.72609896764796        3.53456184935305       -1.90810857320782
H          -10.19958413482842        1.60696780790509       -0.32445451287173
H           -9.91480157761339        1.80190498796088        1.41653970457123
H          -11.24557722423221        2.64638719189486        0.63456492011864
H           -9.05729586392881        4.01257383238107        2.31638970285554
H          -10.47015211025665        4.76437390091315        1.56941253520371
H           -8.85799502497239        5.39253964733384        1.23863851963454
H           -7.22578047457827        5.16376876200903       -0.31874622816272
H           -4.85564743647379        4.60312927921933       -0.57326542049055
H           -0.88107536901846       -0.97353211003937       -2.29173852524687
H            0.25399390492633       -1.84097116256067       -4.27345509887020
H            2.72983398185245       -1.95417730755490       -4.34083309231162
H            4.02692770421411       -1.14973713833713       -2.40301354209909
H            7.57256846512980        1.05250434227383        1.91145086541411
H           10.00764598044010        1.15552579802460        2.00685630314514

          :  Hamiltonian                  GFN2-xTB          :
         :: gradient norm              0.000066615371 Eh/a0 ::
         :: HOMO-LUMO gap              1.908936228194 eV    ::
         :: SCC energy              -177.102932276970 Eh    ::
         :: -> dispersion             -0.171447047899 Eh    ::
         :: -> Gsolv                  -0.065267876199 Eh    ::
         :: repulsion energy           3.000123486218 Eh    ::

    * Orbital Energies and Occupations

         #    Occupation            Energy/Eh            Energy/eV
      -------------------------------------------------------------
         1        2.0000           -0.7344021             -19.9841
       ...           ...                  ...                  ...
       150        2.0000           -0.4041327             -10.9970
       151        2.0000           -0.4024416             -10.9510
       152        2.0000           -0.4018189             -10.9340
       153        2.0000           -0.3971496             -10.8070
       154        2.0000           -0.3948761             -10.7451
       155        2.0000           -0.3906411             -10.6299
       156        2.0000           -0.3898876             -10.6094
       157        2.0000           -0.3897840             -10.6066
       158        2.0000           -0.3896275             -10.6023
       159        2.0000           -0.3855014             -10.4900
       160        2.0000           -0.3707475             -10.0886
       161        2.0000           -0.3472848              -9.4501
       162        2.0000           -0.3447031              -9.3798 (HOMO)
       163                         -0.2745510              -7.4709 (LUMO)
       164                         -0.2375113              -6.4630
       165                         -0.2345931              -6.3836
       166                         -0.2329883              -6.3399
       167                         -0.2290357              -6.2324
       168                         -0.2272241              -6.1831
       169                         -0.2219303              -6.0390
       170                         -0.2217981              -6.0354
       171                         -0.2204876              -5.9998
       172                         -0.2192260              -5.9654
       173                         -0.2179998              -5.9321
       ...                                ...                  ...
       319                          0.6934600              18.8700
      -------------------------------------------------------------
                  HL-Gap            0.0701521 Eh            1.9089 eV

     #   Z          covCN         q      C6AA      α(0)
     1   6 C        3.761    -0.106    22.578     6.774
     2   6 C        3.902     0.026    20.079     6.369
     3   6 C        3.761    -0.109    22.632     6.782
     4   6 C        3.761    -0.106    22.579     6.774
     5   6 C        2.972     0.011    27.767     8.643
     6   6 C        2.925    -0.039    28.964     8.826
     7   6 C        2.920    -0.041    29.019     8.834
     8   6 C        2.926     0.063    26.590     8.456
     9   7 N        2.753    -0.077    22.734     7.082
    10   6 C        2.925     0.061    26.626     8.462
    11   6 C        2.924    -0.059    29.479     8.904
    12   6 C        2.920    -0.035    28.863     8.810
    13   6 C        2.917    -0.046    29.141     8.852
    14   6 C        2.926    -0.037    28.913     8.818
    15   6 C        2.987    -0.013    28.340     8.733
    16   6 C        3.927     0.018    20.214     6.390
    17   6 C        2.988    -0.013    28.341     8.733
    18   6 C        2.926    -0.037    28.919     8.819
    19   6 C        2.917    -0.046    29.144     8.853
    20   6 C        2.920    -0.035    28.864     8.810
    21   6 C        2.924    -0.059    29.478     8.904
    22   6 C        2.926     0.061    26.625     8.462
    23   6 C        2.988    -0.012    28.303     8.727
    24   6 C        2.927    -0.037    28.908     8.817
    25   6 C        2.917    -0.045    29.124     8.850
    26   6 C        2.920    -0.034    28.855     8.809
    27   6 C        2.924    -0.059    29.468     8.902
    28   6 C        2.925     0.061    26.635     8.464
    29   7 N        2.754    -0.073    22.662     7.070
    30   6 C        2.928     0.073    26.371     8.422
    31   6 C        2.916    -0.080    29.994     8.981
    32   6 C        2.874     0.140    24.948     8.188
    33   6 C        2.887    -0.125    31.193     9.157
    34   6 C        2.874     0.140    24.949     8.188
    35   6 C        2.915    -0.080    29.996     8.981
    36   8 O        1.711    -0.235    17.891     5.711
    37   6 C        2.877     0.132    25.111     8.215
    38   6 C        2.913    -0.056    29.389     8.889
    39   6 C        2.927    -0.031    28.770     8.796
    40   6 C        2.968     0.003    27.955     8.673
    41   6 C        3.902     0.026    20.088     6.371
    42   6 C        3.761    -0.107    22.583     6.774
    43   6 C        3.761    -0.110    22.652     6.785
    44   6 C        3.761    -0.107    22.586     6.775
    45   6 C        2.930    -0.044    29.101     8.847
    46   6 C        2.882    -0.092    30.300     9.024
    47   5 B        2.723     0.213    18.203     7.149
    48   6 C        2.881    -0.092    30.301     9.024
    49   6 C        2.930    -0.044    29.101     8.847
    50   6 C        2.968     0.003    27.956     8.673
    51   6 C        3.902     0.026    20.088     6.371
    52   6 C        3.761    -0.107    22.587     6.775
    53   6 C        3.761    -0.110    22.651     6.785
    54   6 C        3.761    -0.107    22.583     6.774
    55   6 C        2.927    -0.031    28.770     8.796
    56   6 C        2.913    -0.056    29.388     8.889
    57   6 C        2.877     0.132    25.111     8.215
    58   8 O        1.711    -0.235    17.893     5.711
    59   6 C        2.925     0.061    26.637     8.464
    60   6 C        2.924    -0.059    29.473     8.903
    61   6 C        2.920    -0.034    28.852     8.808
    62   6 C        2.917    -0.045    29.120     8.849
    63   6 C        2.927    -0.036    28.894     8.815
    64   6 C        2.987    -0.012    28.300     8.726
    65   6 C        2.920    -0.041    29.017     8.833
    66   6 C        2.927    -0.034    28.857     8.810
    67   1 H        0.925     0.034     2.530     2.487
    68   1 H        0.925     0.038     2.472     2.459
    69   1 H        0.925     0.042     2.429     2.437
    70   1 H        0.925     0.038     2.482     2.464
    71   1 H        0.925     0.038     2.482     2.464
    72   1 H        0.925     0.040     2.448     2.447
    73   1 H        0.925     0.041     2.429     2.437
    74   1 H        0.925     0.034     2.530     2.487
    75   1 H        0.925     0.038     2.472     2.459
    76   1 H        0.926     0.048     2.345     2.395
    77   1 H        0.926     0.035     2.510     2.477
    78   1 H        0.926     0.028     2.610     2.527
    79   1 H        0.926     0.029     2.599     2.521
    80   1 H        0.926     0.025     2.651     2.546
    81   1 H        0.926     0.020     2.727     2.582
    82   1 H        0.926     0.020     2.726     2.582
    83   1 H        0.926     0.025     2.652     2.547
    84   1 H        0.926     0.029     2.598     2.521
    85   1 H        0.926     0.028     2.609     2.526
    86   1 H        0.926     0.024     2.669     2.555
    87   1 H        0.926     0.028     2.613     2.528
    88   1 H        0.926     0.030     2.585     2.514
    89   1 H        0.926     0.025     2.654     2.547
    90   1 H        0.926     0.051     2.310     2.377
    91   1 H        0.926     0.051     2.305     2.374
    92   1 H        0.926     0.041     2.442     2.444
    93   1 H        0.926     0.041     2.433     2.439
    94   1 H        0.925     0.036     2.498     2.471
    95   1 H        0.925     0.033     2.538     2.491
    96   1 H        0.925     0.040     2.444     2.445
    97   1 H        0.925     0.040     2.453     2.449
    98   1 H        0.925     0.038     2.479     2.462
    99   1 H        0.925     0.040     2.446     2.446
   100   1 H        0.925     0.037     2.495     2.470
   101   1 H        0.925     0.034     2.526     2.485
   102   1 H        0.925     0.041     2.441     2.443
   103   1 H        0.926     0.056     2.246     2.344
   104   1 H        0.926     0.056     2.246     2.344
   105   1 H        0.925     0.037     2.496     2.470
   106   1 H        0.925     0.041     2.442     2.444
   107   1 H        0.925     0.034     2.525     2.485
   108   1 H        0.925     0.040     2.447     2.446
   109   1 H        0.925     0.038     2.479     2.462
   110   1 H        0.925     0.040     2.453     2.449
   111   1 H        0.925     0.033     2.538     2.491
   112   1 H        0.925     0.040     2.444     2.445
   113   1 H        0.925     0.036     2.498     2.472
   114   1 H        0.926     0.041     2.433     2.439
   115   1 H        0.926     0.040     2.442     2.444
   116   1 H        0.926     0.025     2.652     2.547
   117   1 H        0.926     0.030     2.586     2.515
   118   1 H        0.926     0.028     2.614     2.528
   119   1 H        0.926     0.024     2.678     2.559
   120   1 H        0.926     0.035     2.511     2.478
   121   1 H        0.926     0.041     2.435     2.440

molecular dipole:
                 x           y           z       tot (Debye)
 q only:       -0.950       0.113       0.101
   full:       -0.780       0.106       0.097       2.017

 projected vibrational frequencies (cm⁻¹)
eigval :       -0.00    -0.00     0.00     0.00     0.00     0.00
eigval :       -6.75     5.12     6.20    17.32    18.27    22.20
eigval :       22.77    27.62    31.52    35.53    36.08    45.74
eigval :       49.92    57.75    62.11    67.64    68.70    78.68
eigval :       86.39    92.73   106.18   108.23   110.90   117.02
eigval :      123.64   134.32   138.99   149.48   152.05   173.48
eigval :      175.41   178.05   178.38   208.32   211.00   214.21
eigval :      216.15   221.14   223.68   228.43   230.61   233.68
eigval :      242.18   256.47   261.74   263.33   266.89   270.15
eigval :      284.28   287.71   290.04   297.01   314.20   316.60
eigval :      320.29   323.63   327.82   329.86   349.00   352.83
eigval :      361.54   364.34   365.43   374.12   380.86   385.12
eigval :      385.49   390.17   392.69   397.79   400.71   404.42
eigval :      414.08   428.01   431.84   434.27   435.22   435.73
eigval :      439.38   445.46   448.45   453.49   454.84   461.69
eigval :      478.93   489.52   493.32   501.62   505.26   506.55
eigval :      516.70   518.03   530.60   541.83   554.76   558.59
eigval :      569.28   581.10   595.06   595.63   598.41   600.12
eigval :      605.82   612.49   618.21   624.19   645.31   649.22
eigval :      653.20   658.04   666.54   681.42   683.67   687.67
eigval :      692.38   693.99   697.66   701.65   706.11   710.55
eigval :      715.67   728.85   750.43   766.16   767.61   769.79
eigval :      777.01   802.71   816.27   826.44   828.06   828.32
eigval :      831.09   850.64   857.44   860.29   862.67   862.87
eigval :      863.66   872.26   872.51   872.89   875.80   877.42
eigval :      891.14   894.71   895.22   900.05   901.78   902.48
eigval :      904.68   905.77   912.47   914.38   915.05   916.21
eigval :      921.51   921.66   922.06   926.26   929.82   939.73
eigval :      945.75   946.62   958.41   959.45   959.95   960.01
eigval :      961.55   961.72   962.59   963.23   963.26   968.07
eigval :     1014.99  1023.49  1033.83  1034.62  1034.75  1035.11
eigval :     1035.28  1035.43  1074.87  1081.79  1100.64  1105.59
eigval :     1106.66  1107.19  1108.17  1122.54  1122.96  1130.25
eigval :     1133.84  1137.82  1139.70  1140.41  1144.01  1169.21
eigval :     1176.90  1177.90  1180.67  1182.47  1182.69  1184.24
eigval :     1188.06  1193.97  1207.65  1212.17  1214.83  1225.46
eigval :     1225.76  1225.96  1228.22  1229.58  1229.88  1230.59
eigval :     1231.51  1233.04  1240.02  1245.39  1250.54  1263.32
eigval :     1264.80  1268.78  1269.47  1273.39  1274.15  1278.42
eigval :     1284.83  1291.94  1293.40  1309.13  1326.07  1326.22
eigval :     1327.42  1330.15  1332.22  1333.83  1334.03  1336.67
eigval :     1336.86  1337.36  1347.87  1395.36  1395.53  1397.28
eigval :     1397.58  1401.47  1402.00  1402.72  1406.03  1406.87
eigval :     1408.65  1425.87  1426.56  1426.88  1434.55  1435.78
eigval :     1436.79  1437.92  1443.04  1445.79  1460.84  1477.86
eigval :     1478.13  1483.73  1488.19  1488.44  1488.72  1491.00
eigval :     1491.05  1491.57  1491.95  1494.96  1496.86  1499.71
eigval :     1499.87  1501.59  1501.92  1504.10  1510.48  1510.81
eigval :     1511.20  1515.24  1516.26  1519.00  1534.71  1544.59
eigval :     1547.84  1568.55  1571.93  1572.19  1572.69  1583.93
eigval :     1589.16  1589.20  1590.20  1594.51  1597.96  1599.02
eigval :     1602.06  1603.72  3021.37  3021.57  3021.71  3021.75
eigval :     3021.84  3022.51  3025.36  3025.44  3025.79  3026.17
eigval :     3026.71  3026.71  3028.72  3028.90  3030.01  3032.18
eigval :     3033.54  3034.36  3037.33  3038.65  3039.82  3044.80
eigval :     3044.93  3045.73  3048.02  3048.27  3049.18  3071.45
eigval :     3071.89  3073.16  3073.37  3073.94  3074.04  3074.97
eigval :     3076.43  3076.61  3078.36  3081.12  3082.04  3087.73
eigval :     3088.41  3089.56  3090.23  3091.65  3093.37  3094.02
eigval :     3096.27  3097.27  3097.52  3098.64  3105.90  3107.23
eigval :     3117.44  3145.46  3150.79

   temp. (K)  partition function   enthalpy   heat capacity  entropy
                                   cal/mol     cal/K/mol   cal/K/mol   J/K/mol
 298.15  VIB  0.117E+29            35029.847    217.589    218.627
         ROT  0.238E+09              888.752      2.981     41.311
         INT  0.278E+37            35918.600    220.570    259.938
         TR   0.244E+29             1481.254      4.968     46.107
         TOT                       37399.8536   225.5383   306.0450  1280.4923

       T/K    H(0)-H(T)+PV         H(T)/Eh          T*S/Eh         G(T)/Eh
   ------------------------------------------------------------------------
    298.15    0.596005E-01    0.103612E+01    0.145412E+00    0.890705E+00
   ------------------------------------------------------------------------

         :::::::::::::::::::::::::::::::::::::::::::::::::::::
         ::                  THERMODYNAMIC                  ::
         :::::::::::::::::::::::::::::::::::::::::::::::::::::
         :: total free energy        -173.212103731060 Eh   ::
         ::.................................................::
         :: total energy             -174.102808788448 Eh   ::
         :: zero point energy           0.976516455908 Eh   ::
         :: G(RRHO) w/o ZPVE           -0.085811398520 Eh   ::
         :: G(RRHO) contrib.            0.890705057388 Eh   ::
         :::::::::::::::::::::::::::::::::::::::::::::::::::::

           -------------------------------------------------
          | TOTAL ENERGY             -174.102808788448 Eh   |
          | TOTAL ENTHALPY           -173.066691872130 Eh   |
          | TOTAL FREE ENERGY        -173.212103731060 Eh   |
          | GRADIENT NORM               0.000066705890 Eh/α |
          | HOMO-LUMO GAP               1.908935953848 eV   |
           -------------------------------------------------

 * finished run on 2025/08/23 at 00:39:13.733
