   * xtb version 6.7.1 (edcfbbe) compiled by 'albert@albert-system' on 2024-07-22

   ID    Z sym.   atoms
    1    6 C      1-8, 10-28, 30-35, 37-46, 48-57, 59-66
    2    7 N      9, 29
    3    8 O      36, 58
    4    5 B      47
    5    1 H      67-121

          program call               : xtb data2507/toluene/TDBA-SBA/TDBA-SBA_toluene_S0_finalOpt.xtbopt.xyz --gfn 2 --uhf 2 --gbsa toluene --ohess vtight --parallel 40 --molden --ceasefiles --namespace data2507/toluene/TDBA-SBA/TDBA-SBA_toluene_T1_preOpt
      * Solvation model:               GBSA
        Solvent                        toluene
        Solvent mass                       9.2140E+01 g/mol
          :  Hamiltonian                  GFN2-xTB          :
 * total energy  :  -174.0080391 Eh     change        0.3834089E-09 Eh
 * total energy  :  -174.0090991 Eh     change       -0.1060017E-02 Eh
 * total energy  :  -174.0093689 Eh     change       -0.2698052E-03 Eh
 * total energy  :  -174.0093885 Eh     change       -0.1962702E-04 Eh
 * total energy  :  -174.0093975 Eh     change       -0.8965064E-05 Eh
 * total energy  :  -174.0094010 Eh     change       -0.3514923E-05 Eh
 * total energy  :  -174.0094041 Eh     change       -0.3121743E-05 Eh
 * total energy  :  -174.0094060 Eh     change       -0.1872990E-05 Eh
 * total energy  :  -174.0094077 Eh     change       -0.1694934E-05 Eh
 * total energy  :  -174.0094087 Eh     change       -0.9994532E-06 Eh
 * total energy  :  -174.0094463 Eh     change       -0.3616506E-06 Eh
 * total energy  :  -174.0094470 Eh     change       -0.6405440E-06 Eh
 * total energy  :  -174.0094472 Eh     change       -0.2723997E-06 Eh
 * total energy  :  -174.0094475 Eh     change       -0.2902514E-06 Eh
 * total energy  :  -174.0094477 Eh     change       -0.2001649E-06 Eh
 * total energy  :  -174.0094479 Eh     change       -0.1451824E-06 Eh
 * total energy  :  -174.0094480 Eh     change       -0.1319981E-06 Eh
 * total energy  :  -174.0094481 Eh     change       -0.1191492E-06 Eh
 * total energy  :  -174.0094482 Eh     change       -0.8864251E-07 Eh
   *** GEOMETRY OPTIMIZATION CONVERGED AFTER 76 ITERATIONS ***

 final structure:
================
121
 xtb: 6.7.1 (edcfbbe)
C           12.29292898348469        1.64024572230228        0.22575095981728
C           11.85782910568585        0.16918388570872        0.14597548749428
C           12.53522115347890       -0.46447023094216       -1.07290781557200
C           12.32787481841186       -0.58220395207613        1.40064969332248
C           10.34028717008908        0.10646134137252        0.07208523402932
C            9.65838511879469       -0.46823863443411       -0.99483663107950
C            8.27498841782416       -0.50716063788494       -1.02821770991945
C            7.53784267640286        0.03102400998408        0.01538595829848
N            6.11208640981016       -0.00805024830139       -0.01371289370291
C            5.46431827462316       -1.15527016365610        0.40479148537372
C            6.20190578712897       -2.25365267899109        0.86370212802999
C            5.56787362688274       -3.40682883393691        1.27398119688938
C            4.18433797347197       -3.49431810194560        1.23960094958141
C            3.44878950169604       -2.40888829897430        0.80071748085753
C            4.06693895563772       -1.23963279619026        0.38491201549974
C            3.19605121713785       -0.08196379589709       -0.05951390015237
C            4.02198263186004        1.10081572552413       -0.52595001412477
C            3.36091087209871        2.22143553076956       -1.00492667044836
C            4.05553010427062        3.33444485873752       -1.44134779330217
C            5.44170563578364        3.32704168586596       -1.40337335147249
C            6.11807197844037        2.22193417155321       -0.93293990332556
C            5.42135814896733        1.09358377308640       -0.48291542521404
C            2.36366112905770        0.35820294465852        1.12749989023374
C            3.01833916744432        0.77239792493505        2.27737839051133
C            2.31790860079927        1.17393964701147        3.39957080411065
C            0.93086934432989        1.15328479244144        3.37699266800705
C            0.26079094825618        0.74596458193900        2.24412580446437
C            0.96290697796398        0.35016968607944        1.09773489564373
N            0.27600906254602       -0.05149529658375       -0.03163600196632
C           -1.14777750461829       -0.02893609596608       -0.02017348556402
C           -1.82914187084563        1.17803161825075       -0.20669914991635
C           -3.21501369520124        1.18707085261635       -0.18528346631421
C           -3.97586730057131        0.01795355993858        0.00778902424541
C           -3.25062616015290       -1.17582656276066        0.18682684550419
C           -1.86509310065281       -1.21279104931323        0.18070469075077
O           -3.89239215503516       -2.36325368205240        0.38652719327703
C           -5.25754546156987       -2.45982643696879        0.32104612682945
C           -5.74236868893873       -3.75536153378389        0.45854964548225
C           -7.09977345785823       -4.00877734951582        0.37543433413192
C           -8.00088069020770       -2.96826616789173        0.13059911328413
C           -9.48417465480858       -3.28584264493789        0.01670855576200
C           -9.69568368629033       -4.28418673383315       -1.13213040100040
C          -10.34045362210555       -2.04825443887065       -0.26739255279401
C           -9.96500426781793       -3.90630128533001        1.33754565593291
C           -7.49239150507992       -1.68339442971924        0.00855374623152
C           -6.12926863045985       -1.36139311176569        0.12141077914741
B           -5.49419417956246        0.04314436183234        0.02200548946071
C           -6.08396069382409        1.46833978496848       -0.06252353060635
C           -7.43303226232156        1.83537855693907        0.07832419652770
C           -7.90015392061665        3.13727479876300       -0.02775083019251
C           -9.36938615933120        3.50435938429994        0.11599923600065
C           -9.85275964485094        4.15034140800211       -1.19164330245229
C          -10.26223483669633        2.29471988758024        0.40765990264455
C           -9.52567959897567        4.50126445343700        1.27489914334897
C           -6.96936615969284        4.14839819924755       -0.28423643002215
C           -5.62318002465843        3.84989415879812       -0.39519090714943
C           -5.18000680409963        2.53779931500706       -0.27529148416260
O           -3.82057329052729        2.39565461777923       -0.37039997426220
C            0.93305190570616       -0.48866674962526       -1.16558915971755
C            0.20208921862727       -0.88292867492963       -2.29437700939261
C            0.84270196647760       -1.33308787908955       -3.42812736498032
C            2.22792257872958       -1.40010919646074       -3.46906622636200
C            2.95714233727516       -0.99636573559714       -2.36608866796351
C            2.33244853957767       -0.53770063698335       -1.21639125657456
C            8.19978753859662        0.60936712566538        1.08998736608087
C            9.58032922408692        0.64361607542863        1.11002599221600
H           11.94099864773297        2.18556219866189       -0.64792356208903
H           11.89699408923003        2.12550118439281        1.11351226282113
H           13.37826024056650        1.70637983952552        0.25845928037204
H           12.27874001355019       -1.51775415225307       -1.16180356870239
H           12.25698837064220        0.05129860430512       -1.98923827605957
H           13.61540608852955       -0.39186105913763       -0.96366567144789
H           13.41383327241886       -0.56252547570291        1.46140639217404
H           12.00427000294867       -1.62061300758421        1.36209755925983
H           11.92938295064426       -0.13403446087826        2.30661634697898
H           10.19634995696948       -0.89707332417803       -1.82360146161525
H            7.76358305132656       -0.95811429645664       -1.86610918563058
H            7.27846862280549       -2.19352087165776        0.89755729592549
H            6.15649768992944       -4.24180914895824        1.62322461803120
H            3.68394680748454       -4.39648795518611        1.55611858715812
H            2.37004357749729       -2.46261914552041        0.77773549163844
H            2.28107450020607        2.21529676152032       -1.03484191451787
H            3.52154885710407        4.19727199771931       -1.80852110818286
H            5.99909168287912        4.18665730931785       -1.74407700106811
H            7.19665968520285        2.22301706953899       -0.91258477731215
H            4.09818957714670        0.77503322786641        2.28868289922931
H            2.84585239942164        1.49433322747237        4.28437148694734
H            0.36759066153360        1.45427875374427        4.24754516795351
H           -0.81768056960211        0.72530660904386        2.23416469690162
H           -1.28761214693341        2.09773534682316       -0.36675961435023
H           -1.35069776750010       -2.14938049930222        0.33244740051597
H           -5.03730296280837       -4.55748164269273        0.62354728850717
H           -7.44312426260627       -5.02511167845491        0.48980961251860
H           -9.16116774057410       -5.21320224025590       -0.95402937856521
H           -9.33808634170528       -3.85955368104795       -2.06835060604684
H          -10.75418440098352       -4.51400812591310       -1.23765721178817
H          -11.38582414715056       -2.34109827814343       -0.34640553216528
H          -10.04996629351110       -1.58010717612883       -1.20520785952037
H          -10.25509525464146       -1.32148155940364        0.53678449289710
H           -9.43876490453761       -4.83179420853538        1.55476603406105
H           -9.79281918829363       -3.21519235957237        2.16056841735672
H          -11.03013480780566       -4.12302338813287        1.28386174754136
H           -8.16479005322406       -0.86972543118251       -0.19515106501117
H           -8.12840817353698        1.04375546521552        0.29154730304332
H           -9.29849706867899        5.05829311042148       -1.41315766044770
H          -10.90840529621074        4.40385346333698       -1.11647519337774
H           -9.72027771364925        3.45913079258930       -2.02186375511232
H          -10.21567074933360        1.57087874198365       -0.40232319128012
H           -9.97165615721077        1.81070156502991        1.33733500338973
H          -11.29549888234037        2.62231075531606        0.50686444606374
H           -9.16740863249586        4.05800892394259        2.20221054627001
H          -10.57345136888252        4.76743858510866        1.40020444852636
H           -8.96184168461535        5.41211154538926        1.09341034095497
H           -7.28041988813038        5.17644338428813       -0.38564121663984
H           -4.89453878767963        4.62848759123542       -0.56994058797069
H           -0.87496251121921       -0.82806533208147       -2.26971017567637
H            0.25764743589946       -1.63254238548711       -4.28475224859564
H            2.73222783452053       -1.75674747178288       -4.35379995033329
H            4.03630241078412       -1.03334243432161       -2.39127503660313
H            7.63016059220716        1.03219572379302        1.90445970428183
H           10.06753830241677        1.09963957293449        1.95777072363471

          :  Hamiltonian                  GFN2-xTB          :
         :: gradient norm              0.000042185733 Eh/a0 ::
         :: HOMO-LUMO gap              0.207534231846 eV    ::
         :: SCC energy              -176.993094247434 Eh    ::
         :: -> dispersion             -0.171127140045 Eh    ::
         :: -> Gsolv                  -0.068947644458 Eh    ::
         :: repulsion energy           2.983646036844 Eh    ::

    * Orbital Energies and Occupations

         #    Occupation            Energy/Eh            Energy/eV
      -------------------------------------------------------------
         1        2.0000           -0.7175564             -19.5257
       ...           ...                  ...                  ...
       151        2.0000           -0.4020810             -10.9412
       152        2.0000           -0.4013643             -10.9217
       153        2.0000           -0.3994869             -10.8706
       154        2.0000           -0.3982701             -10.8375
       155        2.0000           -0.3864697             -10.5164
       156        2.0000           -0.3826482             -10.4124
       157        2.0000           -0.3736660             -10.1680
       158        2.0000           -0.3708482             -10.0913
       159        2.0000           -0.3684804             -10.0269
       160        1.8085           -0.3592210              -9.7749
       161        1.7054           -0.3586822              -9.7602
       162        1.4861           -0.3578000              -9.7362
       163        0.9823           -0.2538328              -6.9071 (HOMO)
       164        0.0177           -0.2462058              -6.6996 (LUMO)
       165        0.0000           -0.2357150              -6.4141
       166                         -0.2340019              -6.3675
       167                         -0.2331240              -6.3436
       168                         -0.2315380              -6.3005
       169                         -0.2313916              -6.2965
       170                         -0.2294457              -6.2435
       171                         -0.2241344              -6.0990
       172                         -0.2222687              -6.0482
       173                         -0.2198295              -5.9819
       174                         -0.2053010              -5.5865
       ...                                ...                  ...
       319                          0.7140805              19.4311
      -------------------------------------------------------------
                  HL-Gap            0.0076271 Eh            0.2075 eV

     #   Z          covCN         q      C6AA      α(0)
     1   6 C        3.761    -0.107    22.591     6.775
     2   6 C        3.902     0.027    20.071     6.368
     3   6 C        3.761    -0.110    22.647     6.784
     4   6 C        3.761    -0.107    22.591     6.776
     5   6 C        2.973     0.014    27.700     8.633
     6   6 C        2.925    -0.037    28.920     8.819
     7   6 C        2.920    -0.040    28.985     8.829
     8   6 C        2.928     0.057    26.715     8.476
     9   7 N        2.753    -0.045    22.113     6.984
    10   6 C        2.926     0.061    26.633     8.463
    11   6 C        2.923    -0.053    29.310     8.878
    12   6 C        2.919    -0.030    28.745     8.792
    13   6 C        2.917    -0.037    28.928     8.820
    14   6 C        2.925    -0.033    28.817     8.803
    15   6 C        2.987    -0.007    28.193     8.710
    16   6 C        3.928     0.017    20.227     6.392
    17   6 C        2.988    -0.007    28.193     8.710
    18   6 C        2.925    -0.033    28.823     8.804
    19   6 C        2.917    -0.037    28.930     8.820
    20   6 C        2.919    -0.030    28.746     8.792
    21   6 C        2.923    -0.053    29.308     8.878
    22   6 C        2.926     0.061    26.631     8.463
    23   6 C        2.988    -0.006    28.160     8.705
    24   6 C        2.925    -0.034    28.845     8.808
    25   6 C        2.917    -0.036    28.907     8.817
    26   6 C        2.919    -0.029    28.735     8.790
    27   6 C        2.923    -0.050    29.240     8.868
    28   6 C        2.927     0.062    26.602     8.458
    29   7 N        2.753    -0.036    21.936     6.956
    30   6 C        2.926     0.032    27.295     8.568
    31   6 C        2.912    -0.073    29.819     8.954
    32   6 C        2.870     0.124    25.280     8.242
    33   6 C        2.885    -0.127    31.226     9.161
    34   6 C        2.870     0.124    25.279     8.242
    35   6 C        2.912    -0.073    29.819     8.954
    36   8 O        1.711    -0.253    18.197     5.760
    37   6 C        2.871     0.129    25.166     8.223
    38   6 C        2.911    -0.065    29.618     8.924
    39   6 C        2.924    -0.049    29.218     8.864
    40   6 C        2.967     0.003    27.956     8.673
    41   6 C        3.902     0.024    20.107     6.374
    42   6 C        3.761    -0.104    22.530     6.766
    43   6 C        3.761    -0.106    22.572     6.773
    44   6 C        3.761    -0.104    22.531     6.766
    45   6 C        2.928    -0.061    29.509     8.909
    46   6 C        2.879    -0.090    30.245     9.016
    47   5 B        2.722     0.149    19.146     7.333
    48   6 C        2.879    -0.090    30.245     9.016
    49   6 C        2.928    -0.061    29.509     8.909
    50   6 C        2.967     0.003    27.957     8.673
    51   6 C        3.902     0.024    20.107     6.374
    52   6 C        3.761    -0.104    22.531     6.767
    53   6 C        3.761    -0.106    22.571     6.773
    54   6 C        3.761    -0.104    22.530     6.766
    55   6 C        2.924    -0.049    29.218     8.864
    56   6 C        2.911    -0.065    29.618     8.924
    57   6 C        2.871     0.129    25.166     8.224
    58   8 O        1.711    -0.253    18.197     5.760
    59   6 C        2.927     0.062    26.605     8.459
    60   6 C        2.923    -0.050    29.242     8.868
    61   6 C        2.919    -0.029    28.733     8.790
    62   6 C        2.917    -0.036    28.904     8.816
    63   6 C        2.925    -0.034    28.836     8.806
    64   6 C        2.987    -0.006    28.158     8.704
    65   6 C        2.919    -0.040    28.984     8.829
    66   6 C        2.928    -0.033    28.814     8.803
    67   1 H        0.925     0.035     2.517     2.481
    68   1 H        0.925     0.039     2.460     2.453
    69   1 H        0.925     0.042     2.428     2.437
    70   1 H        0.925     0.038     2.471     2.458
    71   1 H        0.925     0.038     2.471     2.458
    72   1 H        0.925     0.040     2.448     2.447
    73   1 H        0.925     0.042     2.428     2.437
    74   1 H        0.925     0.035     2.517     2.481
    75   1 H        0.925     0.039     2.460     2.453
    76   1 H        0.926     0.052     2.294     2.369
    77   1 H        0.926     0.041     2.439     2.442
    78   1 H        0.926     0.041     2.438     2.441
    79   1 H        0.926     0.040     2.450     2.448
    80   1 H        0.926     0.036     2.503     2.474
    81   1 H        0.926     0.029     2.602     2.522
    82   1 H        0.926     0.029     2.602     2.522
    83   1 H        0.926     0.036     2.504     2.475
    84   1 H        0.926     0.040     2.450     2.448
    85   1 H        0.926     0.041     2.436     2.441
    86   1 H        0.926     0.035     2.510     2.477
    87   1 H        0.926     0.040     2.446     2.446
    88   1 H        0.926     0.039     2.458     2.452
    89   1 H        0.926     0.038     2.482     2.464
    90   1 H        0.926     0.041     2.436     2.440
    91   1 H        0.926     0.041     2.436     2.441
    92   1 H        0.926     0.025     2.662     2.552
    93   1 H        0.926     0.024     2.677     2.559
    94   1 H        0.925     0.035     2.511     2.478
    95   1 H        0.925     0.032     2.563     2.503
    96   1 H        0.925     0.039     2.468     2.457
    97   1 H        0.925     0.037     2.493     2.469
    98   1 H        0.925     0.035     2.516     2.481
    99   1 H        0.925     0.037     2.489     2.467
   100   1 H        0.925     0.035     2.513     2.479
   101   1 H        0.925     0.032     2.557     2.500
   102   1 H        0.925     0.039     2.468     2.457
   103   1 H        0.926     0.038     2.482     2.464
   104   1 H        0.926     0.037     2.482     2.464
   105   1 H        0.925     0.035     2.512     2.479
   106   1 H        0.925     0.039     2.468     2.457
   107   1 H        0.925     0.032     2.556     2.500
   108   1 H        0.925     0.037     2.489     2.467
   109   1 H        0.925     0.035     2.517     2.481
   110   1 H        0.925     0.037     2.493     2.469
   111   1 H        0.925     0.032     2.563     2.503
   112   1 H        0.925     0.039     2.468     2.457
   113   1 H        0.925     0.035     2.511     2.478
   114   1 H        0.926     0.024     2.677     2.559
   115   1 H        0.926     0.025     2.662     2.551
   116   1 H        0.926     0.037     2.483     2.464
   117   1 H        0.926     0.039     2.459     2.452
   118   1 H        0.926     0.040     2.446     2.446
   119   1 H        0.926     0.035     2.511     2.478
   120   1 H        0.926     0.041     2.441     2.443
   121   1 H        0.926     0.045     2.381     2.413

molecular dipole:
                 x           y           z       tot (Debye)
 q only:        5.832       0.003       0.009
   full:        5.830       0.000       0.012      14.818

 projected vibrational frequencies (cm⁻¹)
eigval :       -0.00    -0.00    -0.00    -0.00     0.00     0.00
eigval :        5.59     6.37     7.02    17.36    19.07    24.34
eigval :       26.55    30.80    31.84    40.06    40.61    45.89
eigval :       48.54    56.54    64.86    69.44    69.68    72.04
eigval :       84.94    89.89   104.76   104.93   107.83   115.02
eigval :      121.04   127.84   137.03   148.89   152.21   172.93
eigval :      177.07   177.11   182.84   208.74   211.79   214.43
eigval :      218.30   222.11   224.92   228.76   231.90   232.82
eigval :      238.61   248.29   257.40   257.77   261.81   266.77
eigval :      273.43   273.87   287.26   296.94   316.10   317.25
eigval :      318.39   319.33   328.00   331.44   347.75   356.50
eigval :      360.35   360.71   362.34   371.91   372.28   378.90
eigval :      382.16   391.34   391.67   397.02   399.69   401.39
eigval :      403.24   412.13   418.63   428.20   430.03   432.66
eigval :      437.30   445.10   447.76   451.24   456.62   461.47
eigval :      469.02   476.82   486.01   487.14   507.15   508.29
eigval :      512.46   513.07   517.01   529.22   540.45   550.27
eigval :      557.55   573.05   592.04   593.67   594.38   596.67
eigval :      603.85   605.10   612.40   617.64   620.62   639.52
eigval :      643.91   652.21   662.77   667.35   676.07   682.71
eigval :      685.75   686.19   689.44   694.96   697.06   703.27
eigval :      709.97   718.86   748.89   766.37   769.99   773.28
eigval :      779.08   785.29   795.60   797.72   800.92   814.70
eigval :      815.15   829.26   834.79   838.00   843.63   858.69
eigval :      865.57   867.88   868.99   869.07   869.46   877.09
eigval :      882.26   882.61   883.69   893.04   895.24   897.45
eigval :      905.02   908.05   908.27   909.31   912.60   914.97
eigval :      921.04   922.83   925.05   925.10   927.31   935.33
eigval :      939.58   942.77   955.68   959.55   960.17   960.38
eigval :      961.96   962.07   963.47   963.85   964.39   964.69
eigval :     1003.22  1013.99  1030.41  1032.54  1033.04  1034.78
eigval :     1035.02  1035.43  1036.13  1069.11  1088.62  1098.07
eigval :     1100.45  1101.61  1103.00  1113.42  1121.25  1121.73
eigval :     1125.64  1127.76  1133.58  1138.80  1142.75  1157.81
eigval :     1165.01  1166.66  1178.44  1179.44  1179.63  1180.30
eigval :     1183.14  1187.80  1193.58  1199.97  1202.10  1216.67
eigval :     1218.99  1221.84  1222.24  1222.91  1224.55  1225.43
eigval :     1225.93  1226.19  1230.07  1231.29  1240.91  1242.96
eigval :     1258.03  1260.18  1264.39  1265.45  1270.91  1274.47
eigval :     1282.37  1283.82  1285.65  1295.92  1309.09  1312.95
eigval :     1317.21  1320.28  1323.03  1329.65  1329.72  1330.10
eigval :     1333.52  1335.48  1337.14  1368.12  1368.46  1389.83
eigval :     1394.99  1400.90  1401.06  1402.17  1402.91  1403.00
eigval :     1406.83  1410.55  1419.25  1421.72  1425.48  1425.87
eigval :     1426.17  1427.61  1430.59  1432.16  1448.54  1454.98
eigval :     1459.50  1466.20  1467.88  1474.02  1477.77  1484.47
eigval :     1488.11  1488.26  1488.33  1490.13  1492.68  1493.55
eigval :     1495.86  1498.45  1498.60  1499.54  1500.83  1502.63
eigval :     1502.66  1509.74  1510.53  1511.47  1513.06  1516.17
eigval :     1516.96  1522.16  1528.56  1550.19  1551.64  1556.01
eigval :     1559.18  1566.32  1567.47  1573.65  1576.69  1582.62
eigval :     1586.73  1597.35  3016.81  3017.04  3017.78  3018.11
eigval :     3022.56  3022.59  3023.00  3023.25  3023.33  3023.42
eigval :     3026.00  3026.33  3026.87  3027.40  3031.20  3031.27
eigval :     3032.12  3032.74  3036.77  3037.96  3038.11  3043.53
eigval :     3043.80  3045.63  3046.65  3046.76  3048.94  3070.26
eigval :     3071.29  3079.87  3080.81  3081.04  3081.64  3082.25
eigval :     3082.73  3083.64  3083.70  3084.12  3084.75  3086.72
eigval :     3087.52  3092.76  3094.04  3095.51  3096.17  3097.12
eigval :     3097.53  3098.48  3104.73  3105.79  3106.10  3106.59
eigval :     3120.05  3140.03  3147.88

   temp. (K)  partition function   enthalpy   heat capacity  entropy
                                   cal/mol     cal/K/mol   cal/K/mol   J/K/mol
 298.15  VIB  0.885E+28            35310.434    219.718    220.114
         ROT  0.239E+09              888.752      2.981     41.317
         INT  0.211E+37            36199.186    222.699    261.431
         TR   0.244E+29             1481.254      4.968     46.107
         TOT                       37680.4404   227.6671   307.5385  1286.7411

       T/K    H(0)-H(T)+PV         H(T)/Eh          T*S/Eh         G(T)/Eh
   ------------------------------------------------------------------------
    298.15    0.600476E-01    0.103201E+01    0.146121E+00    0.885885E+00
   ------------------------------------------------------------------------

         :::::::::::::::::::::::::::::::::::::::::::::::::::::
         ::                  THERMODYNAMIC                  ::
         :::::::::::::::::::::::::::::::::::::::::::::::::::::
         :: total free energy        -173.123563162722 Eh   ::
         ::.................................................::
         :: total energy             -174.009448208043 Eh   ::
         :: zero point energy           0.971958907549 Eh   ::
         :: G(RRHO) w/o ZPVE           -0.086073862228 Eh   ::
         :: G(RRHO) contrib.            0.885885045321 Eh   ::
         :::::::::::::::::::::::::::::::::::::::::::::::::::::

           -------------------------------------------------
          | TOTAL ENERGY             -174.009448208043 Eh   |
          | TOTAL ENTHALPY           -172.977441696522 Eh   |
          | TOTAL FREE ENERGY        -173.123563162722 Eh   |
          | GRADIENT NORM               0.000041851448 Eh/α |
          | HOMO-LUMO GAP               0.207543329199 eV   |
           -------------------------------------------------

 * finished run on 2025/08/23 at 00:39:36.674
