   * xtb version 6.7.1 (edcfbbe) compiled by 'albert@albert-system' on 2024-07-22

   ID    Z sym.   atoms
    1    6 C      1-9, 11-21, 24-30, 32-37
    2    7 N      10, 23
    3    8 O      22, 31
    4    1 H      38-61

          program call               : xtb data2507/toluene/6AcBIQ/6AcBIQ_toluene_S0_crest.xyz --gfn 2 --gbsa toluene --ohess vtight --parallel 40 --molden --ceasefiles --namespace data2507/toluene/6AcBIQ/6AcBIQ_toluene_S0_finalOpt
      * Solvation model:               GBSA
        Solvent                        toluene
        Solvent mass                       9.2140E+01 g/mol
          :  Hamiltonian                  GFN2-xTB          :
 * total energy  :   -97.0001025 Eh     change       -0.1698751E-08 Eh
 * total energy  :   -97.0001964 Eh     change       -0.9388285E-04 Eh
 * total energy  :   -97.0002245 Eh     change       -0.2817911E-04 Eh
 * total energy  :   -97.0002323 Eh     change       -0.7719083E-05 Eh
 * total energy  :   -97.0002412 Eh     change       -0.8944772E-05 Eh
 * total energy  :   -97.0002511 Eh     change       -0.9894550E-05 Eh
 * total energy  :   -97.0002592 Eh     change       -0.8144753E-05 Eh
 * total energy  :   -97.0002651 Eh     change       -0.5851271E-05 Eh
 * total energy  :   -97.0002701 Eh     change       -0.5007892E-05 Eh
 * total energy  :   -97.0002755 Eh     change       -0.5430532E-05 Eh
 * total energy  :   -97.0003245 Eh     change       -0.3019217E-06 Eh
 * total energy  :   -97.0003247 Eh     change       -0.1754023E-06 Eh
 * total energy  :   -97.0003249 Eh     change       -0.2732481E-06 Eh
 * total energy  :   -97.0003251 Eh     change       -0.2049990E-06 Eh
 * total energy  :   -97.0003253 Eh     change       -0.1705108E-06 Eh
 * total energy  :   -97.0003254 Eh     change       -0.1088493E-06 Eh
 * total energy  :   -97.0003255 Eh     change       -0.1037760E-06 Eh
 * total energy  :   -97.0003256 Eh     change       -0.1086849E-06 Eh
 * total energy  :   -97.0003257 Eh     change       -0.7292853E-07 Eh
   *** GEOMETRY OPTIMIZATION CONVERGED AFTER 34 ITERATIONS ***

 final structure:
================
61
 xtb: 6.7.1 (edcfbbe)
C           -6.31398590458447       -0.20591000390560        1.24158080824613
C           -5.33891069254521        0.03662475258820        0.07400015168903
C           -6.11794652123441        0.40758818989494       -1.20204449673417
C           -4.56260595027335       -1.24030639141074       -0.18624941562277
C           -5.24941393744789       -2.39382378804451       -0.54361871541977
C           -4.59817497822313       -3.57980486506667       -0.82680278163613
C           -3.21620142586233       -3.62067546197074       -0.77575739106308
C           -2.50946835156380       -2.48973400901406       -0.42394428063672
C           -3.16818032057601       -1.29975205292671       -0.10082799340778
N           -2.42613671202612       -0.17584115856550        0.25010300386781
C           -1.02631966669281       -0.29199332948132        0.39445250767707
C           -0.50070858440295       -0.98961905962310        1.46357694338318
C            0.87611302893327       -1.09749287006490        1.63839475819100
C            1.74655250637677       -0.51645328301016        0.73454057517718
C            1.23971243377341        0.18291474137768       -0.38122432927474
C            2.11436781570055        0.76334032338208       -1.32445053954599
C            1.60859758751379        1.42808267629941       -2.42462363819563
C            0.22917059818532        1.52772564083843       -2.61617252138242
C           -0.64016795557485        0.98099409369171       -1.70671951687971
C           -0.16164285508042        0.30375506524692       -0.56640234508825
C            3.56850492043249        0.65627989474683       -1.14489089495565
O            4.37588418263594        1.12298199367177       -1.92813913748053
N            3.99726036821656       -0.02659283667521       -0.01610314394169
C            5.41881675979472       -0.12556234387784        0.17701157053996
C            6.06089708838584       -1.33040041784095       -0.05838475504439
C            7.42893489824521       -1.42000451426063        0.13163969818567
C            8.14790628322045       -0.31164704260859        0.54656809123784
C            7.49914051701251        0.88983418809603        0.77723037610769
C            6.13051508861935        0.98689206521340        0.59603086069199
C            3.19385662425564       -0.62944796034705        0.94248877881393
O            3.69288064172771       -1.20423897721168        1.89352531174872
C           -3.03628841418361        1.04326686990468        0.53392311096553
C           -2.25692077720660        2.12612763502558        0.95180327087330
C           -2.82999723900583        3.34989342468491        1.22733067134542
C           -4.19853482839790        3.51186549229770        1.10400916359593
C           -4.97473455364801        2.43231022788626        0.72624796748772
C           -4.42369324223834        1.18893153514218        0.44209070446394
H           -6.90397999476532        0.68296231567576        1.44593530354730
H           -5.75886135184122       -0.46405961271100        2.14190894789900
H           -6.99519820391522       -1.02077027850548        1.01357829739821
H           -5.42615996113974        0.57695608804655       -2.02535984002952
H           -6.79882733855207       -0.38964418838434       -1.48612553879657
H           -6.69903550883857        1.31282933833395       -1.05069209611316
H           -6.32648493910136       -2.37076453339259       -0.60675700616598
H           -5.16401913101082       -4.45863971191439       -1.09655138635512
H           -2.68401319088660       -4.52946451058388       -1.01511416761008
H           -1.43113948799321       -2.52687974068622       -0.40510108584482
H           -1.17090664177968       -1.44588475215913        2.17671312532189
H            1.28533078750088       -1.62498635631988        2.48686550241373
H            2.30201363350329        1.86144359303610       -3.12990920073384
H           -0.14930978022960        2.03949326575005       -3.48732147207974
H           -1.70577233070244        1.06289544027294       -1.85679567197961
H            5.48970085239363       -2.18820554605435       -0.38191439116219
H            7.93192634371421       -2.35813177862346       -0.04864595637562
H            9.21534681502849       -0.38427405674342        0.69080404310489
H            8.05706715184647        1.75569135163829        1.10057651477310
H            5.61352145603982        1.91882880883546        0.77249339015609
H           -1.19096371422981        2.00678293008181        1.06920676795014
H           -2.20526749725069        4.17197721566030        1.54386036825361
H           -4.65964894016035        4.46525928519734        1.31304789832760
H           -6.04304106919173        2.56686237456616        0.65419556702349

          :  Hamiltonian                  GFN2-xTB          :
         :: gradient norm              0.000052485290 Eh/a0 ::
         :: HOMO-LUMO gap              0.916275409316 eV    ::
         :: SCC energy               -98.662301618098 Eh    ::
         :: -> dispersion             -0.086212072117 Eh    ::
         :: -> Gsolv                  -0.042293667638 Eh    ::
         :: repulsion energy           1.661975916589 Eh    ::

    * Orbital Energies and Occupations

         #    Occupation            Energy/Eh            Energy/eV
      -------------------------------------------------------------
         1        2.0000           -0.7264619             -19.7680
       ...           ...                  ...                  ...
        77        2.0000           -0.4305714             -11.7164
        78        2.0000           -0.4276274             -11.6363
        79        2.0000           -0.4204633             -11.4414
        80        2.0000           -0.4203543             -11.4384
        81        2.0000           -0.4167366             -11.3400
        82        2.0000           -0.4156332             -11.3100
        83        2.0000           -0.4125064             -11.2249
        84        2.0000           -0.4112527             -11.1908
        85        2.0000           -0.4102254             -11.1628
        86        2.0000           -0.4081204             -11.1055
        87        2.0000           -0.4024852             -10.9522
        88        2.0000           -0.3971208             -10.8062
        89        2.0000           -0.3545727              -9.6484 (HOMO)
        90                         -0.3209002              -8.7321 (LUMO)
        91                         -0.2613559              -7.1119
        92                         -0.2593907              -7.0584
        93                         -0.2387511              -6.4967
        94                         -0.2352495              -6.4015
        95                         -0.2349376              -6.3930
        96                         -0.2296123              -6.2481
        97                         -0.2240142              -6.0957
        98                         -0.2232059              -6.0737
        99                         -0.1968250              -5.3559
       100                         -0.1720390              -4.6814
       ...                                ...                  ...
       172                          0.7122076              19.3802
      -------------------------------------------------------------
                  HL-Gap            0.0336725 Eh            0.9163 eV

     #   Z          covCN         q      C6AA      α(0)
     1   6 C        3.761    -0.105    22.551     6.770
     2   6 C        3.909     0.022    20.152     6.381
     3   6 C        3.761    -0.105    22.553     6.770
     4   6 C        2.979    -0.011    28.275     8.722
     5   6 C        2.928    -0.036    28.891     8.815
     6   6 C        2.917    -0.043    29.068     8.841
     7   6 C        2.919    -0.033    28.822     8.804
     8   6 C        2.924    -0.058    29.446     8.899
     9   6 C        2.927     0.056    26.752     8.482
    10   7 N        2.753    -0.062    22.431     7.034
    11   6 C        2.924     0.077    26.291     8.409
    12   6 C        2.917    -0.036    28.894     8.815
    13   6 C        2.920    -0.010    28.273     8.720
    14   6 C        2.975    -0.033    28.814     8.805
    15   6 C        2.993     0.010    27.786     8.647
    16   6 C        2.976    -0.028    28.689     8.786
    17   6 C        2.922    -0.007    28.202     8.709
    18   6 C        2.914    -0.021    28.539     8.760
    19   6 C        2.917    -0.016    28.401     8.739
    20   6 C        2.984     0.010    27.789     8.647
    21   6 C        2.775     0.277    22.318     7.737
    22   8 O        0.859    -0.438    22.458     6.354
    23   7 N        2.746    -0.116    23.525     7.204
    24   6 C        2.937     0.085    26.097     8.378
    25   6 C        2.921    -0.030    28.742     8.792
    26   6 C        2.922    -0.025    28.637     8.776
    27   6 C        2.920    -0.027    28.682     8.782
    28   6 C        2.922    -0.025    28.638     8.776
    29   6 C        2.921    -0.030    28.749     8.793
    30   6 C        2.775     0.277    22.318     7.737
    31   8 O        0.859    -0.440    22.489     6.358
    32   6 C        2.927     0.056    26.747     8.481
    33   6 C        2.924    -0.058    29.441     8.898
    34   6 C        2.919    -0.033    28.824     8.804
    35   6 C        2.917    -0.043    29.069     8.841
    36   6 C        2.928    -0.036    28.891     8.815
    37   6 C        2.979    -0.011    28.282     8.723
    38   1 H        0.925     0.044     2.399     2.422
    39   1 H        0.925     0.032     2.564     2.504
    40   1 H        0.925     0.044     2.397     2.421
    41   1 H        0.925     0.032     2.560     2.502
    42   1 H        0.925     0.044     2.398     2.422
    43   1 H        0.925     0.044     2.394     2.420
    44   1 H        0.926     0.038     2.480     2.462
    45   1 H        0.926     0.030     2.586     2.515
    46   1 H        0.926     0.030     2.588     2.516
    47   1 H        0.926     0.024     2.673     2.557
    48   1 H        0.926     0.065     2.144     2.290
    49   1 H        0.926     0.070     2.085     2.258
    50   1 H        0.926     0.068     2.104     2.268
    51   1 H        0.926     0.065     2.142     2.289
    52   1 H        0.926     0.064     2.154     2.295
    53   1 H        0.926     0.040     2.455     2.450
    54   1 H        0.926     0.051     2.305     2.374
    55   1 H        0.926     0.052     2.289     2.366
    56   1 H        0.926     0.051     2.305     2.374
    57   1 H        0.926     0.039     2.456     2.451
    58   1 H        0.926     0.022     2.696     2.568
    59   1 H        0.926     0.029     2.594     2.519
    60   1 H        0.926     0.030     2.583     2.513
    61   1 H        0.926     0.038     2.476     2.461

molecular dipole:
                 x           y           z       tot (Debye)
 q only:       -2.346       0.214      -0.336
   full:       -2.377       0.200      -0.315       6.116

 projected vibrational frequencies (cm⁻¹)
eigval :       -0.00    -0.00    -0.00     0.00     0.00     0.00
eigval :       12.81    18.02    21.78    30.77    44.79    47.08
eigval :       62.04    65.05    97.70   100.69   122.54   124.69
eigval :      129.57   136.71   169.02   179.34   187.80   189.39
eigval :      217.93   231.93   236.62   249.90   289.34   299.72
eigval :      318.00   324.54   331.07   344.15   349.26   376.30
eigval :      377.23   386.85   400.66   409.43   416.80   419.81
eigval :      449.30   457.94   472.03   489.99   497.70   511.08
eigval :      513.94   526.07   540.02   546.63   562.44   569.35
eigval :      587.21   590.17   610.07   632.95   639.72   643.12
eigval :      661.64   683.43   685.14   686.99   695.26   710.15
eigval :      733.87   747.00   762.26   777.59   778.76   781.19
eigval :      805.33   824.49   834.34   845.11   854.31   866.77
eigval :      871.88   873.80   902.91   908.74   914.38   914.53
eigval :      917.32   920.60   924.68   925.86   927.40   930.21
eigval :      932.49   933.72   938.87   958.04   987.01  1013.66
eigval :     1030.70  1072.83  1075.51  1078.31  1104.71  1112.91
eigval :     1114.94  1118.13  1128.34  1139.33  1139.55  1157.84
eigval :     1169.13  1177.80  1180.88  1183.34  1187.19  1187.85
eigval :     1191.06  1202.12  1225.35  1235.49  1241.62  1247.65
eigval :     1250.24  1266.31  1275.14  1292.51  1293.03  1302.38
eigval :     1317.57  1317.74  1327.44  1330.73  1336.10  1359.52
eigval :     1388.22  1401.09  1408.05  1420.01  1433.72  1434.43
eigval :     1435.90  1443.98  1467.53  1473.56  1484.87  1486.68
eigval :     1489.89  1495.82  1501.51  1501.58  1540.72  1563.79
eigval :     1573.83  1586.19  1588.48  1589.97  1592.43  1593.85
eigval :     1598.55  1652.53  1673.88  3022.45  3025.16  3041.47
eigval :     3043.27  3049.96  3053.76  3076.19  3076.85  3079.70
eigval :     3080.78  3082.65  3083.53  3086.09  3092.00  3092.03
eigval :     3092.26  3092.96  3093.45  3097.38  3099.11  3099.88
eigval :     3100.18  3101.07  3106.52

   temp. (K)  partition function   enthalpy   heat capacity  entropy
                                   cal/mol     cal/K/mol   cal/K/mol   J/K/mol
 298.15  VIB  0.502E+13            17093.184    109.586    104.765
         ROT  0.325E+08              888.752      2.981     37.354
         INT  0.163E+21            17981.937    112.566    142.118
         TR   0.102E+29             1481.254      4.968     44.377
         TOT                       19463.1906   117.5346   186.4952   780.2961

       T/K    H(0)-H(T)+PV         H(T)/Eh          T*S/Eh         G(T)/Eh
   ------------------------------------------------------------------------
    298.15    0.310166E-01    0.500433E+00    0.886099E-01    0.411823E+00
   ------------------------------------------------------------------------

         :::::::::::::::::::::::::::::::::::::::::::::::::::::
         ::                  THERMODYNAMIC                  ::
         :::::::::::::::::::::::::::::::::::::::::::::::::::::
         :: total free energy         -96.588502822726 Eh   ::
         ::.................................................::
         :: total energy              -97.000325703306 Eh   ::
         :: zero point energy           0.469416217293 Eh   ::
         :: G(RRHO) w/o ZPVE           -0.057593336712 Eh   ::
         :: G(RRHO) contrib.            0.411822880581 Eh   ::
         :::::::::::::::::::::::::::::::::::::::::::::::::::::

           -------------------------------------------------
          | TOTAL ENERGY              -97.000325703306 Eh   |
          | TOTAL ENTHALPY            -96.499892917549 Eh   |
          | TOTAL FREE ENERGY         -96.588502822726 Eh   |
          | GRADIENT NORM               0.000052479483 Eh/α |
          | HOMO-LUMO GAP               0.916275591616 eV   |
           -------------------------------------------------

 * finished run on 2025/08/24 at 03:39:08.235
