   * xtb version 6.7.1 (edcfbbe) compiled by 'albert@albert-system' on 2024-07-22

   ID    Z sym.   atoms
    1    6 C      1-9, 11-21, 24-30, 32-37
    2    7 N      10, 23
    3    8 O      22, 31
    4    1 H      38-61

          program call               : xtb data2507/toluene/6AcBIQ/6AcBIQ.xyz --gfn 2 --gbsa toluene --ohess vtight --parallel 40 --molden --ceasefiles --namespace data2507/toluene/6AcBIQ/6AcBIQ_toluene_S0_preOpt
      * Solvation model:               GBSA
        Solvent                        toluene
        Solvent mass                       9.2140E+01 g/mol
          :  Hamiltonian                  GFN2-xTB          :
 * total energy  :   -96.9727633 Eh     change       -0.2357865E-08 Eh
 * total energy  :   -96.9883402 Eh     change       -0.1557698E-01 Eh
 * total energy  :   -96.9931339 Eh     change       -0.4793679E-02 Eh
 * total energy  :   -96.9946687 Eh     change       -0.1534810E-02 Eh
 * total energy  :   -96.9962514 Eh     change       -0.1582690E-02 Eh
 * total energy  :   -96.9970814 Eh     change       -0.8299709E-03 Eh
 * total energy  :   -96.9975433 Eh     change       -0.4618957E-03 Eh
 * total energy  :   -96.9978858 Eh     change       -0.3425115E-03 Eh
 * total energy  :   -96.9981780 Eh     change       -0.2922521E-03 Eh
 * total energy  :   -96.9984630 Eh     change       -0.2849623E-03 Eh
 * total energy  :   -97.0003022 Eh     change       -0.4310914E-05 Eh
 * total energy  :   -97.0003063 Eh     change       -0.4173679E-05 Eh
 * total energy  :   -97.0003102 Eh     change       -0.3842056E-05 Eh
 * total energy  :   -97.0003129 Eh     change       -0.2725739E-05 Eh
 * total energy  :   -97.0003142 Eh     change       -0.1342110E-05 Eh
 * total energy  :   -97.0003151 Eh     change       -0.8572185E-06 Eh
 * total energy  :   -97.0003157 Eh     change       -0.5690417E-06 Eh
 * total energy  :   -97.0003160 Eh     change       -0.2876871E-06 Eh
 * total energy  :   -97.0003160 Eh     change       -0.7797468E-08 Eh
   *** GEOMETRY OPTIMIZATION CONVERGED AFTER 44 ITERATIONS ***

 final structure:
================
61
 xtb: 6.7.1 (edcfbbe)
C           -5.80396067380529       -0.25770266883719        1.24545337952521
C           -4.81607420378388        0.02097604551066        0.09670756844341
C           -5.58278164514467        0.25429645825623       -1.21872997526423
C           -3.91479312028366       -1.18821216975134       -0.06449718079790
C           -4.47984405063932       -2.42666095765311       -0.34367857122906
C           -3.71813845534529       -3.57465725084415       -0.45404452012311
C           -2.35110701416400       -3.49991967048237       -0.25417899724259
C           -1.76426665535806       -2.28292443309204        0.02191419413790
C           -2.52730442638068       -1.11316394406658        0.08884941976224
N           -1.90097433612110        0.10464849807939        0.34500151713809
C           -0.49933885309225        0.13250533961414        0.50438424287625
C            0.04776080695564        0.33635796866458        1.75595447441436
C            1.42697037222647        0.34222214352608        1.94086772250255
C            2.28022753705751        0.14818384039078        0.86984821519444
C            1.75263151987634       -0.04118791219135       -0.42506858355415
C            2.60991449856482       -0.22315207023464       -1.53137374732789
C            2.08500366175595       -0.38361215534617       -2.79896895671558
C            0.70369161998193       -0.35570010710604       -2.99898669538070
C           -0.14921660550580       -0.19212099366226       -1.93703566642720
C            0.34810901438053       -0.04433231805330       -0.62603760787680
C            4.06636710534323       -0.24124653435982       -1.34025580745259
O            4.85975515754122       -0.41213155680653       -2.24846816834222
N            4.51474423712170       -0.05246880118447       -0.04186653879854
C            5.93936260311828       -0.05482612024119        0.15710289183272
C            6.55474014105239       -1.17603285985841        0.68920089063917
C            7.92496913574881       -1.17115042875552        0.88446043360930
C            8.67185344927192       -0.05540410778172        0.54564712820608
C            8.04960642690465        1.06017868312563        0.01099546765510
C            6.67928695674700        1.06584903868495       -0.18321818164070
C            3.73024198014406        0.14839144293241        1.08564920245054
O            4.24853689476565        0.31818094880579        2.17509568019210
C           -2.63103561496044        1.27758333041770        0.51870501146123
C           -1.96081422746104        2.48484952561777        0.73767196851729
C           -2.65624186018125        3.66249719708086        0.91585405989267
C           -4.03866953874601        3.65990084923462        0.86190078723796
C           -4.70144357379080        2.47464788477124        0.60430887103011
C           -4.02613442279628        1.27429457903397        0.42215757799391
H           -6.47004295272653        0.58688303734915        1.39677640918639
H           -5.25838037832487       -0.43457191017249        2.17081502458758
H           -6.41006592523382       -1.13353140127461        1.03231333344754
H           -4.88448689102872        0.47746250916517       -2.02348864752751
H           -6.15424444510580       -0.62734817888948       -1.49482622815048
H           -6.27126908210148        1.08895280091884       -1.12230338821170
H           -5.54803705989353       -2.50316845055864       -0.47650815516463
H           -4.18968735404564       -4.51964669677766       -0.67745053102533
H           -1.73853150500606       -4.38778065354334       -0.30641157726437
H           -0.69983507424653       -2.24035953194229        0.19332574571935
H           -0.60833304177926        0.48080218564029        2.60123307781945
H            1.85191235573170        0.48353039556790        2.92320755361093
H            2.76556421463539       -0.52308036901957       -3.62562966090149
H            0.31026256205096       -0.46523403119329       -3.99758029043131
H           -1.21634586149242       -0.17366843025409       -2.09656280061960
H            5.96128447360016       -2.04029638549957        0.94976017743708
H            8.40731625039507       -2.04276786837127        1.30071023772952
H            9.74065058765719       -0.05513675548806        0.69782059015586
H            8.62949849216069        1.93135611760331       -0.25429114546483
H            6.18235924960375        1.93037650508886       -0.59881138100710
H           -0.88217501626983        2.50303498093075        0.76163175203529
H           -2.11475741848673        4.58055170016217        1.08992155111820
H           -4.59573166555515        4.57355437188119        1.00411041088002
H           -5.77855635553816        2.49112734522797        0.54091343549927

          :  Hamiltonian                  GFN2-xTB          :
         :: gradient norm              0.000068205744 Eh/a0 ::
         :: HOMO-LUMO gap              0.938737122667 eV    ::
         :: SCC energy               -98.662263867896 Eh    ::
         :: -> dispersion             -0.086241281323 Eh    ::
         :: -> Gsolv                  -0.042425825654 Eh    ::
         :: repulsion energy           1.661947903455 Eh    ::

    * Orbital Energies and Occupations

         #    Occupation            Energy/Eh            Energy/eV
      -------------------------------------------------------------
         1        2.0000           -0.7260275             -19.7562
       ...           ...                  ...                  ...
        77        2.0000           -0.4307459             -11.7212
        78        2.0000           -0.4269874             -11.6189
        79        2.0000           -0.4202603             -11.4359
        80        2.0000           -0.4201200             -11.4320
        81        2.0000           -0.4167241             -11.3396
        82        2.0000           -0.4159456             -11.3185
        83        2.0000           -0.4130230             -11.2389
        84        2.0000           -0.4114915             -11.1973
        85        2.0000           -0.4102221             -11.1627
        86        2.0000           -0.4081733             -11.1070
        87        2.0000           -0.4026661             -10.9571
        88        2.0000           -0.3972848             -10.8107
        89        2.0000           -0.3550082              -9.6603 (HOMO)
        90                         -0.3205103              -8.7215 (LUMO)
        91                         -0.2606222              -7.0919
        92                         -0.2589953              -7.0476
        93                         -0.2384593              -6.4888
        94                         -0.2357193              -6.4142
        95                         -0.2350474              -6.3960
        96                         -0.2299216              -6.2565
        97                         -0.2242564              -6.1023
        98                         -0.2234058              -6.0792
        99                         -0.1972157              -5.3665
       100                         -0.1716417              -4.6706
       ...                                ...                  ...
       172                          0.7124608              19.3870
      -------------------------------------------------------------
                  HL-Gap            0.0344980 Eh            0.9387 eV

     #   Z          covCN         q      C6AA      α(0)
     1   6 C        3.761    -0.105    22.555     6.770
     2   6 C        3.909     0.022    20.151     6.380
     3   6 C        3.761    -0.105    22.552     6.770
     4   6 C        2.979    -0.011    28.275     8.722
     5   6 C        2.928    -0.036    28.890     8.815
     6   6 C        2.917    -0.043    29.062     8.840
     7   6 C        2.919    -0.033    28.822     8.804
     8   6 C        2.924    -0.058    29.432     8.897
     9   6 C        2.927     0.056    26.749     8.482
    10   7 N        2.753    -0.060    22.406     7.030
    11   6 C        2.923     0.076    26.301     8.410
    12   6 C        2.917    -0.036    28.905     8.816
    13   6 C        2.920    -0.010    28.278     8.720
    14   6 C        2.975    -0.033    28.825     8.807
    15   6 C        2.993     0.010    27.788     8.647
    16   6 C        2.976    -0.028    28.694     8.787
    17   6 C        2.922    -0.007    28.206     8.709
    18   6 C        2.914    -0.022    28.543     8.761
    19   6 C        2.917    -0.016    28.407     8.740
    20   6 C        2.983     0.010    27.793     8.648
    21   6 C        2.775     0.277    22.318     7.737
    22   8 O        0.859    -0.439    22.480     6.357
    23   7 N        2.746    -0.116    23.535     7.205
    24   6 C        2.937     0.086    26.085     8.376
    25   6 C        2.921    -0.030    28.748     8.793
    26   6 C        2.922    -0.025    28.634     8.775
    27   6 C        2.920    -0.027    28.680     8.782
    28   6 C        2.922    -0.025    28.635     8.775
    29   6 C        2.921    -0.030    28.748     8.793
    30   6 C        2.775     0.277    22.319     7.738
    31   8 O        0.859    -0.441    22.515     6.362
    32   6 C        2.926     0.056    26.755     8.483
    33   6 C        2.924    -0.058    29.444     8.898
    34   6 C        2.919    -0.033    28.821     8.804
    35   6 C        2.917    -0.043    29.062     8.840
    36   6 C        2.928    -0.036    28.890     8.815
    37   6 C        2.979    -0.010    28.269     8.721
    38   1 H        0.925     0.044     2.395     2.420
    39   1 H        0.925     0.032     2.562     2.503
    40   1 H        0.925     0.044     2.396     2.420
    41   1 H        0.925     0.032     2.559     2.502
    42   1 H        0.925     0.044     2.392     2.419
    43   1 H        0.925     0.044     2.396     2.421
    44   1 H        0.926     0.038     2.472     2.458
    45   1 H        0.926     0.031     2.578     2.511
    46   1 H        0.926     0.030     2.591     2.517
    47   1 H        0.926     0.023     2.693     2.566
    48   1 H        0.926     0.065     2.146     2.291
    49   1 H        0.926     0.070     2.090     2.261
    50   1 H        0.926     0.068     2.108     2.270
    51   1 H        0.926     0.065     2.145     2.290
    52   1 H        0.926     0.064     2.158     2.297
    53   1 H        0.926     0.039     2.458     2.452
    54   1 H        0.926     0.051     2.303     2.373
    55   1 H        0.926     0.053     2.287     2.365
    56   1 H        0.926     0.051     2.303     2.373
    57   1 H        0.926     0.039     2.460     2.453
    58   1 H        0.926     0.025     2.662     2.551
    59   1 H        0.926     0.030     2.584     2.514
    60   1 H        0.926     0.030     2.582     2.513
    61   1 H        0.926     0.038     2.475     2.460

molecular dipole:
                 x           y           z       tot (Debye)
 q only:       -2.411       0.004      -0.368
   full:       -2.441       0.009      -0.342       6.265

 projected vibrational frequencies (cm⁻¹)
eigval :       -0.00     0.00     0.00     0.00     0.00     0.00
eigval :      -15.43    18.01    20.69    26.37    44.56    49.13
eigval :       61.99    65.17    99.60   108.90   121.45   128.75
eigval :      132.15   139.41   169.85   179.84   189.02   200.30
eigval :      217.03   234.41   235.99   249.45   289.20   299.45
eigval :      317.44   324.97   331.12   345.28   349.69   375.25
eigval :      377.48   387.30   400.03   409.80   416.49   420.08
eigval :      450.39   456.82   473.30   489.01   496.65   512.08
eigval :      514.93   526.16   540.04   547.82   562.44   569.29
eigval :      587.31   589.66   609.93   632.44   639.72   642.78
eigval :      660.31   684.12   684.63   686.58   695.82   708.46
eigval :      732.73   744.21   760.33   776.78   777.50   779.18
eigval :      804.97   824.50   834.50   848.19   854.60   869.41
eigval :      870.18   871.68   898.70   910.23   913.27   914.99
eigval :      916.17   920.87   923.85   924.14   924.19   927.76
eigval :      929.58   933.52   939.08   957.13   986.74  1013.08
eigval :     1030.72  1072.75  1075.25  1078.66  1105.81  1113.09
eigval :     1114.61  1117.71  1128.93  1140.06  1140.34  1157.62
eigval :     1169.44  1176.61  1181.46  1184.36  1186.76  1188.14
eigval :     1191.54  1201.61  1226.39  1236.25  1242.02  1247.02
eigval :     1250.76  1266.67  1275.14  1292.44  1293.68  1302.12
eigval :     1316.62  1317.36  1327.03  1330.90  1335.77  1360.09
eigval :     1388.08  1400.82  1407.63  1419.50  1433.18  1434.37
eigval :     1435.29  1443.31  1468.19  1473.49  1485.88  1486.62
eigval :     1489.70  1495.99  1501.51  1502.60  1540.41  1562.84
eigval :     1573.93  1585.93  1588.55  1589.84  1592.55  1594.14
eigval :     1598.42  1651.99  1673.22  3023.43  3026.12  3041.13
eigval :     3043.27  3049.88  3053.89  3076.13  3076.57  3078.92
eigval :     3079.37  3083.29  3083.48  3085.59  3090.90  3092.52
eigval :     3093.15  3093.73  3094.11  3098.92  3099.50  3099.73
eigval :     3100.58  3101.52  3106.96

   temp. (K)  partition function   enthalpy   heat capacity  entropy
                                   cal/mol     cal/K/mol   cal/K/mol   J/K/mol
 298.15  VIB  0.418E+13            17062.646    109.594    104.283
         ROT  0.325E+08              888.752      2.981     37.353
         INT  0.136E+21            17951.398    112.575    141.636
         TR   0.102E+29             1481.254      4.968     44.377
         TOT                       19432.6521   117.5427   186.0135   778.2803

       T/K    H(0)-H(T)+PV         H(T)/Eh          T*S/Eh         G(T)/Eh
   ------------------------------------------------------------------------
    298.15    0.309679E-01    0.500408E+00    0.883810E-01    0.412027E+00
   ------------------------------------------------------------------------

         :::::::::::::::::::::::::::::::::::::::::::::::::::::
         ::                  THERMODYNAMIC                  ::
         :::::::::::::::::::::::::::::::::::::::::::::::::::::
         :: total free energy         -96.588289302933 Eh   ::
         ::.................................................::
         :: total energy              -97.000315966105 Eh   ::
         :: zero point energy           0.469439761487 Eh   ::
         :: G(RRHO) w/o ZPVE           -0.057413098314 Eh   ::
         :: G(RRHO) contrib.            0.412026663172 Eh   ::
         :::::::::::::::::::::::::::::::::::::::::::::::::::::

           -------------------------------------------------
          | TOTAL ENERGY              -97.000315966105 Eh   |
          | TOTAL ENTHALPY            -96.499908302306 Eh   |
          | TOTAL FREE ENERGY         -96.588289302933 Eh   |
          | GRADIENT NORM               0.000068166055 Eh/α |
          | HOMO-LUMO GAP               0.938737036517 eV   |
           -------------------------------------------------

 * finished run on 2025/08/24 at 03:36:39.376
