   * xtb version 6.7.1 (edcfbbe) compiled by 'albert@albert-system' on 2024-07-22

   ID    Z sym.   atoms
    1    6 C      1-9, 11-21, 24-30, 32-37
    2    7 N      10, 23
    3    8 O      22, 31
    4    1 H      38-61

          program call               : xtb data2507/toluene/6AcBIQ/6AcBIQ_toluene_T1_crest.xyz --gfn 2 --uhf 2 --gbsa toluene --ohess vtight --parallel 40 --molden --ceasefiles --namespace data2507/toluene/6AcBIQ/6AcBIQ_toluene_T1_finalOpt
      * Solvation model:               GBSA
        Solvent                        toluene
        Solvent mass                       9.2140E+01 g/mol
          :  Hamiltonian                  GFN2-xTB          :
 * total energy  :   -96.9404754 Eh     change       -0.3454787E-08 Eh
 * total energy  :   -96.9407165 Eh     change       -0.2411079E-03 Eh
 * total energy  :   -96.9407838 Eh     change       -0.6728777E-04 Eh
 * total energy  :   -96.9407941 Eh     change       -0.1034817E-04 Eh
 * total energy  :   -96.9408055 Eh     change       -0.1139293E-04 Eh
 * total energy  :   -96.9408122 Eh     change       -0.6701177E-05 Eh
 * total energy  :   -96.9408220 Eh     change       -0.9728679E-05 Eh
 * total energy  :   -96.9408295 Eh     change       -0.7534799E-05 Eh
 * total energy  :   -96.9408369 Eh     change       -0.7378843E-05 Eh
 * total energy  :   -96.9408470 Eh     change       -0.1010375E-04 Eh
 * total energy  :   -96.9409043 Eh     change       -0.6220175E-06 Eh
 * total energy  :   -96.9409046 Eh     change       -0.2820800E-06 Eh
 * total energy  :   -96.9409050 Eh     change       -0.3731945E-06 Eh
 * total energy  :   -96.9409054 Eh     change       -0.4167666E-06 Eh
 * total energy  :   -96.9409057 Eh     change       -0.3212514E-06 Eh
 * total energy  :   -96.9409060 Eh     change       -0.2975754E-06 Eh
 * total energy  :   -96.9409063 Eh     change       -0.2691502E-06 Eh
 * total energy  :   -96.9409064 Eh     change       -0.1313810E-06 Eh
 * total energy  :   -96.9409064 Eh     change       -0.1138720E-07 Eh
   *** GEOMETRY OPTIMIZATION CONVERGED AFTER 32 ITERATIONS ***

 final structure:
================
61
 xtb: 6.7.1 (edcfbbe)
C           -6.31446862573154        0.26022979404947        1.23148522811131
C           -5.33575261239720       -0.01595763939165        0.07070059440492
C           -6.12033882322206       -0.41822047279167       -1.19595045376293
C           -4.43051150817443       -1.15622696465171        0.47021487696943
C           -4.97910075532084       -2.39225824277264        0.78869748175497
C           -4.19669862595941       -3.45204173720837        1.20763728154096
C           -2.82435576671757       -3.28081563652488        1.34957200832811
C           -2.25159479642367       -2.07032928528526        1.04192161827811
C           -3.03447047473878       -1.00283971616436        0.56650722787823
N           -2.42784957513379        0.19156409965306        0.24143718479526
C           -1.02329803609115        0.31010907516610        0.35674450840264
C           -0.50098953606022        1.12681211693543        1.37340173459695
C            0.85076434636442        1.23908599722908        1.55385195562182
C            1.74393011242528        0.55722144721275        0.69506135698428
C            1.24153244616142       -0.24567292808545       -0.34979743336190
C            2.12483284899181       -0.89975305013792       -1.23097864735512
C            1.61748483457270       -1.67753606695367       -2.28835584602835
C            0.25935344066058       -1.78598273349190       -2.47605887726255
C           -0.63118091391646       -1.14651800568668       -1.61922677021477
C           -0.16396947237956       -0.38446350178079       -0.53892735246036
C            3.55631763469407       -0.77633887074657       -1.05828075109706
O            4.38233693821505       -1.34845937848430       -1.77457224867447
N            3.98323823829167        0.02111754906656       -0.00344191288702
C            5.39629197328404        0.15455790608393        0.17779438933666
C            6.00454649429547       -0.40977508505082        1.28847701324257
C            7.37093417720957       -0.27747119468195        1.46165977638997
C            8.12838932146403        0.40588378036610        0.52537999707950
C            7.51695450496007        0.96403587135336       -0.58454372370578
C            6.14944470033571        0.84533937467488       -0.75904636462831
C            3.16571391827405        0.70607363227536        0.89028477466570
O            3.66607560182092        1.40487990912177        1.77785134462712
C           -3.15479523674858        1.29021170576254       -0.15815639878356
C           -2.48061690436002        2.46496189756825       -0.54032626550876
C           -3.17967186989958        3.58924411136412       -0.90981957614144
C           -4.56908433750654        3.56329496197677       -0.93056030150150
C           -5.23740729913366        2.39604170993513       -0.60853257536279
C           -4.56103425416402        1.24491377799753       -0.22739638521642
H           -5.76225502846212        0.54489846202360        2.12479170330388
H           -6.90236317614741       -0.62377380769524        1.45677010705650
H           -6.99450396756603        1.06606577122513        0.97447276414179
H           -6.79386903592435        0.37719121739883       -1.49861014514125
H           -5.43172842427776       -0.61752769420980       -2.01448424930369
H           -6.70740152438472       -1.31271323762936       -1.01363862167299
H           -6.04490642808850       -2.53579465751896        0.71232752732227
H           -4.65279434833455       -4.40153256844485        1.44104571874993
H           -2.20610120846013       -4.08964677185573        1.70677107039871
H           -1.19040702229232       -1.93239583280272        1.16945801615072
H           -1.18690975041025        1.62840439706985        2.04018946898604
H            1.27156345001812        1.83642074930464        2.34720036705893
H            2.32519500251146       -2.17166293568174       -2.93629789930178
H           -0.12558934429252       -2.37958964477692       -3.29200623196919
H           -1.69206317061334       -1.24656041100403       -1.78957977631828
H            5.40375415719441       -0.94151145235955        2.01207965546515
H            7.84316482090002       -0.71420693402616        2.32929399192666
H            9.19528984790150        0.50379470513862        0.66068596201136
H            8.10376031759400        1.49763936060328       -1.31764462018882
H            5.66184473397213        1.27663135747188       -1.62142375698154
H           -1.40280882081486        2.47624706248336       -0.55202170540905
H           -2.64505320731864        4.48258248372986       -1.19295541592493
H           -5.12499542101720        4.44236607842889       -1.21720786160029
H           -6.31426072792856        2.38733475662599       -0.65986586651413

          :  Hamiltonian                  GFN2-xTB          :
         :: gradient norm              0.000092580221 Eh/a0 ::
         :: HOMO-LUMO gap              1.213843755811 eV    ::
         :: SCC energy               -98.588497911614 Eh    ::
         :: -> dispersion             -0.086173914876 Eh    ::
         :: -> Gsolv                  -0.061106544401 Eh    ::
         :: repulsion energy           1.647591481377 Eh    ::

    * Orbital Energies and Occupations

         #    Occupation            Energy/Eh            Energy/eV
      -------------------------------------------------------------
         1        2.0000           -0.7026588             -19.1203
       ...           ...                  ...                  ...
        78        2.0000           -0.4295402             -11.6884
        79        2.0000           -0.4261317             -11.5956
        80        2.0000           -0.4242970             -11.5457
        81        2.0000           -0.4194540             -11.4139
        82        2.0000           -0.4136854             -11.2570
        83        2.0000           -0.4125941             -11.2273
        84        2.0000           -0.4075475             -11.0899
        85        2.0000           -0.3971794             -10.8078
        86        2.0000           -0.3926478             -10.6845
        87        1.9996           -0.3889715             -10.5845
        88        1.9982           -0.3876008             -10.5472
        89        1.0022           -0.3758143             -10.2264
        90        1.0000           -0.3019222              -8.2157 (HOMO)
        91                         -0.2573137              -7.0019 (LUMO)
        92                         -0.2465799              -6.7098
        93                         -0.2458827              -6.6908
        94                         -0.2429052              -6.6098
        95                         -0.2344067              -6.3785
        96                         -0.2260042              -6.1499
        97                         -0.2246824              -6.1139
        98                         -0.2208374              -6.0093
        99                         -0.2124315              -5.7806
       100                         -0.1498885              -4.0787
       101                         -0.1382778              -3.7627
       ...                                ...                  ...
       172                          0.7086603              19.2836
      -------------------------------------------------------------
                  HL-Gap            0.0446085 Eh            1.2139 eV

     #   Z          covCN         q      C6AA      α(0)
     1   6 C        3.761    -0.111    22.674     6.788
     2   6 C        3.909     0.027    20.061     6.366
     3   6 C        3.761    -0.111    22.661     6.786
     4   6 C        2.978     0.008    27.827     8.653
     5   6 C        2.924    -0.029    28.724     8.789
     6   6 C        2.917    -0.020    28.517     8.757
     7   6 C        2.917    -0.022    28.551     8.762
     8   6 C        2.921    -0.038    28.937     8.821
     9   6 C        2.930     0.061    26.639     8.464
    10   7 N        2.754     0.027    20.783     6.771
    11   6 C        2.929     0.020    27.558     8.609
    12   6 C        2.912    -0.038    28.942     8.822
    13   6 C        2.916    -0.037    28.916     8.818
    14   6 C        2.976    -0.041    29.013     8.835
    15   6 C        2.990     0.005    27.896     8.664
    16   6 C        2.978    -0.041    29.018     8.836
    17   6 C        2.918    -0.034    28.837     8.806
    18   6 C        2.912    -0.030    28.756     8.793
    19   6 C        2.917    -0.051    29.277     8.873
    20   6 C        2.976     0.006    27.873     8.660
    21   6 C        2.777     0.260    22.630     7.792
    22   8 O        0.858    -0.508    23.954     6.562
    23   7 N        2.748    -0.138    23.983     7.273
    24   6 C        2.936     0.096    25.870     8.342
    25   6 C        2.922    -0.031    28.767     8.795
    26   6 C        2.921    -0.029    28.725     8.789
    27   6 C        2.920    -0.031    28.784     8.798
    28   6 C        2.921    -0.029    28.725     8.789
    29   6 C        2.922    -0.031    28.765     8.795
    30   6 C        2.777     0.257    22.673     7.799
    31   8 O        0.858    -0.510    24.005     6.569
    32   6 C        2.932     0.061    26.637     8.464
    33   6 C        2.921    -0.038    28.954     8.824
    34   6 C        2.916    -0.022    28.557     8.763
    35   6 C        2.917    -0.020    28.507     8.755
    36   6 C        2.924    -0.029    28.714     8.788
    37   6 C        2.978     0.009    27.819     8.652
    38   1 H        0.925     0.043     2.409     2.427
    39   1 H        0.925     0.060     2.202     2.320
    40   1 H        0.925     0.060     2.196     2.317
    41   1 H        0.925     0.060     2.201     2.320
    42   1 H        0.925     0.042     2.417     2.431
    43   1 H        0.925     0.060     2.197     2.318
    44   1 H        0.926     0.064     2.150     2.293
    45   1 H        0.926     0.057     2.230     2.335
    46   1 H        0.926     0.052     2.298     2.370
    47   1 H        0.926     0.050     2.324     2.384
    48   1 H        0.926     0.048     2.350     2.397
    49   1 H        0.926     0.046     2.370     2.407
    50   1 H        0.926     0.036     2.502     2.474
    51   1 H        0.926     0.038     2.476     2.461
    52   1 H        0.926     0.033     2.543     2.494
    53   1 H        0.926     0.034     2.536     2.490
    54   1 H        0.926     0.045     2.380     2.413
    55   1 H        0.926     0.047     2.354     2.399
    56   1 H        0.926     0.045     2.384     2.414
    57   1 H        0.926     0.033     2.543     2.494
    58   1 H        0.926     0.053     2.287     2.365
    59   1 H        0.926     0.053     2.282     2.362
    60   1 H        0.926     0.058     2.224     2.332
    61   1 H        0.926     0.064     2.147     2.292

molecular dipole:
                 x           y           z       tot (Debye)
 q only:       -8.477       0.140       0.239
   full:       -8.310       0.127       0.219      21.133

 projected vibrational frequencies (cm⁻¹)
eigval :       -0.00    -0.00    -0.00    -0.00    -0.00     0.00
eigval :       15.84    20.40    26.97    36.20    42.69    51.53
eigval :       67.52    68.46    92.66    99.27   129.48   134.09
eigval :      135.96   138.23   164.74   178.06   195.87   203.63
eigval :      214.14   234.38   239.12   251.34   292.77   297.80
eigval :      313.51   322.85   327.08   341.77   353.15   373.80
eigval :      380.68   387.70   392.11   405.93   414.15   419.91
eigval :      448.19   461.70   465.21   487.55   491.65   494.22
eigval :      515.38   523.90   533.38   540.39   551.10   569.03
eigval :      582.31   589.21   606.85   615.77   636.22   641.51
eigval :      658.50   661.45   671.04   680.64   692.33   708.64
eigval :      719.24   729.99   758.98   761.78   772.15   774.85
eigval :      775.75   807.22   826.74   831.50   844.12   846.52
eigval :      868.05   872.73   873.91   889.05   894.62   906.14
eigval :      908.40   918.42   918.74   920.85   924.34   925.88
eigval :      927.19   932.36   936.61   961.32   986.07  1010.91
eigval :     1028.94  1069.39  1071.75  1079.30  1098.17  1105.07
eigval :     1106.32  1113.72  1124.96  1134.39  1134.75  1136.05
eigval :     1154.49  1168.09  1175.68  1178.79  1179.48  1188.04
eigval :     1189.22  1191.62  1200.45  1221.11  1233.98  1236.02
eigval :     1248.33  1259.94  1277.27  1285.78  1289.80  1294.86
eigval :     1310.68  1318.32  1329.05  1338.47  1340.79  1360.90
eigval :     1377.53  1396.38  1400.67  1403.15  1413.80  1415.44
eigval :     1422.53  1434.73  1445.32  1449.65  1461.32  1471.80
eigval :     1475.89  1478.21  1487.58  1492.65  1493.45  1508.16
eigval :     1535.61  1543.42  1553.34  1571.00  1572.45  1581.64
eigval :     1592.12  1595.99  1611.66  3033.41  3034.91  3056.59
eigval :     3058.27  3062.67  3066.31  3074.01  3074.64  3077.97
eigval :     3081.70  3081.86  3085.51  3091.54  3092.29  3093.27
eigval :     3094.78  3098.54  3099.83  3100.51  3104.12  3108.66
eigval :     3109.21  3115.65  3118.92

   temp. (K)  partition function   enthalpy   heat capacity  entropy
                                   cal/mol     cal/K/mol   cal/K/mol   J/K/mol
 298.15  VIB  0.210E+13            17141.458    110.878    104.337
         ROT  0.324E+08              888.752      2.981     37.348
         INT  0.682E+20            18030.210    113.859    141.684
         TR   0.102E+29             1481.254      4.968     44.377
         TOT                       19511.4644   118.8270   186.0614   778.4809

       T/K    H(0)-H(T)+PV         H(T)/Eh          T*S/Eh         G(T)/Eh
   ------------------------------------------------------------------------
    298.15    0.310935E-01    0.498093E+00    0.884038E-01    0.409689E+00
   ------------------------------------------------------------------------

         :::::::::::::::::::::::::::::::::::::::::::::::::::::
         ::                  THERMODYNAMIC                  ::
         :::::::::::::::::::::::::::::::::::::::::::::::::::::
         :: total free energy         -96.531217324098 Eh   ::
         ::.................................................::
         :: total energy              -96.940906429149 Eh   ::
         :: zero point energy           0.466999381169 Eh   ::
         :: G(RRHO) w/o ZPVE           -0.057310276118 Eh   ::
         :: G(RRHO) contrib.            0.409689105051 Eh   ::
         :::::::::::::::::::::::::::::::::::::::::::::::::::::

           -------------------------------------------------
          | TOTAL ENERGY              -96.940906429149 Eh   |
          | TOTAL ENTHALPY            -96.442813550333 Eh   |
          | TOTAL FREE ENERGY         -96.531217324098 Eh   |
          | GRADIENT NORM               0.000091790692 Eh/α |
          | HOMO-LUMO GAP               1.213858649076 eV   |
           -------------------------------------------------

 * finished run on 2025/08/24 at 03:42:11.958
