   * xtb version 6.7.1 (edcfbbe) compiled by 'albert@albert-system' on 2024-07-22

   ID    Z sym.   atoms
    1    6 C      1-9, 11-21, 24-30, 32-37
    2    7 N      10, 23
    3    8 O      22, 31
    4    1 H      38-61

          program call               : xtb data2507/toluene/6AcBIQ/6AcBIQ_toluene_S0_finalOpt.xtbopt.xyz --gfn 2 --uhf 2 --gbsa toluene --ohess vtight --parallel 40 --molden --ceasefiles --namespace data2507/toluene/6AcBIQ/6AcBIQ_toluene_T1_preOpt
      * Solvation model:               GBSA
        Solvent                        toluene
        Solvent mass                       9.2140E+01 g/mol
          :  Hamiltonian                  GFN2-xTB          :
 * total energy  :   -96.9362334 Eh     change       -0.1555634E-08 Eh
 * total energy  :   -96.9399207 Eh     change       -0.3687259E-02 Eh
 * total energy  :   -96.9407029 Eh     change       -0.7822092E-03 Eh
 * total energy  :   -96.9407639 Eh     change       -0.6105852E-04 Eh
 * total energy  :   -96.9407878 Eh     change       -0.2385194E-04 Eh
 * total energy  :   -96.9407945 Eh     change       -0.6697887E-05 Eh
 * total energy  :   -96.9407994 Eh     change       -0.4890796E-05 Eh
 * total energy  :   -96.9408068 Eh     change       -0.7469711E-05 Eh
 * total energy  :   -96.9408159 Eh     change       -0.9110278E-05 Eh
 * total energy  :   -96.9408262 Eh     change       -0.1027417E-04 Eh
 * total energy  :   -96.9408444 Eh     change       -0.2322114E-05 Eh
 * total energy  :   -96.9408464 Eh     change       -0.2059161E-05 Eh
 * total energy  :   -96.9408476 Eh     change       -0.1180882E-05 Eh
 * total energy  :   -96.9408482 Eh     change       -0.5728724E-06 Eh
 * total energy  :   -96.9408485 Eh     change       -0.2948574E-06 Eh
 * total energy  :   -96.9408488 Eh     change       -0.2675093E-06 Eh
 * total energy  :   -96.9408490 Eh     change       -0.2754054E-06 Eh
 * total energy  :   -96.9408493 Eh     change       -0.2486236E-06 Eh
 * total energy  :   -96.9408493 Eh     change       -0.6118597E-08 Eh
   *** GEOMETRY OPTIMIZATION CONVERGED AFTER 22 ITERATIONS ***

 final structure:
================
61
 xtb: 6.7.1 (edcfbbe)
C           -6.30666551814318       -0.19576424256585        1.26619742724896
C           -5.33643417302296        0.02393017905521        0.08657556820427
C           -6.13016736732672        0.36759651209321       -1.19179575393040
C           -4.56502331030288       -1.25021537447251       -0.15941857338683
C           -5.24443969111594       -2.41794388463970       -0.47999910457870
C           -4.57864182143551       -3.59821927529761       -0.75663569208761
C           -3.18902482223891       -3.62270492740346       -0.75072057679911
C           -2.48704700723422       -2.48291312710924       -0.43896541063049
C           -3.15815759070324       -1.29245556808886       -0.10274407582294
N           -2.42717315963102       -0.17741205391311        0.23922679085693
C           -1.02254084960141       -0.29500345463309        0.35577545087464
C           -0.50032182338229       -1.05980144262144        1.41218744156588
C            0.85153001707402       -1.16087459784940        1.59870423127388
C            1.74441284223791       -0.52382142348247        0.70598756089349
C            1.24202056944412        0.22151918470191       -0.38087551984487
C            2.12465925432435        0.82652721320619       -1.29712447565640
C            1.61630941057421        1.54250402733722       -2.39697839787677
C            0.25799876896590        1.64324274175931       -2.58755140396780
C           -0.63193591696989        1.05370950695893       -1.69493646431883
C           -0.16355352363389        0.35059752211088       -0.57582994110765
C            3.55625504025131        0.70769734293921       -1.12188231346141
O            4.38354806542304        1.20811965725179       -1.88863279665558
N            3.98243211251388       -0.01954616922721       -0.01762648312834
C            5.39595205564307       -0.13457279706252        0.17688002424583
C            6.02506676851066       -1.35129919942775       -0.03575647888773
C            7.39072866478088       -1.45845260856604        0.15952010505455
C            8.12613730650217       -0.35406090636400        0.55535494251088
C            7.49370181933341        0.86023566033890        0.76220813132385
C            6.12701494191116        0.97278025350145        0.57817861335603
C            3.16636761023018       -0.65042586741317        0.91575936644004
O            3.66848710191670       -1.26684942473264        1.86147410807674
C           -3.02969543725311        1.03244805409194        0.51028356535733
C           -2.24151050828528        2.12253266581881        0.92123926031089
C           -2.81150652487214        3.34617487956894        1.17785140620656
C           -4.18598143049188        3.50943850052401        1.04761633278257
C           -4.97256962253464        2.43055345939594        0.68969074495242
C           -4.42689157593327        1.18106902493286        0.42320710131250
H           -6.89202372270196        0.69857531070892        1.45399421161877
H           -5.74824069926916       -0.43883480012728        2.16786177372562
H           -6.98951227057642       -1.01188535276364        1.05269705376488
H           -5.44691889500432        0.53174646191873       -2.02252174139071
H           -6.80332454484238       -0.44220815393380       -1.45444110622323
H           -6.71849194289650        1.26790068369220       -1.04566324699960
H           -6.32182812664058       -2.41189388252413       -0.51972244067014
H           -5.13697020430926       -4.48953031644148       -0.99709632582744
H           -2.65692444264061       -4.52754414657493       -1.00003692912595
H           -1.40938025882984       -2.49353284270333       -0.46200274501275
H           -1.18612714835125       -1.52769876367695        2.10316234922424
H            1.27264741696807       -1.71536834626150        2.42239704927984
H            2.32359702733282        1.99713652235401       -3.07367459653657
H           -0.12756935183889        2.19114699815656       -3.43459676622073
H           -1.69309687978138        1.14555888903818       -1.86839707318473
H            5.44090041963381       -2.20610460058464       -0.34472058921273
H            7.87986958877036       -2.40767295441090       -0.00257500983438
H            9.19240213305388       -0.43957188550826        0.70317228398695
H            8.06351146344620        1.72435780128451        1.07058267200676
H            5.62245619765779        1.91520206911825        0.73575257798087
H           -1.17846850772687        1.99207496080342        1.04048402281335
H           -2.18909633857282        4.17170286238086        1.48621531244514
H           -4.64003633076371        4.46865380054679        1.24189278695979
H           -6.03935741885743        2.56999971046868        0.61999141119553

          :  Hamiltonian                  GFN2-xTB          :
         :: gradient norm              0.000054544108 Eh/a0 ::
         :: HOMO-LUMO gap              1.211104168036 eV    ::
         :: SCC energy               -98.588511147487 Eh    ::
         :: -> dispersion             -0.086167465222 Eh    ::
         :: -> Gsolv                  -0.061248668647 Eh    ::
         :: repulsion energy           1.647661852399 Eh    ::

    * Orbital Energies and Occupations

         #    Occupation            Energy/Eh            Energy/eV
      -------------------------------------------------------------
         1        2.0000           -0.7027275             -19.1222
       ...           ...                  ...                  ...
        78        2.0000           -0.4294194             -11.6851
        79        2.0000           -0.4261913             -11.5973
        80        2.0000           -0.4243714             -11.5477
        81        2.0000           -0.4195083             -11.4154
        82        2.0000           -0.4133963             -11.2491
        83        2.0000           -0.4120523             -11.2125
        84        2.0000           -0.4076510             -11.0927
        85        2.0000           -0.3981225             -10.8335
        86        2.0000           -0.3928458             -10.6899
        87        1.9995           -0.3887709             -10.5790
        88        1.9979           -0.3874285             -10.5425
        89        1.0026           -0.3758930             -10.2286
        90        1.0000           -0.3018771              -8.2145 (HOMO)
        91                         -0.2573703              -7.0034 (LUMO)
        92                         -0.2466542              -6.7118
        93                         -0.2458810              -6.6908
        94                         -0.2423987              -6.5960
        95                         -0.2343975              -6.3783
        96                         -0.2261972              -6.1551
        97                         -0.2248976              -6.1198
        98                         -0.2212530              -6.0206
        99                         -0.2124095              -5.7800
       100                         -0.1498457              -4.0775
       101                         -0.1382637              -3.7623
       ...                                ...                  ...
       172                          0.7088330              19.2883
      -------------------------------------------------------------
                  HL-Gap            0.0445068 Eh            1.2111 eV

     #   Z          covCN         q      C6AA      α(0)
     1   6 C        3.761    -0.111    22.675     6.788
     2   6 C        3.909     0.027    20.061     6.366
     3   6 C        3.761    -0.111    22.660     6.786
     4   6 C        2.978     0.009    27.819     8.652
     5   6 C        2.924    -0.029    28.713     8.787
     6   6 C        2.917    -0.020    28.506     8.755
     7   6 C        2.916    -0.022    28.556     8.763
     8   6 C        2.921    -0.038    28.951     8.824
     9   6 C        2.932     0.061    26.636     8.464
    10   7 N        2.754     0.027    20.781     6.771
    11   6 C        2.929     0.020    27.559     8.609
    12   6 C        2.912    -0.038    28.941     8.821
    13   6 C        2.916    -0.037    28.915     8.818
    14   6 C        2.976    -0.041    29.013     8.835
    15   6 C        2.990     0.005    27.898     8.664
    16   6 C        2.978    -0.041    29.019     8.836
    17   6 C        2.918    -0.034    28.837     8.806
    18   6 C        2.912    -0.030    28.755     8.793
    19   6 C        2.917    -0.051    29.276     8.873
    20   6 C        2.977     0.006    27.874     8.660
    21   6 C        2.777     0.260    22.630     7.791
    22   8 O        0.858    -0.508    23.973     6.565
    23   7 N        2.748    -0.138    23.992     7.275
    24   6 C        2.936     0.096    25.859     8.340
    25   6 C        2.922    -0.031    28.766     8.795
    26   6 C        2.921    -0.029    28.722     8.789
    27   6 C        2.920    -0.031    28.780     8.797
    28   6 C        2.921    -0.029    28.722     8.789
    29   6 C        2.922    -0.031    28.769     8.796
    30   6 C        2.777     0.257    22.671     7.799
    31   8 O        0.858    -0.510    24.014     6.570
    32   6 C        2.930     0.061    26.639     8.464
    33   6 C        2.921    -0.038    28.938     8.822
    34   6 C        2.917    -0.022    28.551     8.762
    35   6 C        2.917    -0.020    28.516     8.757
    36   6 C        2.924    -0.029    28.723     8.789
    37   6 C        2.978     0.008    27.826     8.653
    38   1 H        0.925     0.060     2.202     2.320
    39   1 H        0.925     0.043     2.408     2.427
    40   1 H        0.925     0.060     2.196     2.317
    41   1 H        0.925     0.042     2.417     2.431
    42   1 H        0.925     0.060     2.200     2.320
    43   1 H        0.925     0.060     2.196     2.317
    44   1 H        0.926     0.064     2.147     2.291
    45   1 H        0.926     0.058     2.223     2.332
    46   1 H        0.926     0.053     2.281     2.362
    47   1 H        0.926     0.053     2.287     2.365
    48   1 H        0.926     0.048     2.351     2.398
    49   1 H        0.926     0.046     2.370     2.407
    50   1 H        0.926     0.036     2.504     2.474
    51   1 H        0.926     0.038     2.476     2.460
    52   1 H        0.926     0.033     2.543     2.494
    53   1 H        0.926     0.033     2.540     2.492
    54   1 H        0.926     0.045     2.379     2.412
    55   1 H        0.926     0.047     2.351     2.398
    56   1 H        0.926     0.045     2.380     2.413
    57   1 H        0.926     0.033     2.545     2.495
    58   1 H        0.926     0.050     2.323     2.384
    59   1 H        0.926     0.052     2.298     2.370
    60   1 H        0.926     0.057     2.230     2.335
    61   1 H        0.926     0.064     2.149     2.292

molecular dipole:
                 x           y           z       tot (Debye)
 q only:       -8.485      -0.126       0.269
   full:       -8.320      -0.112       0.248      21.158

 projected vibrational frequencies (cm⁻¹)
eigval :       -0.00    -0.00     0.00     0.00     0.00     0.00
eigval :       16.26    19.46    22.53    28.15    44.57    52.07
eigval :       66.94    67.92    93.31   101.54   129.67   131.34
eigval :      134.02   135.91   164.32   179.23   197.69   201.58
eigval :      215.61   236.02   237.64   250.96   293.33   297.23
eigval :      313.26   323.21   326.77   341.52   353.26   376.24
eigval :      380.64   386.30   394.91   406.96   414.22   419.27
eigval :      448.18   463.59   465.98   485.67   492.95   494.63
eigval :      513.82   524.28   533.51   541.13   550.65   568.99
eigval :      582.39   590.23   607.62   615.16   635.88   641.69
eigval :      658.55   662.43   672.08   680.99   692.10   708.36
eigval :      718.93   730.53   759.35   760.37   772.62   776.18
eigval :      776.20   809.12   826.81   831.59   843.93   846.74
eigval :      870.79   871.92   874.14   890.29   897.24   902.72
eigval :      908.48   918.26   919.98   923.67   926.63   927.72
eigval :      928.60   932.42   936.37   960.65   986.23  1010.70
eigval :     1029.01  1069.21  1071.70  1079.03  1098.65  1105.10
eigval :     1106.95  1114.69  1124.76  1134.19  1134.93  1136.15
eigval :     1154.99  1168.47  1178.23  1178.84  1180.36  1187.42
eigval :     1190.24  1190.77  1200.53  1221.08  1234.25  1236.51
eigval :     1249.09  1259.71  1276.81  1286.08  1289.79  1295.28
eigval :     1311.36  1318.31  1329.15  1338.51  1341.22  1361.08
eigval :     1377.56  1396.60  1401.02  1403.27  1413.91  1415.55
eigval :     1422.83  1434.96  1445.60  1449.43  1461.42  1471.81
eigval :     1477.00  1478.04  1488.41  1492.30  1493.20  1508.09
eigval :     1535.67  1543.59  1553.60  1571.06  1573.50  1581.84
eigval :     1592.16  1596.61  1612.04  3032.99  3034.64  3056.53
eigval :     3058.33  3062.53  3066.29  3074.14  3075.75  3077.46
eigval :     3081.43  3081.89  3086.32  3091.20  3093.01  3093.49
eigval :     3094.97  3098.07  3100.29  3100.85  3104.36  3108.64
eigval :     3109.08  3115.13  3119.22

   temp. (K)  partition function   enthalpy   heat capacity  entropy
                                   cal/mol     cal/K/mol   cal/K/mol   J/K/mol
 298.15  VIB  0.310E+13            17152.980    110.711    104.542
         ROT  0.324E+08              888.752      2.981     37.348
         INT  0.100E+21            18041.733    113.692    141.890
         TR   0.102E+29             1481.254      4.968     44.377
         TOT                       19522.9864   118.6605   186.2666   779.3394

       T/K    H(0)-H(T)+PV         H(T)/Eh          T*S/Eh         G(T)/Eh
   ------------------------------------------------------------------------
    298.15    0.311119E-01    0.498168E+00    0.885013E-01    0.409667E+00
   ------------------------------------------------------------------------

         :::::::::::::::::::::::::::::::::::::::::::::::::::::
         ::                  THERMODYNAMIC                  ::
         :::::::::::::::::::::::::::::::::::::::::::::::::::::
         :: total free energy         -96.531182402288 Eh   ::
         ::.................................................::
         :: total energy              -96.940849293074 Eh   ::
         :: zero point energy           0.467056301090 Eh   ::
         :: G(RRHO) w/o ZPVE           -0.057389410305 Eh   ::
         :: G(RRHO) contrib.            0.409666890786 Eh   ::
         :::::::::::::::::::::::::::::::::::::::::::::::::::::

           -------------------------------------------------
          | TOTAL ENERGY              -96.940849293074 Eh   |
          | TOTAL ENTHALPY            -96.442681132745 Eh   |
          | TOTAL FREE ENERGY         -96.531182402288 Eh   |
          | GRADIENT NORM               0.000054656428 Eh/α |
          | HOMO-LUMO GAP               1.211090829518 eV   |
           -------------------------------------------------

 * finished run on 2025/08/24 at 03:39:11.691
