   * xtb version 6.7.1 (edcfbbe) compiled by 'albert@albert-system' on 2024-07-22

   ID    Z sym.   atoms
    1    7 N      1, 6, 9, 14, 19
    2    6 C      2-5, 7, 8, 10-13, 15-18, 20-49, 51-63
    3   16 S      50
    4    1 H      64-92

          program call               : xtb data2507/toluene/ANQDC-PSTA/ANQDC-PSTA_toluene_T1_crest.xyz --gfn 2 --uhf 2 --gbsa toluene --ohess vtight --parallel 40 --molden --ceasefiles --namespace data2507/toluene/ANQDC-PSTA/ANQDC-PSTA_toluene_T1_finalOpt
      * Solvation model:               GBSA
        Solvent                        toluene
        Solvent mass                       9.2140E+01 g/mol
          :  Hamiltonian                  GFN2-xTB          :
 * total energy  :  -154.7482388 Eh     change        0.2512346E-07 Eh
 * total energy  :  -154.7484061 Eh     change       -0.1672917E-03 Eh
 * total energy  :  -154.7484795 Eh     change       -0.7334843E-04 Eh
 * total energy  :  -154.7484368 Eh     change        0.4266724E-04 Eh
 * total energy  :  -154.7485446 Eh     change       -0.1077483E-03 Eh
 * total energy  :  -154.7484751 Eh     change        0.6946533E-04 Eh
 * total energy  :  -154.7485630 Eh     change       -0.8789629E-04 Eh
 * total energy  :  -154.7485668 Eh     change       -0.3789268E-05 Eh
 * total energy  :  -154.7485693 Eh     change       -0.2481889E-05 Eh
 * total energy  :  -154.7485701 Eh     change       -0.8248082E-06 Eh
 * total energy  :  -154.7486675 Eh     change       -0.4975448E-06 Eh
 * total energy  :  -154.7486679 Eh     change       -0.4482281E-06 Eh
 * total energy  :  -154.7486684 Eh     change       -0.4566566E-06 Eh
 * total energy  :  -154.7486688 Eh     change       -0.4449415E-06 Eh
 * total energy  :  -154.7486693 Eh     change       -0.4832345E-06 Eh
 * total energy  :  -154.7486698 Eh     change       -0.4912138E-06 Eh
 * total energy  :  -154.7486703 Eh     change       -0.4904495E-06 Eh
 * total energy  :  -154.7486708 Eh     change       -0.4986626E-06 Eh
 * total energy  :  -154.7486708 Eh     change       -0.2809713E-08 Eh
   *** GEOMETRY OPTIMIZATION CONVERGED AFTER 94 ITERATIONS ***

 final structure:
================
92
 xtb: 6.7.1 (edcfbbe)
N           11.58052642231952       -1.87145529967378        1.32068214594446
C           10.53160423722365       -1.70076360491454        0.87893199541827
C            9.24642257126432       -1.49115272312752        0.35555014857880
C            8.16555376849957       -1.26623764472674        1.20712661043315
C            6.88671089411529       -1.06193614213108        0.69851899135196
N            5.84525668998053       -0.85471273917373        1.53301722619938
C            4.66265427239340       -0.67242765244784        1.01834747389868
C            4.44541610089363       -0.68109328531499       -0.41771349100951
N            5.45947908210532       -0.88424045785641       -1.24455179451770
C            6.67243213115217       -1.07770979829110       -0.73303863429526
C            7.77641662151764       -1.30611831696456       -1.57415571061038
C            9.03865011845589       -1.51132212271934       -1.04763110847400
C           10.13126258215445       -1.74376594660766       -1.90757708626188
N           11.01371960672716       -1.93340655083473       -2.61794714247950
C            3.05728661401378       -0.45489050522293       -0.66410999729874
C            2.25257138969947       -0.36018402312124       -1.79008821610674
C            0.88823655044727       -0.12911545612326       -1.61190866023865
C            0.30373296946951        0.02229065742284       -0.36177702089724
N           -1.10410506664293        0.21029072690385       -0.25748948428421
C           -1.89203628585816       -0.92540804592853       -0.22272135600336
C           -1.30535398852229       -2.19778484812975       -0.28888803244665
C           -2.07827228563118       -3.33421865438796       -0.27012198157990
C           -3.47196467598269       -3.25623527895703       -0.18774886950908
C           -4.30451548254521       -4.46255287099837       -0.19702783045804
C           -5.52439899975758       -4.47588958355100       -0.87481066783972
C           -6.30539008397685       -5.61594121615579       -0.89495772153715
C           -5.88793965816888       -6.75979906449684       -0.23310125153256
C           -4.68078241814006       -6.75685165538929        0.44749614510333
C           -3.89338845752030       -5.62100320224361        0.46296101921962
C           -4.04882329414236       -1.99180381848028       -0.10780655834217
C           -3.28648551167960       -0.83780018663930       -0.12143456012174
C           -3.97967858356702        0.49303760299850       -0.03101401747019
C           -5.02588187037281        0.61105056305965       -1.13006337696413
C           -4.82751330204222        0.62978070462110       -2.49263032142005
C           -5.93860748680283        0.73030588998351       -3.32078548890679
C           -7.21652761320348        0.80718601308711       -2.78776666800009
C           -7.41860359310943        0.78919755819387       -1.41637001116701
C           -6.31468893282376        0.69172764691820       -0.58488551850759
C           -6.20821611294224        0.65632384986300        0.86658751751120
C           -7.17843899205935        0.71529867334840        1.85375440939040
C           -6.77882880241141        0.67001395576039        3.18037302381087
C           -5.43752877250830        0.56837188010154        3.51714204860538
C           -4.46018718868686        0.50562532900774        2.53177956038979
C           -4.85419978116963        0.55050991540295        1.21323036640519
C           -3.02878534070292        1.65800087086643       -0.06977936228285
C           -3.57671289770092        2.93277342709165        0.00477151920683
C           -2.78913217461745        4.06295241412598       -0.02834708495158
C           -1.41013629291592        3.92123741592782       -0.13883032356891
C           -0.83892414574421        2.63856150285720       -0.21419704809959
S            0.90926391479999        2.71687789046930       -0.34948570856912
C            0.87666972039647        4.46431806213695       -0.30449515234393
C            1.98253051977031        5.29691214243361       -0.37196422810988
C            1.77632384653735        6.66218292433739       -0.32651075864628
C            0.48934965615903        7.18379352709537       -0.21741352819829
C           -0.60942007627521        6.35154860902341       -0.14956609456532
C           -0.42599033475708        4.97165066932138       -0.19270419216897
C           -1.63731567510389        1.47826854690660       -0.18074011200371
C            1.08754187680125       -0.08974500803041        0.82097023748407
C            0.66793888508340        0.00835295201943        2.16427446085576
C            1.58300000306208       -0.11558455973517        3.18857194547866
C            2.94873257679971       -0.34084758149479        2.96562748393442
C            3.38492171494406       -0.44327486101123        1.66083629896315
C            2.44727573221887       -0.31756411714893        0.61327099062880
H            8.31138891479205       -1.25062808359478        2.27651616822219
H            7.61816196306396       -1.32105896475330       -2.64169046027667
H            2.66261734330320       -0.46421891375416       -2.78196622135252
H            0.25277498815084       -0.05611086808519       -2.48317682231583
H           -0.23334651371920       -2.28869304077129       -0.36100404605039
H           -1.59810260578832       -4.29756033619505       -0.34610345610551
H           -5.84723179665787       -3.59532434604451       -1.41099276058069
H           -7.24306447989382       -5.61460044941783       -1.43172651398890
H           -6.49977852880070       -7.64976638520303       -0.24812040210899
H           -4.35278759092237       -7.64445930845265        0.96909613738014
H           -2.96298376179688       -5.62218520336311        1.01149431922605
H           -5.12036258196106       -1.90146816245416       -0.01353046920387
H           -3.83363248839513        0.56833907128518       -2.91146489187528
H           -5.80432868251841        0.74747960539882       -4.39228940672231
H           -8.06572985857643        0.88267569720741       -3.45126742263077
H           -8.41557842298815        0.84983103896457       -1.00651363808142
H           -8.22401521411363        0.79556956248768        1.59686279633006
H           -7.52172183960527        0.71588553517176        3.96334077034224
H           -5.14839613904483        0.53659091421117        4.55731007312402
H           -3.41680980571530        0.42517189162352        2.79870030881423
H           -4.64831781622918        3.02825618948298        0.08848391907955
H           -3.23106687482003        5.04397024042840        0.02926688341338
H            2.97548841024368        4.88257097071626       -0.45752798426937
H            2.62247027231547        7.33063106706388       -0.37744292600409
H            0.35274525364411        8.25420094338318       -0.18494377161974
H           -1.60338233370937        6.76252565775984       -0.06478492277001
H           -0.37305568661886        0.18354499899988        2.39131512971990
H            1.23754606221342       -0.03599323131989        4.20901432310206
H            3.63356161584732       -0.42978161993394        3.79468849064426

          :  Hamiltonian                  GFN2-xTB          :
         :: gradient norm              0.000043326281 Eh/a0 ::
         :: HOMO-LUMO gap              0.072224506245 eV    ::
         :: SCC energy              -157.662912469753 Eh    ::
         :: -> dispersion             -0.151555964016 Eh    ::
         :: -> Gsolv                  -0.077322216215 Eh    ::
         :: repulsion energy           2.914241682499 Eh    ::

    * Orbital Energies and Occupations

         #    Occupation            Energy/Eh            Energy/eV
      -------------------------------------------------------------
         1        2.0000           -0.7411947             -20.1689
       ...           ...                  ...                  ...
       133        2.0000           -0.4193965             -11.4124
       134        2.0000           -0.4125633             -11.2264
       135        2.0000           -0.4102739             -11.1641
       136        2.0000           -0.4089024             -11.1268
       137        2.0000           -0.4083157             -11.1108
       138        2.0000           -0.4074860             -11.0883
       139        2.0000           -0.3990937             -10.8599
       140        2.0000           -0.3969414             -10.8013
       141        2.0000           -0.3911917             -10.6449
       142        2.0000           -0.3885469             -10.5729
       143        1.5287           -0.3663748              -9.9696
       144        1.4713           -0.3661562              -9.9636
       145        0.8017           -0.3131066              -8.5201 (HOMO)
       146        0.1983           -0.3104527              -8.4478 (LUMO)
       147                         -0.2819311              -7.6717
       148                         -0.2717787              -7.3955
       149                         -0.2613908              -7.1128
       150                         -0.2601734              -7.0797
       151                         -0.2466715              -6.7123
       152                         -0.2429377              -6.6107
       153                         -0.2426154              -6.6019
       154                         -0.2398440              -6.5265
       155                         -0.2364054              -6.4329
       156                         -0.2349773              -6.3941
       ...                                ...                  ...
       286                          1.1732341              31.9253
      -------------------------------------------------------------
                  HL-Gap            0.0026539 Eh            0.0722 eV

     #   Z          covCN         q      C6AA      α(0)
     1   7 N        0.911    -0.286    27.370     7.567
     2   6 C        1.911     0.113    28.303     8.592
     3   6 C        2.973     0.003    27.953     8.672
     4   6 C        2.925    -0.046    29.151     8.854
     5   6 C        2.962     0.081    26.195     8.395
     6   7 N        1.840    -0.230    26.879     7.683
     7   6 C        3.046     0.088    25.993     8.362
     8   6 C        3.042     0.065    26.505     8.444
     9   7 N        1.840    -0.235    27.010     7.702
    10   6 C        2.958     0.088    26.050     8.372
    11   6 C        2.926    -0.048    29.196     8.861
    12   6 C        2.972     0.014    27.696     8.632
    13   6 C        1.913     0.118    28.189     8.574
    14   7 N        0.911    -0.269    26.954     7.509
    15   6 C        3.033    -0.014    28.322     8.729
    16   6 C        2.910    -0.030    28.746     8.792
    17   6 C        2.919    -0.035    28.859     8.809
    18   6 C        2.964     0.040    27.104     8.539
    19   7 N        2.751    -0.012    21.495     6.886
    20   6 C        2.931     0.059    26.684     8.472
    21   6 C        2.920    -0.047    29.160     8.855
    22   6 C        2.923    -0.031    28.767     8.796
    23   6 C        2.974     0.014    27.690     8.631
    24   6 C        2.976     0.012    27.737     8.639
    25   6 C        2.924    -0.032    28.797     8.800
    26   6 C        2.918    -0.028    28.708     8.786
    27   6 C        2.919    -0.028    28.700     8.785
    28   6 C        2.918    -0.028    28.711     8.787
    29   6 C        2.924    -0.032    28.805     8.801
    30   6 C        2.930    -0.037    28.909     8.818
    31   6 C        2.982     0.003    27.942     8.671
    32   6 C        3.950     0.014    20.267     6.397
    33   6 C        3.056     0.002    27.919     8.665
    34   6 C        2.914    -0.032    28.806     8.801
    35   6 C        2.923    -0.030    28.756     8.794
    36   6 C        2.921    -0.030    28.760     8.794
    37   6 C        2.915    -0.033    28.813     8.802
    38   6 C        3.032     0.003    27.917     8.667
    39   6 C        3.032     0.003    27.918     8.667
    40   6 C        2.915    -0.032    28.809     8.802
    41   6 C        2.921    -0.030    28.757     8.794
    42   6 C        2.923    -0.030    28.755     8.794
    43   6 C        2.914    -0.032    28.796     8.799
    44   6 C        3.056     0.002    27.920     8.665
    45   6 C        2.983     0.000    28.012     8.682
    46   6 C        2.923    -0.036    28.886     8.814
    47   6 C        2.914    -0.033    28.825     8.804
    48   6 C        3.115     0.000    27.859     8.646
    49   6 C        2.993     0.016    27.639     8.624
    50  16 S        2.254    -0.075   144.167    20.209
    51   6 C        3.004     0.036    27.180     8.552
    52   6 C        2.936    -0.036    28.889     8.815
    53   6 C        2.923    -0.027    28.684     8.783
    54   6 C        2.919    -0.030    28.761     8.794
    55   6 C        2.917    -0.030    28.748     8.792
    56   6 C        3.108     0.000    27.879     8.651
    57   6 C        2.930     0.054    26.783     8.487
    58   6 C        2.976     0.009    27.810     8.650
    59   6 C        2.918    -0.029    28.729     8.789
    60   6 C        2.919    -0.027    28.679     8.782
    61   6 C        2.912    -0.021    28.522     8.757
    62   6 C        3.032    -0.011    28.257     8.719
    63   6 C        3.149    -0.010    27.994     8.655
    64   1 H        0.926     0.052     2.298     2.370
    65   1 H        0.926     0.053     2.285     2.364
    66   1 H        0.926     0.049     2.331     2.387
    67   1 H        0.926     0.050     2.323     2.384
    68   1 H        0.926     0.045     2.380     2.413
    69   1 H        0.926     0.050     2.321     2.382
    70   1 H        0.926     0.038     2.475     2.460
    71   1 H        0.926     0.036     2.499     2.472
    72   1 H        0.926     0.035     2.510     2.478
    73   1 H        0.926     0.035     2.510     2.478
    74   1 H        0.926     0.038     2.475     2.460
    75   1 H        0.926     0.048     2.339     2.392
    76   1 H        0.926     0.029     2.595     2.519
    77   1 H        0.926     0.037     2.493     2.469
    78   1 H        0.926     0.037     2.488     2.466
    79   1 H        0.926     0.039     2.460     2.453
    80   1 H        0.926     0.039     2.459     2.452
    81   1 H        0.926     0.037     2.487     2.466
    82   1 H        0.926     0.037     2.490     2.468
    83   1 H        0.926     0.028     2.611     2.527
    84   1 H        0.926     0.051     2.303     2.373
    85   1 H        0.926     0.056     2.244     2.342
    86   1 H        0.926     0.040     2.445     2.445
    87   1 H        0.926     0.045     2.385     2.415
    88   1 H        0.926     0.046     2.370     2.408
    89   1 H        0.926     0.050     2.324     2.384
    90   1 H        0.926     0.041     2.431     2.438
    91   1 H        0.926     0.050     2.321     2.382
    92   1 H        0.926     0.049     2.337     2.391

molecular dipole:
                 x           y           z       tot (Debye)
 q only:      -10.492       1.891       0.497
   full:      -11.012       2.144       0.589      28.554

 projected vibrational frequencies (cm⁻¹)
eigval :       -0.00    -0.00     0.00     0.00     0.00     0.00
eigval :       -2.08    10.30    17.30    20.36    26.76    35.23
eigval :       37.48    38.93    44.84    51.05    51.97    63.40
eigval :       64.97    79.99    84.67    89.24    95.35   100.01
eigval :      109.17   110.30   117.12   128.33   142.29   145.18
eigval :      145.85   156.16   174.59   179.08   190.06   197.11
eigval :      204.89   211.39   230.70   233.32   241.92   248.13
eigval :      274.71   284.99   290.08   295.68   305.16   313.93
eigval :      323.58   343.66   353.30   370.01   374.71   381.85
eigval :      386.46   391.38   392.31   407.14   410.49   414.11
eigval :      423.92   427.09   431.48   433.11   441.23   445.89
eigval :      455.81   462.04   479.99   480.97   481.85   487.15
eigval :      493.61   497.02   504.13   508.13   521.07   526.78
eigval :      534.72   538.66   542.21   551.78   555.39   571.55
eigval :      576.25   584.76   585.64   589.70   594.04   596.58
eigval :      623.48   625.33   627.31   629.69   638.18   643.37
eigval :      656.83   666.84   667.34   668.62   671.90   681.18
eigval :      689.71   693.96   702.65   703.78   719.10   719.49
eigval :      726.83   729.65   735.56   745.49   754.44   757.26
eigval :      773.02   777.93   780.21   783.99   785.10   812.39
eigval :      816.23   817.74   820.33   824.19   825.86   840.09
eigval :      870.73   870.99   873.09   875.76   877.21   877.84
eigval :      879.27   892.99   895.03   903.23   905.49   908.60
eigval :      909.07   909.32   916.23   917.11   923.16   926.61
eigval :      927.90   928.09   928.89   932.22   934.56   938.52
eigval :      957.61   968.33   973.60   993.32  1001.12  1028.02
eigval :     1042.63  1070.67  1072.19  1075.30  1077.19  1081.66
eigval :     1089.42  1092.71  1115.68  1118.59  1120.87  1138.75
eigval :     1139.98  1147.36  1149.32  1158.96  1161.85  1171.26
eigval :     1174.35  1176.90  1179.19  1180.24  1183.84  1184.54
eigval :     1197.11  1198.15  1201.17  1208.50  1211.55  1220.76
eigval :     1232.07  1235.80  1238.20  1250.45  1253.91  1254.95
eigval :     1257.36  1276.67  1280.41  1280.64  1286.09  1297.04
eigval :     1304.05  1312.45  1317.40  1322.78  1323.60  1335.17
eigval :     1337.19  1339.30  1343.95  1350.15  1364.47  1370.47
eigval :     1373.00  1389.77  1404.33  1409.42  1409.73  1413.11
eigval :     1417.10  1425.67  1426.95  1428.32  1432.47  1443.50
eigval :     1454.15  1457.05  1463.05  1468.43  1471.60  1478.79
eigval :     1488.43  1533.08  1534.65  1542.65  1545.11  1557.92
eigval :     1565.31  1567.14  1573.89  1575.89  1581.74  1583.91
eigval :     1591.39  1594.49  1595.89  1597.98  1600.52  2320.03
eigval :     2344.56  3069.80  3071.08  3073.53  3073.89  3077.30
eigval :     3077.94  3078.94  3079.45  3079.75  3083.24  3083.95
eigval :     3084.89  3086.03  3088.33  3089.03  3091.35  3092.13
eigval :     3093.88  3095.27  3095.28  3095.83  3096.25  3096.86
eigval :     3098.54  3098.76  3101.37  3104.49  3111.86  3112.80

   temp. (K)  partition function   enthalpy   heat capacity  entropy
                                   cal/mol     cal/K/mol   cal/K/mol   J/K/mol
 298.15  VIB  0.239E+23            28489.660    180.622    177.982
         ROT  0.186E+09              888.752      2.981     40.821
         INT  0.444E+31            29378.413    183.602    218.803
         TR   0.225E+29             1481.254      4.968     45.954
         TOT                       30859.6665   188.5706   264.7577  1107.7462

       T/K    H(0)-H(T)+PV         H(T)/Eh          T*S/Eh         G(T)/Eh
   ------------------------------------------------------------------------
    298.15    0.491780E-01    0.713589E+00    0.125795E+00    0.587794E+00
   ------------------------------------------------------------------------

         :::::::::::::::::::::::::::::::::::::::::::::::::::::
         ::                  THERMODYNAMIC                  ::
         :::::::::::::::::::::::::::::::::::::::::::::::::::::
         :: total free energy        -154.160876775265 Eh   ::
         ::.................................................::
         :: total energy             -154.748670785674 Eh   ::
         :: zero point energy           0.664410920602 Eh   ::
         :: G(RRHO) w/o ZPVE           -0.076616910194 Eh   ::
         :: G(RRHO) contrib.            0.587794010408 Eh   ::
         :::::::::::::::::::::::::::::::::::::::::::::::::::::

           -------------------------------------------------
          | TOTAL ENERGY             -154.748670785674 Eh   |
          | TOTAL ENTHALPY           -154.035081856251 Eh   |
          | TOTAL FREE ENERGY        -154.160876775265 Eh   |
          | GRADIENT NORM               0.000044549365 Eh/α |
          | HOMO-LUMO GAP               0.072216089420 eV   |
           -------------------------------------------------

 * finished run on 2025/08/22 at 11:48:45.775
