   * xtb version 6.7.1 (edcfbbe) compiled by 'albert@albert-system' on 2024-07-22

   ID    Z sym.   atoms
    1    7 N      1, 6, 9, 14, 19
    2    6 C      2-5, 7, 8, 10-13, 15-18, 20-49, 51-63
    3   16 S      50
    4    1 H      64-92

          program call               : xtb data2507/toluene/ANQDC-PSTA/ANQDC-PSTA_toluene_S0_crest.xyz --gfn 2 --gbsa toluene --ohess vtight --parallel 40 --molden --ceasefiles --namespace data2507/toluene/ANQDC-PSTA/ANQDC-PSTA_toluene_S0_finalOpt
      * Solvation model:               GBSA
        Solvent                        toluene
        Solvent mass                       9.2140E+01 g/mol
          :  Hamiltonian                  GFN2-xTB          :
 * total energy  :  -154.7936511 Eh     change       -0.3759112E-08 Eh
 * total energy  :  -154.7936950 Eh     change       -0.4385520E-04 Eh
 * total energy  :  -154.7937004 Eh     change       -0.5400162E-05 Eh
 * total energy  :  -154.7936887 Eh     change        0.1171088E-04 Eh
 * total energy  :  -154.7937101 Eh     change       -0.2139669E-04 Eh
 * total energy  :  -154.7936145 Eh     change        0.9558672E-04 Eh
 * total energy  :  -154.7937079 Eh     change       -0.9345339E-04 Eh
 * total energy  :  -154.7937192 Eh     change       -0.1128590E-04 Eh
 * total energy  :  -154.7937240 Eh     change       -0.4767404E-05 Eh
 * total energy  :  -154.7937269 Eh     change       -0.2876753E-05 Eh
 * total energy  :  -154.7937575 Eh     change       -0.1898250E-06 Eh
 * total energy  :  -154.7937577 Eh     change       -0.1938526E-06 Eh
 * total energy  :  -154.7937579 Eh     change       -0.1699372E-06 Eh
 * total energy  :  -154.7937579 Eh     change        0.9129906E-08 Eh
 * total energy  :  -154.7937580 Eh     change       -0.1197741E-06 Eh
 * total energy  :  -154.7937582 Eh     change       -0.1485942E-06 Eh
 * total energy  :  -154.7937584 Eh     change       -0.2412797E-06 Eh
 * total energy  :  -154.7937584 Eh     change        0.1114319E-07 Eh
 * total energy  :  -154.7937584 Eh     change       -0.1203000E-07 Eh
   *** GEOMETRY OPTIMIZATION CONVERGED AFTER 45 ITERATIONS ***

 final structure:
================
92
 xtb: 6.7.1 (edcfbbe)
N           11.54362248839259       -1.35454960558247        1.72350632826119
C           10.49629287015114       -1.34569577526088        1.25645210031696
C            9.19963485172343       -1.33107510781240        0.69317691387209
C            8.13153074692486       -0.85398406643904        1.42260121694124
C            6.84354917735488       -0.83962712607279        0.86414683656903
N            5.81483027744156       -0.36177742422846        1.61229616687124
C            4.64766872008158       -0.37333418571596        1.03614412511537
C            4.44474752296747       -0.87059237111524       -0.32058983671302
N            5.42159521114451       -1.33367478872442       -1.05014544288144
C            6.64613202609599       -1.32290943124387       -0.46524035411885
C            7.74575743655492       -1.80430059054706       -1.19550311248015
C            9.00372041249983       -1.81121103636222       -0.63310866390450
C           10.10930683237058       -2.29581831171729       -1.36986780556655
N           10.99892307774971       -2.69032812412329       -1.97634794513230
C            3.03877431607717       -0.74516115005976       -0.63634846411246
C            2.25275073948212       -1.02625020124553       -1.73140661958746
C            0.88330633325946       -0.74884074296624       -1.65468161348894
C            0.28279804348542       -0.19481451191478       -0.53363488028286
N           -1.10341266201802        0.04286389520192       -0.50242378584541
C           -1.98804049517493       -1.03993145516163       -0.52804895999764
C           -1.54385766992667       -2.33847867638707       -0.79113020988374
C           -2.42339706920767       -3.39868661764901       -0.84031315250786
C           -3.78597425318459       -3.21171587799691       -0.62121012789930
C           -4.73910638847553       -4.32611813397505       -0.70645389112399
C           -5.99113306886714       -4.14038029542856       -1.29049601171167
C           -6.88770012219398       -5.18876405015352       -1.38301719299644
C           -6.55211698083404       -6.43910022947785       -0.88971736782143
C           -5.31253026537186       -6.63399713952105       -0.30294319225986
C           -4.41241006658149       -5.58817612680211       -0.21392419260492
C           -4.21573095954711       -1.92863151311820       -0.30446440633897
C           -3.34304043710601       -0.85480026924162       -0.24442471827886
C           -3.88053800144437        0.47552360579010        0.21602322320623
C           -5.20427693602587        0.79640620873706       -0.45153438175116
C           -5.45735873063505        0.98704595226124       -1.79232836723785
C           -6.75882964601779        1.26900961006180       -2.18775447964928
C           -7.78093808360490        1.35615836780717       -1.25427829158297
C           -7.53054931136769        1.16470062457566        0.09580970145113
C           -6.23421432937252        0.88444009708640        0.49615728273208
C           -5.67101690887825        0.63463780596739        1.81524747413466
C           -6.26149222905044        0.60912739481866        3.06808455569577
C           -5.46875486808073        0.32973498300436        4.17041529490643
C           -4.11383030841780        0.07322486118181        4.02571390540407
C           -3.51699067565602        0.09721646590718        2.77178030432524
C           -4.29854467820151        0.38560007810981        1.67516136807938
C           -2.89400615272050        1.59774537617337        0.01278335523379
C           -3.35080029755053        2.90098043486437        0.19684086738490
C           -2.53477148570672        3.98836271716051       -0.00582093353183
C           -1.23039879504839        3.77578319473034       -0.44104318270996
C           -0.75673882555062        2.46520269292159       -0.61589203973759
S            0.89358861327980        2.45983132797745       -1.23750204828514
C            0.94265408085854        4.20613613329995       -1.25002849964173
C            2.01711278691490        4.98387855184684       -1.64920296684300
C            1.88920946162392        6.35823591743575       -1.58579412579684
C            0.70945143595727        6.94184619558710       -1.13176358604012
C           -0.35811516980499        6.16262775616853       -0.73509720582703
C           -0.25305135328975        4.77499690350622       -0.78971134392191
C           -1.56816014510023        1.34860421399416       -0.35233683940979
C            1.07037565902445        0.11272998848953        0.61555496147158
C            0.64732890720569        0.66761362032851        1.84331547728655
C            1.55140255273201        0.89876395216142        2.85463345130789
C            2.92054020968430        0.60787174151157        2.73144775538664
C            3.36211364863510        0.05915399336658        1.55109212954976
C            2.43186468807141       -0.18282553328833        0.51215093824403
H            8.26508094065204       -0.48514222564993        2.42826388112937
H            7.58327699882032       -2.16557651445349       -2.19964036790456
H            2.67418108213399       -1.43744804049811       -2.63501435701530
H            0.26593192496939       -0.94527498940199       -2.51932470553826
H           -0.49570567956140       -2.53188912894627       -0.95173551156715
H           -2.04504591685830       -4.38301118504185       -1.07149320699057
H           -6.25330646033534       -3.17150982872978       -1.69127049249333
H           -7.85228188802741       -5.03121650872750       -1.84432801321962
H           -7.25360490815127       -7.25752395838815       -0.96173357949898
H           -5.04698231731317       -7.60576495083834        0.08849615515504
H           -3.45398873076989       -5.74391914244396        0.26000077830269
H           -5.25598353190471       -1.76111959012058       -0.06755693340078
H           -4.66201807496603        0.91872564484287       -2.52064673128661
H           -6.97713223420253        1.42132880448733       -3.23474592570735
H           -8.78597264061614        1.57575013242168       -1.58470095872677
H           -8.33046257304877        1.23285592478955        0.81812110168702
H           -7.31765830908699        0.80117003060017        3.18561543972126
H           -5.91277440940328        0.30700797734293        5.15516286455963
H           -3.51574925966387       -0.15016197090510        4.89715078018654
H           -2.46364698884096       -0.11668365341371        2.66244180568758
H           -4.37504859591810        3.04862514011828        0.50349967507259
H           -2.90145376979860        4.99072383554409        0.14399089248666
H            2.92708585936510        4.52095826057251       -1.99992235234979
H            2.71345752208653        6.98468169280444       -1.89227289924990
H            0.63143113684033        8.01807348636298       -1.09089335752979
H           -1.27023049153391        6.62025931476334       -0.38394755328263
H           -0.39205653776649        0.92300115628594        1.98698301677204
H            1.19885748950267        1.32527519419999        3.78201357322279
H            3.60018124786877        0.81225941892659        3.54387517154866

          :  Hamiltonian                  GFN2-xTB          :
         :: gradient norm              0.000114617434 Eh/a0 ::
         :: HOMO-LUMO gap              0.864771198342 eV    ::
         :: SCC energy              -157.711703993093 Eh    ::
         :: -> dispersion             -0.152657302015 Eh    ::
         :: -> Gsolv                  -0.068715629054 Eh    ::
         :: repulsion energy           2.917945590563 Eh    ::

    * Orbital Energies and Occupations

         #    Occupation            Energy/Eh            Energy/eV
      -------------------------------------------------------------
         1        2.0000           -0.7327187             -19.9383
       ...           ...                  ...                  ...
       132        2.0000           -0.4199157             -11.4265
       133        2.0000           -0.4151504             -11.2968
       134        2.0000           -0.4119767             -11.2105
       135        2.0000           -0.4103592             -11.1664
       136        2.0000           -0.4044158             -11.0047
       137        2.0000           -0.4036733             -10.9845
       138        2.0000           -0.4014745             -10.9247
       139        2.0000           -0.3998295             -10.8799
       140        2.0000           -0.3910846             -10.6420
       141        2.0000           -0.3844621             -10.4617
       142        2.0000           -0.3817707             -10.3885
       143        2.0000           -0.3767404             -10.2516
       144        2.0000           -0.3576382              -9.7318 (HOMO)
       145        0.0000           -0.3258586              -8.8671 (LUMO)
       146                         -0.3216739              -8.7532
       147                         -0.2958486              -8.0505
       148                         -0.2634192              -7.1680
       149                         -0.2620234              -7.1300
       150                         -0.2565394              -6.9808
       151                         -0.2554678              -6.9516
       152                         -0.2495425              -6.7904
       153                         -0.2363374              -6.4311
       154                         -0.2331894              -6.3454
       155                         -0.2319169              -6.3108
       ...                                ...                  ...
       286                          1.1615784              31.6082
      -------------------------------------------------------------
                  HL-Gap            0.0317796 Eh            0.8648 eV

     #   Z          covCN         q      C6AA      α(0)
     1   7 N        0.911    -0.239    26.255     7.411
     2   6 C        1.911     0.121    28.136     8.566
     3   6 C        2.974     0.022    27.502     8.602
     4   6 C        2.927    -0.028    28.694     8.785
     5   6 C        2.986     0.082    26.160     8.390
     6   7 N        1.838    -0.243    27.186     7.727
     7   6 C        3.058     0.093    25.882     8.343
     8   6 C        3.057     0.092    25.897     8.346
     9   7 N        1.838    -0.245    27.233     7.734
    10   6 C        2.985     0.083    26.136     8.386
    11   6 C        2.927    -0.028    28.702     8.786
    12   6 C        2.974     0.023    27.485     8.600
    13   6 C        1.911     0.121    28.131     8.566
    14   7 N        0.911    -0.238    26.233     7.408
    15   6 C        3.027    -0.011    28.267     8.721
    16   6 C        2.911    -0.014    28.368     8.734
    17   6 C        2.921    -0.036    28.898     8.815
    18   6 C        2.944     0.072    26.385     8.425
    19   7 N        2.749    -0.053    22.273     7.009
    20   6 C        2.923     0.055    26.777     8.486
    21   6 C        2.922    -0.058    29.433     8.897
    22   6 C        2.925    -0.036    28.898     8.816
    23   6 C        2.974     0.002    27.987     8.678
    24   6 C        2.976     0.010    27.795     8.648
    25   6 C        2.925    -0.035    28.860     8.810
    26   6 C        2.918    -0.030    28.760     8.794
    27   6 C        2.920    -0.032    28.806     8.801
    28   6 C        2.918    -0.031    28.766     8.795
    29   6 C        2.925    -0.035    28.876     8.812
    30   6 C        2.933    -0.039    28.979     8.828
    31   6 C        2.983    -0.005    28.134     8.701
    32   6 C        3.951     0.014    20.271     6.398
    33   6 C        3.056     0.001    27.941     8.669
    34   6 C        2.914    -0.033    28.811     8.802
    35   6 C        2.922    -0.032    28.792     8.799
    36   6 C        2.921    -0.032    28.804     8.801
    37   6 C        2.914    -0.034    28.856     8.809
    38   6 C        3.033     0.001    27.967     8.674
    39   6 C        3.033     0.002    27.959     8.673
    40   6 C        2.915    -0.034    28.841     8.806
    41   6 C        2.921    -0.032    28.803     8.801
    42   6 C        2.922    -0.032    28.803     8.801
    43   6 C        2.914    -0.034    28.851     8.808
    44   6 C        3.057     0.001    27.950     8.670
    45   6 C        2.986    -0.007    28.196     8.710
    46   6 C        2.924    -0.040    28.994     8.830
    47   6 C        2.915    -0.044    29.081     8.843
    48   6 C        3.115    -0.004    27.969     8.663
    49   6 C        2.995     0.016    27.651     8.626
    50  16 S        2.242    -0.133   146.657    20.382
    51   6 C        3.004     0.040    27.090     8.538
    52   6 C        2.936    -0.039    28.976     8.828
    53   6 C        2.924    -0.030    28.756     8.794
    54   6 C        2.918    -0.034    28.851     8.808
    55   6 C        2.918    -0.032    28.804     8.801
    56   6 C        3.111    -0.003    27.946     8.661
    57   6 C        2.930     0.050    26.877     8.502
    58   6 C        2.978     0.010    27.782     8.646
    59   6 C        2.918    -0.018    28.468     8.749
    60   6 C        2.919    -0.023    28.576     8.766
    61   6 C        2.912    -0.012    28.325     8.727
    62   6 C        3.027    -0.007    28.168     8.706
    63   6 C        3.140    -0.001    27.815     8.631
    64   1 H        0.926     0.073     2.053     2.241
    65   1 H        0.926     0.073     2.052     2.240
    66   1 H        0.926     0.066     2.131     2.283
    67   1 H        0.926     0.064     2.151     2.293
    68   1 H        0.926     0.038     2.476     2.461
    69   1 H        0.926     0.040     2.453     2.449
    70   1 H        0.926     0.031     2.567     2.506
    71   1 H        0.926     0.031     2.576     2.510
    72   1 H        0.926     0.030     2.580     2.512
    73   1 H        0.926     0.031     2.574     2.509
    74   1 H        0.926     0.033     2.551     2.497
    75   1 H        0.926     0.036     2.508     2.476
    76   1 H        0.926     0.027     2.630     2.536
    77   1 H        0.926     0.033     2.540     2.492
    78   1 H        0.926     0.034     2.537     2.491
    79   1 H        0.926     0.034     2.525     2.485
    80   1 H        0.926     0.035     2.515     2.480
    81   1 H        0.926     0.034     2.529     2.487
    82   1 H        0.926     0.034     2.526     2.485
    83   1 H        0.926     0.026     2.649     2.545
    84   1 H        0.926     0.040     2.453     2.449
    85   1 H        0.926     0.043     2.407     2.426
    86   1 H        0.926     0.036     2.499     2.472
    87   1 H        0.926     0.040     2.444     2.445
    88   1 H        0.926     0.040     2.444     2.445
    89   1 H        0.926     0.043     2.411     2.428
    90   1 H        0.926     0.051     2.304     2.374
    91   1 H        0.926     0.059     2.207     2.323
    92   1 H        0.926     0.063     2.168     2.303

molecular dipole:
                 x           y           z       tot (Debye)
 q only:       -4.819       1.094       0.493
   full:       -5.551       1.436       0.546      14.639

 projected vibrational frequencies (cm⁻¹)
eigval :       -0.00    -0.00     0.00     0.00     0.00     0.00
eigval :        8.95    10.76    18.45    23.09    26.84    33.30
eigval :       35.43    37.85    43.92    48.59    53.11    64.21
eigval :       69.73    80.89    85.21    86.59    96.52    99.91
eigval :      107.33   114.09   123.96   127.35   141.65   145.93
eigval :      155.00   158.39   175.67   188.32   189.77   194.68
eigval :      205.60   210.96   234.82   239.70   247.32   256.70
eigval :      277.50   283.75   290.26   301.64   313.04   318.34
eigval :      324.34   339.72   348.76   374.45   376.96   381.34
eigval :      384.94   389.73   391.05   405.53   412.28   418.42
eigval :      421.93   429.31   433.87   438.43   442.18   450.67
eigval :      460.33   461.60   481.14   483.50   489.69   492.51
eigval :      495.67   499.32   505.20   511.25   516.24   537.39
eigval :      539.44   539.88   558.43   559.67   560.84   569.21
eigval :      584.19   585.69   590.11   593.68   595.97   602.16
eigval :      625.40   628.74   631.12   646.10   650.01   661.62
eigval :      662.73   667.54   671.09   678.79   680.75   685.86
eigval :      688.90   701.23   706.98   728.05   731.01   735.74
eigval :      737.51   739.39   748.58   754.13   759.56   762.41
eigval :      771.34   780.44   785.29   785.98   800.96   815.70
eigval :      821.76   825.42   841.04   847.73   852.94   866.37
eigval :      867.39   877.03   877.24   878.78   885.19   894.16
eigval :      895.85   899.45   903.49   906.16   910.08   910.24
eigval :      912.68   914.74   924.22   924.61   925.87   927.81
eigval :      928.95   931.21   933.39   934.70   937.01   949.98
eigval :      972.48   994.01  1004.54  1032.17  1045.37  1072.59
eigval :     1074.19  1075.86  1078.36  1083.50  1093.70  1099.28
eigval :     1105.19  1115.41  1121.74  1123.11  1137.15  1141.44
eigval :     1142.55  1149.83  1160.45  1169.73  1173.86  1177.16
eigval :     1182.19  1183.49  1185.53  1187.22  1189.31  1190.59
eigval :     1201.11  1202.17  1213.04  1224.74  1231.75  1234.89
eigval :     1237.84  1241.77  1251.11  1257.53  1261.08  1261.65
eigval :     1276.73  1282.31  1282.61  1284.71  1288.62  1315.13
eigval :     1317.03  1324.23  1326.33  1333.31  1334.41  1338.00
eigval :     1339.31  1351.73  1365.09  1366.90  1376.01  1391.39
eigval :     1403.45  1407.51  1413.03  1419.20  1422.41  1427.23
eigval :     1429.13  1435.29  1440.85  1443.95  1459.31  1462.20
eigval :     1464.29  1469.59  1470.68  1473.17  1498.73  1526.70
eigval :     1550.51  1556.17  1557.51  1565.34  1572.83  1574.62
eigval :     1581.38  1584.71  1585.17  1588.54  1590.54  1595.18
eigval :     1596.57  1600.14  1601.82  1603.29  1606.82  2365.58
eigval :     2367.25  3066.10  3068.26  3069.91  3070.20  3073.25
eigval :     3074.00  3076.60  3079.22  3079.66  3080.88  3081.98
eigval :     3084.18  3084.32  3087.15  3087.80  3088.33  3088.93
eigval :     3090.15  3090.91  3091.13  3093.96  3094.23  3098.17
eigval :     3100.94  3101.23  3105.01  3106.91  3108.94  3111.70

   temp. (K)  partition function   enthalpy   heat capacity  entropy
                                   cal/mol     cal/K/mol   cal/K/mol   J/K/mol
 298.15  VIB  0.359E+22            28225.237    178.733    174.798
         ROT  0.183E+09              888.752      2.981     40.793
         INT  0.659E+30            29113.990    181.714    215.591
         TR   0.225E+29             1481.254      4.968     45.954
         TOT                       30595.2435   186.6824   261.5451  1094.3048

       T/K    H(0)-H(T)+PV         H(T)/Eh          T*S/Eh         G(T)/Eh
   ------------------------------------------------------------------------
    298.15    0.487566E-01    0.717740E+00    0.124269E+00    0.593472E+00
   ------------------------------------------------------------------------

         :::::::::::::::::::::::::::::::::::::::::::::::::::::
         ::                  THERMODYNAMIC                  ::
         :::::::::::::::::::::::::::::::::::::::::::::::::::::
         :: total free energy        -154.200286761093 Eh   ::
         ::.................................................::
         :: total energy             -154.793758402149 Eh   ::
         :: zero point energy           0.668983543122 Eh   ::
         :: G(RRHO) w/o ZPVE           -0.075511902066 Eh   ::
         :: G(RRHO) contrib.            0.593471641056 Eh   ::
         :::::::::::::::::::::::::::::::::::::::::::::::::::::

           -------------------------------------------------
          | TOTAL ENERGY             -154.793758402149 Eh   |
          | TOTAL ENTHALPY           -154.076018235063 Eh   |
          | TOTAL FREE ENERGY        -154.200286761093 Eh   |
          | GRADIENT NORM               0.000114580260 Eh/α |
          | HOMO-LUMO GAP               0.864765922371 eV   |
           -------------------------------------------------

 * finished run on 2025/08/22 at 11:37:52.307
