   * xtb version 6.7.1 (edcfbbe) compiled by 'albert@albert-system' on 2024-07-22

   ID    Z sym.   atoms
    1    7 N      1, 6, 9, 14, 19
    2    6 C      2-5, 7, 8, 10-13, 15-18, 20-49, 51-63
    3   16 S      50
    4    1 H      64-92

          program call               : xtb data2507/toluene/ANQDC-PSTA/ANQDC-PSTA.xyz --gfn 2 --gbsa toluene --ohess vtight --parallel 40 --molden --ceasefiles --namespace data2507/toluene/ANQDC-PSTA/ANQDC-PSTA_toluene_S0_preOpt
      * Solvation model:               GBSA
        Solvent                        toluene
        Solvent mass                       9.2140E+01 g/mol
          :  Hamiltonian                  GFN2-xTB          :
 * total energy  :  -154.7527440 Eh     change       -0.5989847E-08 Eh
 * total energy  :  -154.7770884 Eh     change       -0.2434434E-01 Eh
 * total energy  :  -154.7868497 Eh     change       -0.9761344E-02 Eh
 * total energy  :  -154.7901244 Eh     change       -0.3274646E-02 Eh
 * total energy  :  -154.7914331 Eh     change       -0.1308780E-02 Eh
 * total energy  :  -154.7906564 Eh     change        0.7767038E-03 Eh
 * total energy  :  -154.7920936 Eh     change       -0.1437166E-02 Eh
 * total energy  :  -154.7922517 Eh     change       -0.1580990E-03 Eh
 * total energy  :  -154.7924043 Eh     change       -0.1526096E-03 Eh
 * total energy  :  -154.7924249 Eh     change       -0.2060030E-04 Eh
 * total energy  :  -154.7929655 Eh     change       -0.1808090E-05 Eh
 * total energy  :  -154.7929677 Eh     change       -0.2132678E-05 Eh
 * total energy  :  -154.7929699 Eh     change       -0.2180907E-05 Eh
 * total energy  :  -154.7929715 Eh     change       -0.1615527E-05 Eh
 * total energy  :  -154.7929732 Eh     change       -0.1763829E-05 Eh
 * total energy  :  -154.7929751 Eh     change       -0.1881199E-05 Eh
 * total energy  :  -154.7929777 Eh     change       -0.2560781E-05 Eh
 * total energy  :  -154.7929812 Eh     change       -0.3471217E-05 Eh
 * total energy  :  -154.7929812 Eh     change       -0.3066219E-08 Eh
   *** GEOMETRY OPTIMIZATION CONVERGED AFTER 68 ITERATIONS ***

 final structure:
================
92
 xtb: 6.7.1 (edcfbbe)
N           12.20174948352331       -2.48551391073390        1.03809196446129
C           11.15404420254056       -2.25930718125421        0.63092456665339
C            9.85713695733103       -1.97840242553024        0.14151944276956
C            8.82118947436292       -1.74020377485996        1.01854835906859
C            7.53281936192664       -1.46492171465490        0.53168877768856
N            6.53314949774397       -1.24383886983375        1.42410628451918
C            5.36291918373399       -0.99740008052669        0.90964785549540
C            5.13164063375192       -0.95433487567650       -0.52980302392720
N            6.07847511806719       -1.16683235611381       -1.39795190433795
C            7.30513253593355       -1.42944335505329       -0.87732132405055
C            8.37206031662071       -1.67409391611367       -1.75761108315753
C            9.62953240171062       -1.94628940288754       -1.26379061476224
C           10.70471120441394       -2.19674017881759       -2.14805148365275
N           11.57047461356610       -2.39924942502813       -2.87189093283862
C            3.73010416108652       -0.64956181248576       -0.74958337183233
C            2.92944835597421       -0.47646719155828       -1.85356095327538
C            1.57521429435684       -0.17069390607221       -1.64807305067837
C            1.02047076353286       -0.02912996436367       -0.38996988624109
N           -0.36201760453185        0.26042504527766       -0.25523499780707
C           -1.23401317738995       -0.82420064105958       -0.22159418520730
C           -0.74028084814129       -2.13012991708923       -0.28606646911424
C           -1.59179670288567       -3.21356364537260       -0.26449882314936
C           -2.97130354670233       -3.03927209497151       -0.17897137302331
C           -3.88847045624396       -4.18676165550775       -0.18342656195424
C           -5.09497050291073       -4.12686234573207       -0.87938058838262
C           -5.95415960277104       -5.20992714131857       -0.89544320891066
C           -5.62618217846737       -6.37108441083062       -0.21477905694734
C           -4.43134737515195       -6.44141339100443        0.48256921637433
C           -3.56952254824398       -5.36036017185283        0.49757732374404
C           -3.45523850459558       -1.73761055245977       -0.10307950516180
C           -2.61284575375231       -0.63907956290475       -0.12187697100515
C           -3.21875321767550        0.73938407067019       -0.04630278757892
C           -4.22004972906449        0.93052013691532       -1.17217175289645
C           -3.98675759348008        0.93229833918600       -2.52974161066068
C           -5.06343567894092        1.11648531957873       -3.38778124944682
C           -6.34554173510779        1.29308600726644       -2.88949608566763
C           -6.58482205233169        1.29143780910643       -1.52405882146661
C           -5.51433379579278        1.10982725430752       -0.66363437419909
C           -5.45036742894533        1.06748242133538        0.79029882536011
C           -6.44036801881297        1.19943205716083        1.75033795123600
C           -6.08235308881590        1.12404960461878        3.08743955668197
C           -4.76249466379491        0.91937831017599        3.46017256600713
C           -3.76649638878002        0.78476006342674        2.50149707429541
C           -4.11705821673319        0.85995974325055        1.17168642073805
C           -2.18300285420897        1.83732067025104       -0.06074774169316
C           -2.65039486566114        3.14604132443764        0.02714942710522
C           -1.79659048562219        4.22346969932995        0.01603492776693
C           -0.42878906627715        3.99158979856772       -0.08497131642471
C            0.05351171765920        2.67509513714849       -0.17464383575798
S            1.81508219084887        2.65009039954219       -0.29392261171143
C            1.89179459910932        4.39346696159462       -0.22088843825425
C            3.04746330866039        5.15569283387813       -0.26494726769794
C            2.92720519803967        6.53049360096914       -0.19861296438690
C            1.67472505379519        7.12914009693456       -0.09189579012281
C            0.52646171534850        6.36495577774124       -0.04806879639195
C            0.62190775982222        4.97705148125991       -0.11297779933306
C           -0.81326713673532        1.57039956553316       -0.16537963738622
C            1.81557399752666       -0.22343777190826        0.77318028229705
C            1.41829565874551       -0.13854055877276        2.12562754826412
C            2.33443929663170       -0.34032772340108        3.13167420183949
C            3.68719021075147       -0.63352437237763        2.88235461802062
C            4.10215596483395       -0.72521561934403        1.57509636272215
C            3.15945857089371       -0.52314824538023        0.53941503923310
H            8.97903657001850       -1.76228525239840        2.08614809437649
H            8.18449001886880       -1.64600035968583       -2.82025688597367
H            3.32130304328275       -0.56667888582349       -2.85422976000932
H            0.93554264301105       -0.02888729234320       -2.50721591207702
H            0.32251610642996       -2.30080604039709       -0.36071143598322
H           -1.17829261408979       -4.20806424743391       -0.33996641423999
H           -5.34944640414917       -3.23151909211930       -1.42863987732348
H           -6.88296998540468       -5.15008617009072       -1.44487171733575
H           -6.29806674929930       -7.21692507137126       -0.22811117128404
H           -4.17147259796623       -7.34295684367445        1.01911933689884
H           -2.64763518557523       -5.41773181525651        1.05814388389705
H           -4.51834768141149       -1.57037555337106       -0.01109033799767
H           -2.98871316992695        0.79439432339166       -2.92038218862666
H           -4.90001192551881        1.12197194998216       -4.45567320720668
H           -7.16840714523070        1.43380913124543       -3.57556976413116
H           -7.58522866353186        1.42927160691221       -1.14123705727954
H           -7.46972758494254        1.35904032764885        1.46513335521068
H           -6.84129446809056        1.22577103075411        3.84980201189211
H           -4.50586211884559        0.86461916161453        4.50813661264178
H           -2.73928015479396        0.62532184261056        2.79529050753306
H           -3.71534838094431        3.30629801727135        0.10348427931515
H           -2.17451525604316        5.23063670482422        0.08308188933955
H            4.01295661335301        4.67999751752320       -0.34903735040557
H            3.81428409194109        7.14523266715475       -0.23128378278490
H            1.60380618775899        8.20551752392045       -0.04243489200586
H           -0.44162287467842        6.83481719381578        0.03474350177018
H            0.39041771305221        0.08861592805659        2.36445143333448
H            2.00798506456421       -0.26960125674067        4.15856730522093
H            4.37539392393522       -0.77984941258832        3.70017120146076

          :  Hamiltonian                  GFN2-xTB          :
         :: gradient norm              0.000193252679 Eh/a0 ::
         :: HOMO-LUMO gap              0.680025620901 eV    ::
         :: SCC energy              -157.712264722803 Eh    ::
         :: -> dispersion             -0.151760402732 Eh    ::
         :: -> Gsolv                  -0.068517131117 Eh    ::
         :: repulsion energy           2.919283566409 Eh    ::

    * Orbital Energies and Occupations

         #    Occupation            Energy/Eh            Energy/eV
      -------------------------------------------------------------
         1        2.0000           -0.7314129             -19.9028
       ...           ...                  ...                  ...
       132        2.0000           -0.4190399             -11.4027
       133        2.0000           -0.4149256             -11.2907
       134        2.0000           -0.4109681             -11.1830
       135        2.0000           -0.4108615             -11.1801
       136        2.0000           -0.4036883             -10.9849
       137        2.0000           -0.4033094             -10.9746
       138        2.0000           -0.4006032             -10.9010
       139        2.0000           -0.3993266             -10.8662
       140        2.0000           -0.3896338             -10.6025
       141        2.0000           -0.3834797             -10.4350
       142        2.0000           -0.3805016             -10.3540
       143        2.0000           -0.3795723             -10.3287
       144        2.0000           -0.3536553              -9.6234 (HOMO)
       145        0.0000           -0.3286649              -8.9434 (LUMO)
       146                         -0.3245499              -8.8315
       147                         -0.2979700              -8.1082
       148                         -0.2649112              -7.2086
       149                         -0.2612274              -7.1084
       150                         -0.2583903              -7.0312
       151                         -0.2553295              -6.9479
       152                         -0.2479757              -6.7478
       153                         -0.2347004              -6.3865
       154                         -0.2346711              -6.3857
       155                         -0.2299524              -6.2573
       ...                                ...                  ...
       286                          1.1605538              31.5803
      -------------------------------------------------------------
                  HL-Gap            0.0249904 Eh            0.6800 eV

     #   Z          covCN         q      C6AA      α(0)
     1   7 N        0.911    -0.236    26.169     7.399
     2   6 C        1.911     0.121    28.128     8.565
     3   6 C        2.974     0.024    27.458     8.595
     4   6 C        2.927    -0.027    28.674     8.782
     5   6 C        2.986     0.083    26.144     8.387
     6   7 N        1.838    -0.238    27.079     7.712
     7   6 C        3.057     0.093    25.884     8.343
     8   6 C        3.056     0.093    25.873     8.342
     9   7 N        1.838    -0.238    27.076     7.711
    10   6 C        2.985     0.083    26.146     8.388
    11   6 C        2.927    -0.027    28.673     8.781
    12   6 C        2.974     0.024    27.458     8.595
    13   6 C        1.911     0.121    28.128     8.565
    14   7 N        0.911    -0.236    26.170     7.399
    15   6 C        3.025    -0.007    28.157     8.704
    16   6 C        2.911    -0.012    28.310     8.725
    17   6 C        2.922    -0.031    28.780     8.797
    18   6 C        2.951     0.077    26.284     8.409
    19   7 N        2.750    -0.063    22.463     7.039
    20   6 C        2.929     0.056    26.748     8.482
    21   6 C        2.922    -0.058    29.432     8.897
    22   6 C        2.925    -0.037    28.908     8.817
    23   6 C        2.974    -0.001    28.040     8.686
    24   6 C        2.976     0.010    27.798     8.648
    25   6 C        2.925    -0.035    28.867     8.811
    26   6 C        2.918    -0.031    28.766     8.795
    27   6 C        2.920    -0.033    28.819     8.803
    28   6 C        2.918    -0.031    28.774     8.796
    29   6 C        2.925    -0.036    28.887     8.814
    30   6 C        2.932    -0.039    28.978     8.828
    31   6 C        2.983    -0.006    28.173     8.707
    32   6 C        3.951     0.014    20.274     6.398
    33   6 C        3.057     0.001    27.946     8.669
    34   6 C        2.914    -0.033    28.830     8.805
    35   6 C        2.922    -0.032    28.803     8.801
    36   6 C        2.921    -0.033    28.814     8.803
    37   6 C        2.914    -0.035    28.860     8.809
    38   6 C        3.033     0.001    27.971     8.675
    39   6 C        3.033     0.001    27.972     8.675
    40   6 C        2.914    -0.034    28.858     8.809
    41   6 C        2.921    -0.033    28.810     8.802
    42   6 C        2.922    -0.032    28.802     8.801
    43   6 C        2.914    -0.033    28.821     8.803
    44   6 C        3.056     0.001    27.949     8.670
    45   6 C        2.985    -0.010    28.263     8.721
    46   6 C        2.925    -0.040    28.990     8.830
    47   6 C        2.914    -0.047    29.156     8.854
    48   6 C        3.115    -0.005    27.982     8.665
    49   6 C        2.994     0.014    27.691     8.632
    50  16 S        2.245    -0.144   147.108    20.414
    51   6 C        3.004     0.041    27.078     8.536
    52   6 C        2.936    -0.040    28.985     8.830
    53   6 C        2.924    -0.031    28.769     8.796
    54   6 C        2.918    -0.035    28.861     8.810
    55   6 C        2.918    -0.033    28.813     8.802
    56   6 C        3.111    -0.003    27.948     8.661
    57   6 C        2.925     0.052    26.841     8.496
    58   6 C        2.978     0.013    27.716     8.636
    59   6 C        2.917    -0.015    28.393     8.738
    60   6 C        2.919    -0.021    28.526     8.758
    61   6 C        2.912    -0.011    28.286     8.721
    62   6 C        3.025    -0.006    28.133     8.700
    63   6 C        3.141    -0.001    27.805     8.629
    64   1 H        0.926     0.075     2.028     2.227
    65   1 H        0.926     0.075     2.029     2.228
    66   1 H        0.926     0.070     2.088     2.260
    67   1 H        0.926     0.063     2.167     2.302
    68   1 H        0.926     0.028     2.608     2.525
    69   1 H        0.926     0.037     2.487     2.466
    70   1 H        0.926     0.030     2.582     2.513
    71   1 H        0.926     0.030     2.586     2.515
    72   1 H        0.926     0.030     2.587     2.515
    73   1 H        0.926     0.030     2.581     2.512
    74   1 H        0.926     0.032     2.557     2.501
    75   1 H        0.926     0.034     2.532     2.488
    76   1 H        0.926     0.026     2.650     2.546
    77   1 H        0.926     0.033     2.547     2.496
    78   1 H        0.926     0.033     2.542     2.493
    79   1 H        0.926     0.034     2.530     2.487
    80   1 H        0.926     0.034     2.532     2.488
    81   1 H        0.926     0.033     2.541     2.493
    82   1 H        0.926     0.033     2.538     2.491
    83   1 H        0.926     0.025     2.655     2.548
    84   1 H        0.926     0.036     2.500     2.473
    85   1 H        0.926     0.040     2.454     2.450
    86   1 H        0.926     0.035     2.512     2.478
    87   1 H        0.926     0.040     2.454     2.450
    88   1 H        0.926     0.039     2.458     2.452
    89   1 H        0.926     0.041     2.432     2.439
    90   1 H        0.926     0.055     2.254     2.348
    91   1 H        0.926     0.063     2.165     2.301
    92   1 H        0.926     0.066     2.130     2.282

molecular dipole:
                 x           y           z       tot (Debye)
 q only:       -3.965       0.903       0.823
   full:       -4.720       1.291       0.898      12.645

 projected vibrational frequencies (cm⁻¹)
eigval :       -0.00    -0.00     0.00     0.00     0.00     0.00
eigval :       -7.17     7.39     9.18    19.58    25.97    32.29
eigval :       35.61    39.09    41.90    49.14    52.65    62.78
eigval :       64.29    79.11    85.36    87.83    93.91    99.68
eigval :      105.10   110.39   116.18   127.48   140.08   143.64
eigval :      144.80   155.39   165.99   179.54   189.98   194.25
eigval :      208.13   211.94   232.52   238.14   242.19   248.11
eigval :      277.24   285.08   290.77   299.15   309.21   318.19
eigval :      324.93   340.31   344.72   373.76   376.36   377.54
eigval :      380.07   386.00   389.45   408.12   412.20   413.02
eigval :      424.77   426.86   429.55   436.13   443.71   450.08
eigval :      457.92   461.72   481.44   484.22   488.27   492.25
eigval :      495.24   498.41   505.91   510.37   519.19   536.68
eigval :      538.76   541.48   554.62   558.02   560.64   569.20
eigval :      583.90   584.86   590.25   591.02   594.10   601.96
eigval :      625.37   627.80   630.42   646.10   651.88   662.89
eigval :      663.49   665.62   671.28   676.94   682.09   683.79
eigval :      689.95   700.25   707.24   728.10   730.85   735.72
eigval :      737.76   740.92   747.22   754.55   757.66   761.79
eigval :      772.86   778.80   783.37   786.04   800.67   815.43
eigval :      817.47   821.75   836.44   843.06   854.62   870.35
eigval :      874.18   874.89   875.53   876.58   881.32   892.89
eigval :      894.87   897.77   901.15   903.64   906.04   906.51
eigval :      907.66   910.87   913.21   923.83   924.70   926.02
eigval :      926.62   927.28   930.33   931.23   936.25   949.43
eigval :      972.89   994.46  1004.64  1029.70  1045.17  1071.48
eigval :     1072.91  1075.19  1077.90  1083.69  1092.69  1097.88
eigval :     1103.57  1113.32  1120.86  1122.35  1137.55  1140.95
eigval :     1141.50  1149.90  1158.74  1168.23  1175.12  1177.76
eigval :     1178.73  1179.46  1181.20  1183.83  1187.22  1188.64
eigval :     1202.07  1202.22  1210.46  1221.99  1229.18  1234.94
eigval :     1237.57  1242.10  1247.91  1257.40  1260.40  1262.32
eigval :     1280.90  1282.64  1283.13  1285.67  1287.67  1316.05
eigval :     1317.73  1324.56  1329.63  1334.14  1335.42  1339.35
eigval :     1344.24  1350.07  1365.53  1367.82  1379.22  1388.76
eigval :     1404.96  1407.55  1412.00  1419.63  1427.77  1428.19
eigval :     1429.20  1434.02  1444.31  1445.98  1459.62  1463.57
eigval :     1467.29  1469.92  1474.89  1476.58  1501.88  1533.19
eigval :     1552.77  1558.89  1561.49  1567.26  1575.10  1577.28
eigval :     1580.98  1584.85  1585.85  1591.06  1592.29  1595.49
eigval :     1600.27  1600.41  1602.64  1603.48  1607.34  2367.30
eigval :     2368.65  3065.26  3066.72  3069.48  3069.79  3073.04
eigval :     3074.14  3075.15  3078.36  3078.47  3080.28  3081.37
eigval :     3083.11  3084.38  3086.88  3086.99  3087.62  3088.24
eigval :     3088.46  3089.80  3090.33  3090.60  3097.56  3097.93
eigval :     3099.47  3101.37  3101.51  3105.43  3106.42  3107.66

   temp. (K)  partition function   enthalpy   heat capacity  entropy
                                   cal/mol     cal/K/mol   cal/K/mol   J/K/mol
 298.15  VIB  0.240E+23            28368.450    178.836    177.278
         ROT  0.186E+09              888.752      2.981     40.818
         INT  0.446E+31            29257.202    181.817    218.096
         TR   0.225E+29             1481.254      4.968     45.954
         TOT                       30738.4564   186.7853   264.0507  1104.7883

       T/K    H(0)-H(T)+PV         H(T)/Eh          T*S/Eh         G(T)/Eh
   ------------------------------------------------------------------------
    298.15    0.489848E-01    0.717504E+00    0.125459E+00    0.592045E+00
   ------------------------------------------------------------------------

         :::::::::::::::::::::::::::::::::::::::::::::::::::::
         ::                  THERMODYNAMIC                  ::
         :::::::::::::::::::::::::::::::::::::::::::::::::::::
         :: total free energy        -154.200935803392 Eh   ::
         ::.................................................::
         :: total energy             -154.792981161175 Eh   ::
         :: zero point energy           0.668519533134 Eh   ::
         :: G(RRHO) w/o ZPVE           -0.076474175351 Eh   ::
         :: G(RRHO) contrib.            0.592045357784 Eh   ::
         :::::::::::::::::::::::::::::::::::::::::::::::::::::

           -------------------------------------------------
          | TOTAL ENERGY             -154.792981161175 Eh   |
          | TOTAL ENTHALPY           -154.075476779793 Eh   |
          | TOTAL FREE ENERGY        -154.200935803392 Eh   |
          | GRADIENT NORM               0.000193302456 Eh/α |
          | HOMO-LUMO GAP               0.680022894623 eV   |
           -------------------------------------------------

 * finished run on 2025/08/22 at 11:29:54.094
