   * xtb version 6.7.1 (edcfbbe) compiled by 'albert@albert-system' on 2024-07-22

   ID    Z sym.   atoms
    1    7 N      1, 6, 9, 14, 19
    2    6 C      2-5, 7, 8, 10-13, 15-18, 20-49, 51-63
    3   16 S      50
    4    1 H      64-92

          program call               : xtb data2507/toluene/ANQDC-PSTA/ANQDC-PSTA_toluene_S0_finalOpt.xtbopt.xyz --gfn 2 --uhf 2 --gbsa toluene --ohess vtight --parallel 40 --molden --ceasefiles --namespace data2507/toluene/ANQDC-PSTA/ANQDC-PSTA_toluene_T1_preOpt
      * Solvation model:               GBSA
        Solvent                        toluene
        Solvent mass                       9.2140E+01 g/mol
          :  Hamiltonian                  GFN2-xTB          :
 * total energy  :  -154.7446732 Eh     change       -0.2655753E-07 Eh
 * total energy  :  -154.7467298 Eh     change       -0.2056604E-02 Eh
 * total energy  :  -154.7474866 Eh     change       -0.7568459E-03 Eh
 * total energy  :  -154.7472227 Eh     change        0.2639372E-03 Eh
 * total energy  :  -154.7476296 Eh     change       -0.4069012E-03 Eh
 * total energy  :  -154.7475739 Eh     change        0.5565304E-04 Eh
 * total energy  :  -154.7476879 Eh     change       -0.1139584E-03 Eh
 * total energy  :  -154.7477111 Eh     change       -0.2320458E-04 Eh
 * total energy  :  -154.7477484 Eh     change       -0.3734882E-04 Eh
 * total energy  :  -154.7477671 Eh     change       -0.1869900E-04 Eh
 * total energy  :  -154.7484070 Eh     change       -0.6009031E-06 Eh
 * total energy  :  -154.7484077 Eh     change       -0.7841422E-06 Eh
 * total energy  :  -154.7484087 Eh     change       -0.9427006E-06 Eh
 * total energy  :  -154.7484096 Eh     change       -0.8711530E-06 Eh
 * total energy  :  -154.7484105 Eh     change       -0.9174314E-06 Eh
 * total energy  :  -154.7484115 Eh     change       -0.9934028E-06 Eh
 * total energy  :  -154.7484123 Eh     change       -0.8272413E-06 Eh
 * total energy  :  -154.7484131 Eh     change       -0.8272185E-06 Eh
 * total energy  :  -154.7484131 Eh     change       -0.2586063E-08 Eh
   *** GEOMETRY OPTIMIZATION CONVERGED AFTER 221 ITERATIONS ***

 final structure:
================
92
 xtb: 6.7.1 (edcfbbe)
N           11.58116277688968       -1.72272566810326        1.36380631289272
C           10.52591137506326       -1.62654101123010        0.91486163495720
C            9.23261132828043       -1.50664556457446        0.38278461414721
C            8.15875483166645       -1.17498432412649        1.20749381108013
C            6.87254147318331       -1.05268114261592        0.69027677861487
N            5.84007056116309       -0.72975606554789        1.49810214590188
C            4.65180329972802       -0.61999826305475        0.97523478158001
C            4.41919993220041       -0.83634455057386       -0.44216507808806
N            5.42393796537745       -1.15618875600155       -1.24231891709844
C            6.64369940202566       -1.27100720981004       -0.72235170248193
C            7.74054527283440       -1.60615099717289       -1.53617270504658
C            9.01110378001490       -1.72199803296314       -1.00181213805754
C           10.09780860836531       -2.05676019884524       -1.83492720122426
N           10.97576201856132       -2.32988000397647       -2.52335774823843
C            3.02936294203136       -0.63982768915721       -0.70470999327441
C            2.21377430055053       -0.70006228558739       -1.82534999616044
C            0.85478644684064       -0.42623937441529       -1.67134167837140
C            0.28473689517156       -0.08528261431117       -0.45147820422817
N           -1.11492605736095        0.15013469987409       -0.35560672838510
C           -1.95225043115526       -0.95039114539835       -0.31558991191578
C           -1.43559918520948       -2.24657047931752       -0.45860471557921
C           -2.26532697194177       -3.34265596293175       -0.46212384728903
C           -3.64877729228930       -3.19963864525549       -0.31926150957186
C           -4.54606433570707       -4.35773955290308       -0.36306431950467
C           -5.79004524680099       -4.26279513486510       -0.98862473517393
C           -6.63472134941520       -5.35517844809937       -1.04428132668715
C           -6.25754895955471       -6.55860015868203       -0.46962085970120
C           -5.02674481404727       -6.66342733964426        0.15850428025925
C           -4.17603161942144       -5.57517452771750        0.20903965411140
C           -4.15291472935007       -1.91508153083045       -0.13565352825225
C           -3.33278918925330       -0.80158242173066       -0.12677004181648
C           -3.94309092273508        0.54789955197564        0.12866872547218
C           -5.15977773693803        0.76673891630449       -0.75626465052840
C           -5.20630098356018        0.84378044379638       -2.13054045393473
C           -6.43927603568625        1.04115964252975       -2.73989152902723
C           -7.59539636389856        1.15488683141946       -1.98234350080719
C           -7.55114655539574        1.07753273615748       -0.59877203729179
C           -6.32451683564101        0.88320929601616        0.01523062305691
C           -5.96376952864722        0.76564094577900        1.42075131577577
C           -6.73796036553482        0.81590441254956        2.56847799079521
C           -6.11302825487742        0.67333927898353        3.79767418894140
C           -4.74242053826659        0.48123580776173        3.88190087946844
C           -3.96098269000394        0.42856762252881        2.73457343512073
C           -4.57857743171310        0.57356572595223        1.51268836293498
C           -2.95940133723288        1.67626372723897       -0.02088212604537
C           -3.44673556596994        2.97239966512817        0.09598387786433
C           -2.62453779260051        4.07005780908455       -0.03731112079001
C           -1.27511568656734        3.87288562390071       -0.30916637933253
C           -0.76349506513746        2.56777893209092       -0.41949117453086
S            0.95015281418163        2.57654327962360       -0.79882776988611
C            0.98293342645790        4.32423191542530       -0.80811437377662
C            2.09485857299143        5.11209129791959       -1.06002304362412
C            1.94442438361456        6.48496993480441       -1.02521455048799
C            0.70644916653393        7.05776674682161       -0.74328172075826
C           -0.39875806161371        6.26985486214567       -0.49371678677269
C           -0.27136470808504        4.88334068754636       -0.52414535377082
C           -1.59360321037644        1.44002755730656       -0.26242571130670
C            1.08063294131394       -0.03278698999478        0.72750474610690
C            0.67867724160216        0.27382734862984        2.04465168097960
C            1.60371600079608        0.29289611131069        3.06736175993722
C            2.96378176310628        0.01777678381334        2.86779506675738
C            3.38310722316472       -0.28873200560282        1.58955232188576
C            2.43487326260453       -0.30970357903060        0.54403599064787
H            8.31583297780288       -1.00882810177355        2.26238128173971
H            7.57149908386467       -1.76983310271364       -2.58949271222622
H            2.61272760940093       -0.95016522625476       -2.79546326627760
H            0.21216630346645       -0.46834971035014       -2.53940339351544
H           -0.37334807456654       -2.38911336392187       -0.57484180683406
H           -1.83857128660946       -4.32371447961210       -0.60279461016059
H           -6.08262826730743       -3.33420191807222       -1.45682795768569
H           -7.59108869619835       -5.26956567796420       -1.53962886302578
H           -6.91913862608229       -7.41132110528722       -0.51200422756407
H           -4.72998173508827       -7.59806351755275        0.61217073091791
H           -3.22674684217553       -5.66061454501156        0.71708738356818
H           -5.21113507062516       -1.77776816016610        0.02710664647164
H           -4.30735445249831        0.75423147082460       -2.72299686963796
H           -6.49706568516984        1.10555999790004       -3.81647247528006
H           -8.54325917215457        1.30670685919218       -2.47795969654092
H           -8.45403122225819        1.16701846495755       -0.01358136751287
H           -7.80587325293915        0.96294538310929        2.50863325801196
H           -6.70123929009505        0.71050032329757        4.70300619596559
H           -4.27609400488978        0.37052865907798        4.84979226400271
H           -2.89434455156922        0.27357268341527        2.80476816440423
H           -4.49844218815641        3.11127185495533        0.29325313790654
H           -3.01940066346172        5.06837600258981        0.05519423877909
H            3.04961473009292        4.65824891843228       -1.27769941169120
H            2.79638427025251        7.11905264496463       -1.21886560827401
H            0.61316116814702        8.13311356558351       -0.72127427896025
H           -1.35488911024748        6.72017679065605       -0.27680796036121
H           -0.35634487357431        0.50159145464473        2.25230730622861
H            1.27118083754048        0.53261576358578        4.06689023117621
H            3.65736513595771        0.04816428481407        3.69379682925789

          :  Hamiltonian                  GFN2-xTB          :
         :: gradient norm              0.000124570985 Eh/a0 ::
         :: HOMO-LUMO gap              0.068748166986 eV    ::
         :: SCC energy              -157.662485242916 Eh    ::
         :: -> dispersion             -0.151852344662 Eh    ::
         :: -> Gsolv                  -0.077135603531 Eh    ::
         :: repulsion energy           2.914072124091 Eh    ::

    * Orbital Energies and Occupations

         #    Occupation            Energy/Eh            Energy/eV
      -------------------------------------------------------------
         1        2.0000           -0.7412023             -20.1691
       ...           ...                  ...                  ...
       133        2.0000           -0.4192960             -11.4096
       134        2.0000           -0.4127053             -11.2303
       135        2.0000           -0.4102650             -11.1639
       136        2.0000           -0.4089230             -11.1274
       137        2.0000           -0.4084432             -11.1143
       138        2.0000           -0.4074830             -11.0882
       139        2.0000           -0.3991237             -10.8607
       140        2.0000           -0.3968618             -10.7992
       141        2.0000           -0.3911865             -10.6447
       142        2.0000           -0.3886022             -10.5744
       143        1.5213           -0.3664174              -9.9707
       144        1.4787           -0.3662551              -9.9663
       145        0.7908           -0.3131032              -8.5200 (HOMO)
       146        0.2092           -0.3105766              -8.4512 (LUMO)
       147                         -0.2820203              -7.6742
       148                         -0.2718509              -7.3974
       149                         -0.2614634              -7.1148
       150                         -0.2602121              -7.0807
       151                         -0.2466980              -6.7130
       152                         -0.2431259              -6.6158
       153                         -0.2424731              -6.5980
       154                         -0.2399877              -6.5304
       155                         -0.2365662              -6.4373
       156                         -0.2349115              -6.3923
       ...                                ...                  ...
       286                          1.1732397              31.9255
      -------------------------------------------------------------
                  HL-Gap            0.0025265 Eh            0.0688 eV

     #   Z          covCN         q      C6AA      α(0)
     1   7 N        0.911    -0.285    27.359     7.565
     2   6 C        1.911     0.114    28.301     8.592
     3   6 C        2.973     0.003    27.947     8.671
     4   6 C        2.925    -0.046    29.151     8.854
     5   6 C        2.962     0.081    26.192     8.394
     6   7 N        1.840    -0.230    26.881     7.684
     7   6 C        3.046     0.088    26.001     8.363
     8   6 C        3.042     0.066    26.494     8.442
     9   7 N        1.840    -0.235    27.002     7.701
    10   6 C        2.958     0.087    26.054     8.372
    11   6 C        2.926    -0.048    29.193     8.861
    12   6 C        2.972     0.014    27.700     8.633
    13   6 C        1.913     0.118    28.191     8.575
    14   7 N        0.911    -0.269    26.959     7.509
    15   6 C        3.033    -0.014    28.319     8.729
    16   6 C        2.910    -0.030    28.749     8.792
    17   6 C        2.918    -0.035    28.865     8.810
    18   6 C        2.962     0.040    27.099     8.538
    19   7 N        2.750    -0.012    21.491     6.885
    20   6 C        2.929     0.059    26.688     8.472
    21   6 C        2.920    -0.047    29.175     8.858
    22   6 C        2.923    -0.031    28.769     8.796
    23   6 C        2.974     0.014    27.690     8.632
    24   6 C        2.976     0.012    27.737     8.639
    25   6 C        2.925    -0.032    28.798     8.800
    26   6 C        2.918    -0.028    28.708     8.786
    27   6 C        2.920    -0.028    28.700     8.785
    28   6 C        2.918    -0.028    28.711     8.787
    29   6 C        2.924    -0.032    28.804     8.801
    30   6 C        2.930    -0.037    28.911     8.818
    31   6 C        2.982     0.003    27.944     8.671
    32   6 C        3.950     0.014    20.265     6.397
    33   6 C        3.056     0.002    27.925     8.666
    34   6 C        2.913    -0.032    28.800     8.800
    35   6 C        2.923    -0.030    28.755     8.794
    36   6 C        2.921    -0.030    28.759     8.794
    37   6 C        2.914    -0.033    28.814     8.802
    38   6 C        3.032     0.003    27.920     8.667
    39   6 C        3.032     0.004    27.914     8.666
    40   6 C        2.915    -0.032    28.805     8.801
    41   6 C        2.921    -0.030    28.757     8.794
    42   6 C        2.923    -0.030    28.757     8.794
    43   6 C        2.914    -0.032    28.800     8.800
    44   6 C        3.057     0.002    27.916     8.665
    45   6 C        2.983     0.001    28.009     8.681
    46   6 C        2.923    -0.036    28.891     8.815
    47   6 C        2.914    -0.033    28.824     8.804
    48   6 C        3.115     0.000    27.859     8.646
    49   6 C        2.993     0.016    27.635     8.623
    50  16 S        2.254    -0.075   144.183    20.210
    51   6 C        3.004     0.036    27.178     8.552
    52   6 C        2.936    -0.036    28.891     8.815
    53   6 C        2.923    -0.027    28.685     8.783
    54   6 C        2.919    -0.031    28.761     8.794
    55   6 C        2.917    -0.030    28.748     8.792
    56   6 C        3.109     0.000    27.880     8.651
    57   6 C        2.931     0.054    26.788     8.488
    58   6 C        2.976     0.009    27.817     8.651
    59   6 C        2.918    -0.029    28.736     8.791
    60   6 C        2.919    -0.027    28.682     8.782
    61   6 C        2.912    -0.021    28.529     8.758
    62   6 C        3.032    -0.011    28.256     8.719
    63   6 C        3.149    -0.010    27.988     8.654
    64   1 H        0.926     0.052     2.297     2.370
    65   1 H        0.926     0.053     2.283     2.363
    66   1 H        0.926     0.049     2.326     2.385
    67   1 H        0.926     0.052     2.299     2.371
    68   1 H        0.926     0.047     2.363     2.404
    69   1 H        0.926     0.050     2.317     2.380
    70   1 H        0.926     0.038     2.474     2.460
    71   1 H        0.926     0.036     2.500     2.473
    72   1 H        0.926     0.035     2.511     2.478
    73   1 H        0.926     0.035     2.511     2.478
    74   1 H        0.926     0.038     2.475     2.460
    75   1 H        0.926     0.048     2.341     2.393
    76   1 H        0.926     0.030     2.584     2.514
    77   1 H        0.926     0.037     2.492     2.469
    78   1 H        0.926     0.037     2.489     2.467
    79   1 H        0.926     0.039     2.465     2.455
    80   1 H        0.926     0.040     2.455     2.450
    81   1 H        0.926     0.037     2.485     2.465
    82   1 H        0.926     0.037     2.490     2.467
    83   1 H        0.926     0.027     2.627     2.535
    84   1 H        0.926     0.052     2.300     2.372
    85   1 H        0.926     0.056     2.243     2.342
    86   1 H        0.926     0.040     2.445     2.445
    87   1 H        0.926     0.045     2.385     2.415
    88   1 H        0.926     0.046     2.370     2.407
    89   1 H        0.926     0.050     2.323     2.383
    90   1 H        0.926     0.040     2.454     2.450
    91   1 H        0.926     0.049     2.326     2.385
    92   1 H        0.926     0.048     2.341     2.393

molecular dipole:
                 x           y           z       tot (Debye)
 q only:      -10.450       2.019       0.405
   full:      -10.966       2.272       0.500      28.494

 projected vibrational frequencies (cm⁻¹)
eigval :       -0.00    -0.00    -0.00     0.00     0.00     0.00
eigval :        5.48     8.36    15.36    17.21    24.50    33.63
eigval :       36.29    37.84    44.42    49.81    53.48    63.34
eigval :       65.05    79.03    82.49    87.68    96.63    99.10
eigval :      109.88   111.68   121.00   125.92   141.22   145.07
eigval :      149.70   156.05   174.98   181.61   190.31   198.42
eigval :      203.65   210.56   230.92   233.20   243.80   249.22
eigval :      274.11   282.52   289.32   295.24   306.19   313.83
eigval :      323.07   341.76   353.77   373.41   375.00   382.87
eigval :      386.70   390.28   390.88   407.21   410.74   413.73
eigval :      422.54   428.64   431.74   434.20   438.80   445.48
eigval :      455.83   461.81   478.84   481.29   482.49   487.21
eigval :      493.45   497.66   503.14   507.99   519.13   526.94
eigval :      533.97   539.47   542.19   551.81   555.11   570.68
eigval :      576.04   584.48   587.09   589.93   593.34   596.44
eigval :      623.19   624.76   626.20   629.23   637.42   643.62
eigval :      656.60   665.64   667.12   667.75   670.62   680.71
eigval :      686.69   692.04   700.57   703.80   717.46   719.33
eigval :      726.83   729.71   735.48   745.74   754.22   756.83
eigval :      773.24   778.91   780.44   785.43   789.36   812.99
eigval :      816.52   819.62   820.39   825.32   826.59   839.78
eigval :      871.24   873.18   873.40   876.74   877.94   882.25
eigval :      883.08   895.79   899.06   903.13   907.25   909.08
eigval :      909.55   910.53   917.63   919.22   923.65   925.51
eigval :      929.38   929.74   930.44   933.19   934.99   936.49
eigval :      956.21   964.72   973.01   993.32  1001.24  1028.39
eigval :     1042.03  1071.31  1072.94  1075.70  1077.41  1081.95
eigval :     1090.36  1093.51  1117.57  1118.71  1121.21  1138.90
eigval :     1140.34  1147.15  1149.89  1158.67  1161.46  1173.19
eigval :     1176.03  1177.48  1179.12  1180.92  1184.36  1185.99
eigval :     1196.51  1200.04  1202.19  1209.36  1212.93  1221.63
eigval :     1232.63  1236.09  1237.94  1251.28  1254.50  1255.74
eigval :     1256.97  1276.29  1280.46  1282.03  1286.20  1296.43
eigval :     1304.51  1311.75  1317.42  1322.69  1323.09  1333.57
eigval :     1337.12  1339.27  1342.97  1350.49  1365.14  1370.26
eigval :     1372.54  1389.77  1404.33  1408.92  1409.81  1413.46
eigval :     1416.81  1426.58  1427.25  1428.07  1432.14  1442.70
eigval :     1453.89  1457.48  1463.04  1469.05  1470.76  1478.68
eigval :     1488.06  1532.42  1534.13  1542.04  1544.76  1557.08
eigval :     1565.13  1567.32  1573.56  1575.46  1581.75  1584.23
eigval :     1590.78  1594.79  1596.04  1598.24  1600.79  2320.50
eigval :     2344.11  3070.83  3072.47  3072.69  3073.25  3076.46
eigval :     3077.17  3078.23  3079.27  3080.44  3083.15  3084.30
eigval :     3084.46  3085.63  3088.23  3088.28  3091.45  3092.17
eigval :     3093.84  3095.03  3096.06  3096.10  3096.82  3098.17
eigval :     3099.38  3099.65  3101.23  3104.66  3113.81  3113.95

   temp. (K)  partition function   enthalpy   heat capacity  entropy
                                   cal/mol     cal/K/mol   cal/K/mol   J/K/mol
 298.15  VIB  0.177E+23            28499.024    180.460    177.500
         ROT  0.185E+09              888.752      2.981     40.807
         INT  0.327E+31            29387.776    183.441    218.307
         TR   0.225E+29             1481.254      4.968     45.954
         TOT                       30869.0303   188.4088   264.2613  1105.6694

       T/K    H(0)-H(T)+PV         H(T)/Eh          T*S/Eh         G(T)/Eh
   ------------------------------------------------------------------------
    298.15    0.491929E-01    0.713671E+00    0.125559E+00    0.588112E+00
   ------------------------------------------------------------------------

         :::::::::::::::::::::::::::::::::::::::::::::::::::::
         ::                  THERMODYNAMIC                  ::
         :::::::::::::::::::::::::::::::::::::::::::::::::::::
         :: total free energy        -154.160301292199 Eh   ::
         ::.................................................::
         :: total energy             -154.748413113556 Eh   ::
         :: zero point energy           0.664477974585 Eh   ::
         :: G(RRHO) w/o ZPVE           -0.076366153228 Eh   ::
         :: G(RRHO) contrib.            0.588111821357 Eh   ::
         :::::::::::::::::::::::::::::::::::::::::::::::::::::

           -------------------------------------------------
          | TOTAL ENERGY             -154.748413113556 Eh   |
          | TOTAL ENTHALPY           -154.034742207951 Eh   |
          | TOTAL FREE ENERGY        -154.160301292199 Eh   |
          | GRADIENT NORM               0.000124970849 Eh/α |
          | HOMO-LUMO GAP               0.068750363853 eV   |
           -------------------------------------------------

 * finished run on 2025/08/22 at 11:38:28.266
