   * xtb version 6.7.1 (edcfbbe) compiled by 'albert@albert-system' on 2024-07-22

   ID    Z sym.   atoms
    1    7 N      1, 7, 9, 22, 24, 37
    2    6 C      2-6, 8, 10-21, 23, 25-36, 38, 39, 41-59
    3   14 Si     40
    4    1 H      60-93

          program call               : xtb data2507/toluene/SiCN2Cz/SiCN2Cz_toluene_S0_finalOpt.xtbopt.xyz --gfn 2 --uhf 2 --gbsa toluene --ohess vtight --parallel 40 --molden --ceasefiles --namespace data2507/toluene/SiCN2Cz/SiCN2Cz_toluene_T1_preOpt
      * Solvation model:               GBSA
        Solvent                        toluene
        Solvent mass                       9.2140E+01 g/mol
          :  Hamiltonian                  GFN2-xTB          :
 * total energy  :  -147.9436804 Eh     change        0.6054535E-08 Eh
 * total energy  :  -147.9483705 Eh     change       -0.4690109E-02 Eh
 * total energy  :  -147.9507566 Eh     change       -0.2386131E-02 Eh
 * total energy  :  -147.9509353 Eh     change       -0.1786716E-03 Eh
 * total energy  :  -147.9511306 Eh     change       -0.1953099E-03 Eh
 * total energy  :  -147.9511978 Eh     change       -0.6722426E-04 Eh
 * total energy  :  -147.9512358 Eh     change       -0.3797290E-04 Eh
 * total energy  :  -147.9512576 Eh     change       -0.2180857E-04 Eh
 * total energy  :  -147.9512744 Eh     change       -0.1677620E-04 Eh
 * total energy  :  -147.9512858 Eh     change       -0.1136037E-04 Eh
 * total energy  :  -147.9513845 Eh     change       -0.1474501E-05 Eh
 * total energy  :  -147.9513861 Eh     change       -0.1604745E-05 Eh
 * total energy  :  -147.9513880 Eh     change       -0.1972241E-05 Eh
 * total energy  :  -147.9513900 Eh     change       -0.1970216E-05 Eh
 * total energy  :  -147.9513917 Eh     change       -0.1649547E-05 Eh
 * total energy  :  -147.9513927 Eh     change       -0.1065367E-05 Eh
 * total energy  :  -147.9513934 Eh     change       -0.6748338E-06 Eh
 * total energy  :  -147.9513940 Eh     change       -0.6072056E-06 Eh
 * total energy  :  -147.9513940 Eh     change       -0.1383967E-07 Eh
   *** GEOMETRY OPTIMIZATION CONVERGED AFTER 44 ITERATIONS ***

 final structure:
================
93
 xtb: 6.7.1 (edcfbbe)
N            1.68824134754500        5.98781903171471       -1.41823891790689
C            1.64215839662375        4.87115109385757       -1.15030577199653
C            1.58774111552045        3.50262310133437       -0.81486422854241
C            0.35681301217363        2.89039693466003       -0.65223381101179
C            0.29037045492013        1.52370516036188       -0.32214211837186
C           -0.94096873017394        0.84545891439373       -0.17410389781334
N           -2.11822341386408        1.53401145809502       -0.21446154882910
C           -3.21700080720210        0.85436396306022       -0.03986725213913
N           -4.41292749572997        1.54119241972767       -0.02437411652135
C           -5.66876944272356        1.00896844124685       -0.28732106679243
C           -6.03117311043215       -0.27703876564633       -0.66047035308120
C           -7.37477088075506       -0.53960417760234       -0.86526337931722
C           -8.33799332869181        0.45473810835543       -0.72419159809498
C           -7.98034028537329        1.74652819728366       -0.37595422078737
C           -6.64047939671290        2.02841460298719       -0.15916485812208
C           -5.93303079469820        3.23205544471810        0.19634355673366
C           -6.34209366998332        4.53096173442655        0.45590050794844
C           -5.38338867875198        5.47374564258622        0.78742523860622
C           -4.03791568879441        5.12765710151257        0.86872742513623
C           -3.60974693533576        3.83537944573113        0.61800732439876
C           -4.56291935513128        2.89142952741662        0.26561465753704
N           -3.28448913902605       -0.48370002307075        0.11732931665766
C           -2.09237124297104       -1.11069743729444        0.10825568386870
N           -2.09802583070652       -2.48416864916872        0.22073764018437
C           -3.09720525335238       -3.26343499303421        0.78858161889481
C           -4.27965271705312       -2.88203979367907        1.40500988478157
C           -5.10410890478693       -3.87883529924267        1.89757745786151
C           -4.75615995409533       -5.22285027163849        1.79947038151953
C           -3.56586420097034       -5.60812378312043        1.20625601848624
C           -2.72817008961688       -4.62558660852861        0.70108981001578
C           -1.44544602956847       -4.66578036542063        0.04612090332302
C           -0.59823370791587       -5.70086923142839       -0.31938080087772
C            0.58374506122717       -5.39083521418771       -0.97070939342312
C            0.91534984444194       -4.07113567449379       -1.26286831336777
C            0.08430336040760       -3.02325579817294       -0.90505454028757
C           -1.09078992751365       -3.32646138383337       -0.23341852113460
N           -0.94456710120018       -0.50519753609863        0.00666221316128
C            1.51018122975954        0.82391902931353       -0.14263426109402
C            2.72940679251287        1.43595900092122       -0.30623994252583
Si           4.31986470363925        0.40495245465099       -0.08819189052387
C            4.57862970001909       -0.64953571776182       -1.64260295250386
C            5.42340731367082       -1.75737426967776       -1.60645493983856
C            5.63042183195298       -2.53406686988946       -2.73213195903522
C            4.98975268238902       -2.21787193804647       -3.91950906338336
C            4.14322503892671       -1.12257844867743       -3.97224776119809
C            3.94219624910113       -0.34736381054685       -2.84351075288546
C            5.76537262037214        1.59840098643016        0.19190131875277
C            5.66189237371615        2.62252947346300        1.13085672537821
C            6.71395249470965        3.49157831182713        1.35712270742345
C            7.89336527173841        3.35085754123658        0.64349147524828
C            8.01209180853098        2.33839999307486       -0.29402089248304
C            6.95570284247178        1.47271389193559       -0.51788434239004
C            4.10998408038724       -0.75685104780020        1.39924306168749
C            3.32951078565108       -1.90582780232489        1.28816274548518
C            3.15212376833712       -2.75675645227529        2.36379391801913
C            3.76100892861215       -2.47564466177275        3.57642269644939
C            4.55060398290317       -1.34462713315463        3.70167756080160
C            4.71970469250301       -0.49395993173217        2.62337635843633
C            2.78597842198540        2.78516830302186       -0.65421656706615
H           -0.55696025545117        3.44849115742008       -0.79358276778969
H           -5.28612533195467       -1.04572606480059       -0.78429725360833
H           -7.67674494597176       -1.53661236293746       -1.14841293309351
H           -9.37609182083844        0.21566420694017       -0.89835266298453
H           -8.72540270632292        2.52032432561493       -0.27526034231359
H           -7.38585375452493        4.79839256431894        0.40067997879904
H           -5.68113397778119        6.49057228548303        0.99360716142531
H           -3.31066084286216        5.87891688973845        1.13796739093071
H           -2.56933759120420        3.56368542086813        0.69306401351573
H           -4.54637253174734       -1.84147571961776        1.49196297885187
H           -6.03302062561552       -3.60336787622813        2.37371417342541
H           -5.42193366656056       -5.97271728778386        2.19900413783090
H           -3.29143068683270       -6.64940630169853        1.13866070977580
H           -0.85946487657069       -6.72501751975733       -0.10253754783899
H            1.25550766772426       -6.18235372915070       -1.26629997151741
H            1.83597582715515       -3.85796528160926       -1.78521672509311
H            0.33671162366640       -2.00207872909396       -1.14215216917694
H            1.44378620479415       -0.21422374720853        0.14237806716974
H            5.92094549696588       -2.01044341799383       -0.68109902217855
H            6.29077141693274       -3.38823768324716       -2.68471216361744
H            5.14783703703913       -2.82366063791134       -4.80010228162411
H            3.63874718716132       -0.87212039672387       -4.89485902298948
H            3.27834165047112        0.50468222492086       -2.89140988068607
H            4.74165770696090        2.74277193761783        1.68588272733624
H            6.61332983646700        4.28155043845669        2.08793539184600
H            8.71460515408681        4.03144544108096        0.81553124285200
H            8.92905086205452        2.22541361718161       -0.85452870398069
H            7.05249165238954        0.68861604181567       -1.25455220707734
H            2.86051997682326       -2.14220903203810        0.34378726391820
H            2.53919626511750       -3.64061952409818        2.25708782465099
H            3.62282041073181       -3.13807005069532        4.41878089818587
H            5.03500359549778       -1.12469446482403        4.64237940653500
H            5.34084493843656        0.38342159122331        2.72869703651971
H            3.73010138755682        3.28557801824080       -0.79951889408060

          :  Hamiltonian                  GFN2-xTB          :
         :: gradient norm              0.000077616476 Eh/a0 ::
         :: HOMO-LUMO gap              0.542482014644 eV    ::
         :: SCC energy              -150.700610039061 Eh    ::
         :: -> dispersion             -0.138101495372 Eh    ::
         :: -> Gsolv                  -0.068932680280 Eh    ::
         :: repulsion energy           2.749216005930 Eh    ::

    * Orbital Energies and Occupations

         #    Occupation            Energy/Eh            Energy/eV
      -------------------------------------------------------------
         1        2.0000           -0.7640708             -20.7914
       ...           ...                  ...                  ...
       127        2.0000           -0.4079056             -11.0997
       128        2.0000           -0.4075318             -11.0895
       129        2.0000           -0.4060106             -11.0481
       130        2.0000           -0.3977682             -10.8238
       131        2.0000           -0.3976684             -10.8211
       132        1.9999           -0.3959822             -10.7752
       133        1.9992           -0.3939260             -10.7193
       134        1.9975           -0.3928813             -10.6908
       135        1.9901           -0.3915685             -10.6551
       136        1.9339           -0.3897104             -10.6046
       137        1.6778           -0.3879003             -10.5553
       138        1.4016           -0.3868150             -10.5258
       139        1.0000           -0.2930817              -7.9752 (HOMO)
       140        0.0000           -0.2731460              -7.4327 (LUMO)
       141                         -0.2654714              -7.2238
       142                         -0.2629016              -7.1539
       143                         -0.2568759              -6.9900
       144                         -0.2471919              -6.7264
       145                         -0.2435974              -6.6286
       146                         -0.2408555              -6.5540
       147                         -0.2405818              -6.5466
       148                         -0.2398603              -6.5269
       149                         -0.2309942              -6.2857
       150                         -0.2275592              -6.1922
       ...                                ...                  ...
       275                          1.1591927              31.5432
      -------------------------------------------------------------
                  HL-Gap            0.0199357 Eh            0.5425 eV

     #   Z          covCN         q      C6AA      α(0)
     1   7 N        0.911    -0.288    27.432     7.575
     2   6 C        1.915     0.116    28.243     8.583
     3   6 C        2.968     0.008    27.844     8.655
     4   6 C        2.930    -0.033    28.818     8.804
     5   6 C        2.974    -0.015    28.392     8.740
     6   6 C        2.944     0.156    24.614     8.137
     7   7 N        1.845    -0.313    28.958     7.975
     8   6 C        2.886     0.270    22.459     7.770
     9   7 N        2.809    -0.041    22.035     6.972
    10   6 C        3.060     0.056    26.693     8.473
    11   6 C        2.910    -0.043    29.058     8.839
    12   6 C        2.923    -0.031    28.785     8.798
    13   6 C        2.920    -0.033    28.811     8.802
    14   6 C        2.912    -0.030    28.754     8.793
    15   6 C        3.063    -0.012    28.260     8.717
    16   6 C        3.062    -0.013    28.264     8.718
    17   6 C        2.912    -0.030    28.759     8.794
    18   6 C        2.920    -0.032    28.809     8.802
    19   6 C        2.923    -0.031    28.779     8.797
    20   6 C        2.910    -0.042    29.052     8.838
    21   6 C        3.061     0.056    26.694     8.473
    22   7 N        1.846    -0.348    29.885     8.102
    23   6 C        2.882     0.269    22.476     7.772
    24   7 N        2.809    -0.042    22.055     6.975
    25   6 C        3.060     0.056    26.697     8.473
    26   6 C        2.910    -0.043    29.064     8.840
    27   6 C        2.923    -0.031    28.785     8.798
    28   6 C        2.920    -0.033    28.825     8.804
    29   6 C        2.912    -0.031    28.763     8.794
    30   6 C        3.063    -0.013    28.268     8.719
    31   6 C        3.062    -0.012    28.259     8.717
    32   6 C        2.912    -0.031    28.764     8.794
    33   6 C        2.920    -0.033    28.825     8.804
    34   6 C        2.923    -0.031    28.768     8.796
    35   6 C        2.910    -0.042    29.054     8.839
    36   6 C        3.062     0.055    26.699     8.473
    37   7 N        1.848    -0.300    28.619     7.929
    38   6 C        2.944    -0.044    29.097     8.847
    39   6 C        2.857    -0.086    30.148     9.000
    40  14 Si       3.612     0.501    97.901    18.994
    41   6 C        2.862    -0.091    30.279     9.020
    42   6 C        2.937    -0.031    28.784     8.799
    43   6 C        2.917    -0.030    28.741     8.791
    44   6 C        2.920    -0.028    28.700     8.785
    45   6 C        2.917    -0.030    28.750     8.793
    46   6 C        2.934    -0.031    28.768     8.796
    47   6 C        2.863    -0.090    30.256     9.016
    48   6 C        2.937    -0.031    28.776     8.798
    49   6 C        2.917    -0.030    28.745     8.792
    50   6 C        2.920    -0.027    28.681     8.782
    51   6 C        2.917    -0.029    28.723     8.789
    52   6 C        2.935    -0.032    28.803     8.802
    53   6 C        2.862    -0.089    30.235     9.013
    54   6 C        2.937    -0.030    28.754     8.794
    55   6 C        2.917    -0.030    28.740     8.791
    56   6 C        2.920    -0.028    28.694     8.784
    57   6 C        2.917    -0.030    28.742     8.791
    58   6 C        2.934    -0.032    28.808     8.802
    59   6 C        2.937    -0.049    29.207     8.863
    60   1 H        0.926     0.032     2.555     2.499
    61   1 H        0.926     0.052     2.301     2.372
    62   1 H        0.926     0.047     2.354     2.399
    63   1 H        0.926     0.050     2.318     2.381
    64   1 H        0.926     0.051     2.306     2.375
    65   1 H        0.926     0.052     2.293     2.368
    66   1 H        0.926     0.050     2.321     2.382
    67   1 H        0.926     0.044     2.390     2.418
    68   1 H        0.926     0.048     2.351     2.398
    69   1 H        0.926     0.049     2.335     2.390
    70   1 H        0.926     0.046     2.369     2.407
    71   1 H        0.926     0.049     2.332     2.388
    72   1 H        0.926     0.050     2.314     2.379
    73   1 H        0.926     0.051     2.304     2.374
    74   1 H        0.926     0.050     2.324     2.384
    75   1 H        0.926     0.044     2.398     2.421
    76   1 H        0.926     0.046     2.365     2.405
    77   1 H        0.926     0.034     2.526     2.485
    78   1 H        0.926     0.028     2.611     2.527
    79   1 H        0.926     0.037     2.493     2.469
    80   1 H        0.926     0.036     2.504     2.474
    81   1 H        0.926     0.030     2.581     2.512
    82   1 H        0.926     0.018     2.769     2.602
    83   1 H        0.925     0.024     2.675     2.558
    84   1 H        0.926     0.033     2.544     2.494
    85   1 H        0.926     0.037     2.496     2.470
    86   1 H        0.926     0.036     2.498     2.472
    87   1 H        0.926     0.029     2.597     2.520
    88   1 H        0.926     0.024     2.680     2.560
    89   1 H        0.926     0.030     2.580     2.512
    90   1 H        0.926     0.036     2.504     2.475
    91   1 H        0.926     0.036     2.500     2.473
    92   1 H        0.926     0.031     2.571     2.508
    93   1 H        0.926     0.023     2.681     2.561

molecular dipole:
                 x           y           z       tot (Debye)
 q only:       -0.856      -3.088       0.766
   full:       -0.864      -3.274       0.817       8.853

 projected vibrational frequencies (cm⁻¹)
eigval :       -0.00    -0.00     0.00     0.00     0.00     0.00
eigval :        6.94     9.96    17.79    18.94    22.18    25.75
eigval :       26.96    29.29    30.39    31.91    34.69    41.22
eigval :       44.12    46.50    56.48    69.80    79.92    83.04
eigval :       84.55   100.59   104.79   120.42   124.10   137.86
eigval :      139.90   149.93   152.98   157.24   160.92   162.63
eigval :      167.28   181.32   188.81   205.12   209.20   210.13
eigval :      215.19   218.73   226.60   266.80   271.05   272.81
eigval :      282.56   316.24   319.98   354.64   359.39   360.94
eigval :      361.57   363.00   379.13   389.46   393.36   407.81
eigval :      411.55   419.32   421.95   425.16   428.10   431.16
eigval :      432.93   438.28   464.66   469.33   471.47   482.87
eigval :      507.21   511.55   513.14   518.51   534.04   536.12
eigval :      549.14   558.78   570.70   584.58   586.67   587.05
eigval :      587.46   587.66   588.25   603.14   607.13   615.44
eigval :      627.96   635.20   657.56   658.82   661.28   661.86
eigval :      667.38   675.40   675.61   679.21   695.01   701.70
eigval :      711.29   711.84   728.93   731.35   733.72   740.89
eigval :      753.41   759.96   767.92   770.44   776.26   779.21
eigval :      781.19   804.93   821.04   852.96   864.87   866.85
eigval :      869.87   873.38   874.36   875.62   875.73   878.15
eigval :      892.40   901.52   901.85   902.59   903.69   904.27
eigval :      906.14   908.47   909.09   919.91   920.52   923.00
eigval :      925.72   926.22   929.16   929.74   931.02   932.62
eigval :      935.65   955.89   963.88   967.20   969.67   972.25
eigval :      996.74  1012.14  1014.57  1030.38  1062.48  1064.59
eigval :     1066.32  1069.07  1081.63  1082.12  1082.64  1094.58
eigval :     1097.20  1117.11  1117.65  1119.02  1121.95  1131.17
eigval :     1131.80  1134.26  1137.91  1139.62  1140.49  1148.96
eigval :     1168.36  1170.96  1172.34  1174.44  1177.05  1178.88
eigval :     1183.42  1193.41  1201.48  1202.44  1203.60  1205.15
eigval :     1208.92  1219.47  1222.65  1233.00  1240.58  1246.28
eigval :     1276.15  1280.07  1281.71  1284.88  1286.41  1286.84
eigval :     1288.04  1306.29  1307.28  1308.17  1308.61  1320.75
eigval :     1325.38  1328.37  1336.00  1355.14  1357.54  1359.30
eigval :     1375.79  1400.79  1403.70  1404.20  1406.11  1413.99
eigval :     1415.41  1416.77  1430.59  1435.58  1442.05  1453.43
eigval :     1456.76  1457.47  1458.51  1459.25  1475.48  1476.49
eigval :     1514.87  1544.17  1555.29  1556.74  1566.36  1569.01
eigval :     1570.54  1571.45  1572.50  1574.70  1576.33  1578.61
eigval :     1578.99  1585.74  1594.23  1597.00  2350.12  3059.59
eigval :     3059.68  3063.11  3064.58  3067.06  3067.65  3068.89
eigval :     3071.21  3072.96  3074.19  3077.53  3078.62  3084.39
eigval :     3084.67  3085.17  3085.31  3085.36  3085.86  3085.91
eigval :     3086.35  3091.62  3091.85  3092.57  3093.14  3094.85
eigval :     3097.89  3099.76  3100.43  3100.82  3101.78  3106.76
eigval :     3108.78  3112.61  3112.94

   temp. (K)  partition function   enthalpy   heat capacity  entropy
                                   cal/mol     cal/K/mol   cal/K/mol   J/K/mol
 298.15  VIB  0.482E+25            29325.531    175.974    185.597
         ROT  0.139E+09              888.752      2.981     40.242
         INT  0.671E+33            30214.283    178.955    225.839
         TR   0.207E+29             1481.254      4.968     45.785
         TOT                       31695.5374   183.9234   271.6248  1136.4780

       T/K    H(0)-H(T)+PV         H(T)/Eh          T*S/Eh         G(T)/Eh
   ------------------------------------------------------------------------
    298.15    0.505101E-01    0.742199E+00    0.129058E+00    0.613142E+00
   ------------------------------------------------------------------------

         :::::::::::::::::::::::::::::::::::::::::::::::::::::
         ::                  THERMODYNAMIC                  ::
         :::::::::::::::::::::::::::::::::::::::::::::::::::::
         :: total free energy        -147.338252262584 Eh   ::
         ::.................................................::
         :: total energy             -147.951394040792 Eh   ::
         :: zero point energy           0.691689415329 Eh   ::
         :: G(RRHO) w/o ZPVE           -0.078547637121 Eh   ::
         :: G(RRHO) contrib.            0.613141778208 Eh   ::
         :::::::::::::::::::::::::::::::::::::::::::::::::::::

           -------------------------------------------------
          | TOTAL ENERGY             -147.951394040792 Eh   |
          | TOTAL ENTHALPY           -147.209194571563 Eh   |
          | TOTAL FREE ENERGY        -147.338252262584 Eh   |
          | GRADIENT NORM               0.000076833603 Eh/α |
          | HOMO-LUMO GAP               0.542476893764 eV   |
           -------------------------------------------------

 * finished run on 2025/09/12 at 03:34:43.067
