   * xtb version 6.7.1 (edcfbbe) compiled by 'albert@albert-system' on 2024-07-22

   ID    Z sym.   atoms
    1    7 N      1, 7, 9, 22, 24, 37
    2    6 C      2-6, 8, 10-21, 23, 25-36, 38, 39, 41-59
    3   14 Si     40
    4    1 H      60-93

          program call               : xtb data2507/toluene/SiCN2Cz/SiCN2Cz.xyz --gfn 2 --gbsa toluene --ohess vtight --parallel 40 --molden --ceasefiles --namespace data2507/toluene/SiCN2Cz/SiCN2Cz_toluene_S0_preOpt
      * Solvation model:               GBSA
        Solvent                        toluene
        Solvent mass                       9.2140E+01 g/mol
          :  Hamiltonian                  GFN2-xTB          :
 * total energy  :  -148.0116854 Eh     change       -0.5565795E-08 Eh
 * total energy  :  -148.0330986 Eh     change       -0.2141321E-01 Eh
 * total energy  :  -148.0392024 Eh     change       -0.6103722E-02 Eh
 * total energy  :  -148.0405773 Eh     change       -0.1374901E-02 Eh
 * total energy  :  -148.0412374 Eh     change       -0.6601620E-03 Eh
 * total energy  :  -148.0413898 Eh     change       -0.1523881E-03 Eh
 * total energy  :  -148.0414601 Eh     change       -0.7027834E-04 Eh
 * total energy  :  -148.0414961 Eh     change       -0.3598056E-04 Eh
 * total energy  :  -148.0415231 Eh     change       -0.2701803E-04 Eh
 * total energy  :  -148.0415688 Eh     change       -0.4574741E-04 Eh
 * total energy  :  -148.0418801 Eh     change       -0.4811947E-06 Eh
 * total energy  :  -148.0418805 Eh     change       -0.3148272E-06 Eh
 * total energy  :  -148.0418808 Eh     change       -0.3797279E-06 Eh
 * total energy  :  -148.0418813 Eh     change       -0.4182887E-06 Eh
 * total energy  :  -148.0418817 Eh     change       -0.4848666E-06 Eh
 * total energy  :  -148.0418820 Eh     change       -0.2980682E-06 Eh
 * total energy  :  -148.0418822 Eh     change       -0.1860294E-06 Eh
 * total energy  :  -148.0418824 Eh     change       -0.1335186E-06 Eh
 * total energy  :  -148.0418824 Eh     change       -0.8827399E-07 Eh
   *** GEOMETRY OPTIMIZATION CONVERGED AFTER 62 ITERATIONS ***

 final structure:
================
93
 xtb: 6.7.1 (edcfbbe)
N            1.71095092048438        6.01609672528227       -1.40985036308546
C            1.63843646782261        4.90227344883772       -1.14344180431794
C            1.55276916815505        3.53094346454040       -0.81133987258519
C            0.30649997306279        2.91440951602801       -0.74494572243996
C            0.23247792931155        1.56495999004835       -0.41920034352952
C           -1.07571455355812        0.90558154663497       -0.32788312761126
N           -2.15257586987920        1.68044683432241       -0.32359790539146
C           -3.31874821520921        1.03768586524953       -0.25195088720346
N           -4.45954059237177        1.78661689717177       -0.27912932782474
C           -5.74226458040633        1.32359228924390       -0.58963322302315
C           -6.15992510418259        0.07416577449815       -1.01619319954963
C           -7.50742104941096       -0.10514232407956       -1.28184263660662
C           -8.42114545396024        0.93379303277815       -1.14190543976417
C           -8.00472307002374        2.19137414215893       -0.74687678814951
C           -6.65871905212102        2.38906396374382       -0.47365762245324
C           -5.90389958455200        3.54971637593186       -0.07473235730673
C           -6.27010672336110        4.85867121169862        0.20464919419605
C           -5.28735332811208        5.75336230498087        0.58461351769614
C           -3.96183038693103        5.34749468944746        0.69509983027747
C           -3.57832214031038        4.04482561377602        0.42266708575181
C           -4.55573059979846        3.14843446394323        0.02460935167232
N           -3.44450062549210       -0.28192957304458       -0.15410764939063
C           -2.30539268873733       -0.96804301286681       -0.14443173149572
N           -2.37817689252729       -2.32449081398567       -0.02118562739261
C           -3.47998905171792       -3.05357971184739        0.44024783148549
C           -4.69410736430313       -2.61544814869695        0.94165661765396
C           -5.60983094509786       -3.56911793384160        1.35500968619218
C           -5.32562468444981       -4.92847616941948        1.28681088731679
C           -4.10310113938395       -5.37052171769675        0.81664320159503
C           -3.17428518635875       -4.42950346034869        0.39596707357247
C           -1.83127745726121       -4.54496844725317       -0.11291109144361
C           -1.01993865785602       -5.63816452298946       -0.38118367082512
C            0.24585274704729       -5.41241028967209       -0.88876944988840
C            0.69143669603105       -4.11883637472246       -1.13667168728031
C           -0.10513143021128       -3.01626491092306       -0.87595142703260
C           -1.36730330172597       -3.23477673240084       -0.35042011082370
N           -1.09445109191967       -0.41757490227921       -0.24765114275140
C            1.40264533987624        0.85013121246162       -0.17189356410947
C            2.65218767897368        1.45608754199544       -0.22715874317192
Si           4.22599564527627        0.44935648460048        0.14368898388487
C            4.15510429782054       -1.13306502643406       -0.89688218682175
C            3.67195699946173       -1.09784532819770       -2.20355943358236
C            3.65728854349399       -2.23509746767044       -2.99077862642394
C            4.12761582884622       -3.43537248735531       -2.48195436602847
C            4.60600173725147       -3.48999979784123       -1.18274584905269
C            4.61784059940172       -2.34872370455099       -0.40049327014979
C            5.73768142358658        1.49385816742141       -0.32464972381745
C            6.46470922399717        1.24952230497522       -1.48649937685442
C            7.55878424254603        2.02837596947825       -1.82062321594262
C            7.94706661916244        3.07035913564866       -0.99489065555729
C            7.23769507315883        3.32588996434917        0.16763572239778
C            6.14595957278535        2.54336056348588        0.49721765427850
C            4.30402617446322        0.05520305004980        1.99567619423899
C            5.51939433113138       -0.30903719141865        2.57219978128382
C            5.61001323165445       -0.61302458008768        3.91834362609117
C            4.48032542267732       -0.55684555771023        4.71843142958767
C            3.26446313463674       -0.19438091129542        4.16309750928382
C            3.18014026936177        0.10772949386200        2.81509943897742
C            2.71627019263130        2.80404488329691       -0.54909114034768
H           -0.59605232081724        3.46901517697136       -0.95195578673896
H           -5.46003945651306       -0.73490272904721       -1.13913917758548
H           -7.85065611926432       -1.07595513868188       -1.60685761585576
H           -9.46440716903076        0.75588717246136       -1.35480691357077
H           -8.70564343513159        3.00658533970685       -0.65553066024016
H           -7.30178912412242        5.16526955604812        0.12845782570963
H           -5.54834808249479        6.77779356071013        0.80319357257695
H           -3.21090595196871        6.06087006368901        1.00082928899799
H           -2.55090647264229        3.73656236125024        0.51820268502824
H           -4.92293591157235       -1.56555594747097        1.00939999912453
H           -6.56403620648789       -3.24289409553139        1.74089671888592
H           -6.06569936260867       -5.64294634180020        1.61434304706037
H           -3.86902422032097       -6.42317317245950        0.77956711194767
H           -1.37627267438610       -6.64010280188825       -0.19811906445495
H            0.89608416697582       -6.24735488372714       -1.10179584912844
H            1.67990862112720       -3.96285354247281       -1.54081648309319
H            0.24685308459158       -2.01915215784226       -1.07758577312076
H            1.32183813140925       -0.19872981052490        0.07019184668070
H            3.30284492984305       -0.16490915964978       -2.60725128993738
H            3.27799699165791       -2.18728105111715       -4.00195499044197
H            4.11899758789162       -4.32454631589566       -3.09625162910388
H            4.96911805163279       -4.42449828140331       -0.77971666005847
H            4.99006729673334       -2.39844911438898        0.61224671302115
H            6.16984281804057        0.43597039666238       -2.13349011626917
H            8.11066134725226        1.82272769022263       -2.72677710341011
H            8.80058971444677        3.67983541734026       -1.25427475946986
H            7.53703375991406        4.13596402483945        0.81747812515720
H            5.60068198448316        2.74381748632491        1.40920235702974
H            6.40520383238538       -0.34712076238590        1.95438742679735
H            6.56201499895901       -0.89267401530307        4.34625337789461
H            4.54744380992625       -0.79175127773408        5.77085535066587
H            2.37945761542130       -0.14604579396270        4.78223819628224
H            2.22649977818307        0.39412312165214        2.39406142225279
H            3.67312632359642        3.30168720208923       -0.60416444905086

          :  Hamiltonian                  GFN2-xTB          :
         :: gradient norm              0.000033059234 Eh/a0 ::
         :: HOMO-LUMO gap              2.386849899442 eV    ::
         :: SCC energy              -150.802426599881 Eh    ::
         :: -> dispersion             -0.138631444074 Eh    ::
         :: -> Gsolv                  -0.066307860652 Eh    ::
         :: repulsion energy           2.760544157140 Eh    ::

    * Orbital Energies and Occupations

         #    Occupation            Energy/Eh            Energy/eV
      -------------------------------------------------------------
         1        2.0000           -0.7669411             -20.8695
       ...           ...                  ...                  ...
       126        2.0000           -0.4095938             -11.1456
       127        2.0000           -0.4092479             -11.1362
       128        2.0000           -0.4087978             -11.1240
       129        2.0000           -0.4071026             -11.0778
       130        2.0000           -0.4006835             -10.9032
       131        2.0000           -0.3949480             -10.7471
       132        2.0000           -0.3947238             -10.7410
       133        2.0000           -0.3941520             -10.7254
       134        2.0000           -0.3938500             -10.7172
       135        2.0000           -0.3934283             -10.7057
       136        2.0000           -0.3927534             -10.6874
       137        2.0000           -0.3889570             -10.5841
       138        2.0000           -0.3875841             -10.5467 (HOMO)
       139                         -0.2998690              -8.1599 (LUMO)
       140                         -0.2839141              -7.7257
       141                         -0.2789103              -7.5895
       142                         -0.2604553              -7.0873
       143                         -0.2552988              -6.9470
       144                         -0.2492395              -6.7822
       145                         -0.2446175              -6.6564
       146                         -0.2433803              -6.6227
       147                         -0.2381411              -6.4801
       148                         -0.2362785              -6.4295
       149                         -0.2355903              -6.4107
       ...                                ...                  ...
       275                          1.1510013              31.3203
      -------------------------------------------------------------
                  HL-Gap            0.0877151 Eh            2.3868 eV

     #   Z          covCN         q      C6AA      α(0)
     1   7 N        0.911    -0.259    26.721     7.476
     2   6 C        1.913     0.118    28.205     8.577
     3   6 C        2.970     0.017    27.621     8.621
     4   6 C        2.932    -0.018    28.470     8.751
     5   6 C        2.981    -0.005    28.133     8.700
     6   6 C        2.994     0.216    23.434     7.941
     7   7 N        1.847    -0.344    29.786     8.089
     8   6 C        2.927     0.283    22.217     7.730
     9   7 N        2.806    -0.055    22.301     7.014
    10   6 C        3.052     0.054    26.738     8.480
    11   6 C        2.911    -0.048    29.191     8.859
    12   6 C        2.924    -0.033    28.816     8.803
    13   6 C        2.920    -0.036    28.908     8.817
    14   6 C        2.913    -0.034    28.840     8.806
    15   6 C        3.062    -0.013    28.285     8.721
    16   6 C        3.062    -0.014    28.291     8.722
    17   6 C        2.913    -0.034    28.842     8.807
    18   6 C        2.920    -0.037    28.912     8.818
    19   6 C        2.924    -0.033    28.826     8.805
    20   6 C        2.911    -0.048    29.202     8.861
    21   6 C        3.052     0.055    26.727     8.479
    22   7 N        1.850    -0.342    29.725     8.080
    23   6 C        2.927     0.282    22.246     7.735
    24   7 N        2.806    -0.054    22.276     7.010
    25   6 C        3.051     0.054    26.746     8.482
    26   6 C        2.911    -0.048    29.197     8.860
    27   6 C        2.924    -0.033    28.820     8.804
    28   6 C        2.920    -0.036    28.908     8.817
    29   6 C        2.913    -0.034    28.844     8.807
    30   6 C        3.061    -0.013    28.280     8.721
    31   6 C        3.062    -0.014    28.291     8.722
    32   6 C        2.913    -0.034    28.850     8.808
    33   6 C        2.920    -0.036    28.907     8.817
    34   6 C        2.924    -0.034    28.848     8.808
    35   6 C        2.911    -0.048    29.202     8.861
    36   6 C        3.051     0.054    26.735     8.480
    37   7 N        1.847    -0.341    29.698     8.077
    38   6 C        2.941    -0.022    28.560     8.765
    39   6 C        2.858    -0.090    30.250     9.015
    40  14 Si       3.610     0.492    98.144    19.019
    41   6 C        2.862    -0.090    30.256     9.016
    42   6 C        2.937    -0.031    28.778     8.798
    43   6 C        2.917    -0.030    28.755     8.793
    44   6 C        2.920    -0.028    28.698     8.785
    45   6 C        2.917    -0.029    28.726     8.789
    46   6 C        2.935    -0.032    28.794     8.800
    47   6 C        2.862    -0.093    30.323     9.026
    48   6 C        2.934    -0.033    28.822     8.805
    49   6 C        2.917    -0.030    28.741     8.791
    50   6 C        2.920    -0.028    28.692     8.784
    51   6 C        2.917    -0.030    28.748     8.792
    52   6 C        2.937    -0.033    28.814     8.804
    53   6 C        2.862    -0.091    30.275     9.019
    54   6 C        2.939    -0.031    28.785     8.799
    55   6 C        2.917    -0.029    28.734     8.790
    56   6 C        2.920    -0.028    28.699     8.785
    57   6 C        2.917    -0.031    28.762     8.794
    58   6 C        2.934    -0.032    28.806     8.802
    59   6 C        2.942    -0.021    28.529     8.760
    60   1 H        0.926     0.053     2.288     2.366
    61   1 H        0.926     0.046     2.365     2.405
    62   1 H        0.926     0.043     2.408     2.426
    63   1 H        0.926     0.045     2.380     2.412
    64   1 H        0.926     0.046     2.366     2.405
    65   1 H        0.926     0.047     2.359     2.402
    66   1 H        0.926     0.045     2.384     2.415
    67   1 H        0.926     0.041     2.434     2.440
    68   1 H        0.926     0.044     2.395     2.420
    69   1 H        0.926     0.047     2.359     2.402
    70   1 H        0.926     0.043     2.415     2.430
    71   1 H        0.926     0.045     2.385     2.415
    72   1 H        0.926     0.046     2.365     2.405
    73   1 H        0.926     0.046     2.365     2.405
    74   1 H        0.926     0.045     2.383     2.414
    75   1 H        0.926     0.044     2.401     2.423
    76   1 H        0.926     0.046     2.366     2.405
    77   1 H        0.926     0.050     2.319     2.381
    78   1 H        0.925     0.018     2.770     2.603
    79   1 H        0.926     0.030     2.579     2.512
    80   1 H        0.926     0.035     2.512     2.478
    81   1 H        0.926     0.036     2.502     2.474
    82   1 H        0.926     0.029     2.601     2.522
    83   1 H        0.926     0.027     2.626     2.534
    84   1 H        0.926     0.034     2.533     2.489
    85   1 H        0.926     0.035     2.519     2.482
    86   1 H        0.926     0.033     2.543     2.493
    87   1 H        0.925     0.024     2.668     2.554
    88   1 H        0.926     0.029     2.605     2.524
    89   1 H        0.926     0.036     2.496     2.470
    90   1 H        0.926     0.035     2.513     2.479
    91   1 H        0.926     0.028     2.621     2.532
    92   1 H        0.926     0.015     2.810     2.621
    93   1 H        0.926     0.047     2.355     2.400

molecular dipole:
                 x           y           z       tot (Debye)
 q only:        0.363      -1.964       0.475
   full:        0.309      -2.161       0.538       5.714

 projected vibrational frequencies (cm⁻¹)
eigval :       -0.00    -0.00    -0.00     0.00     0.00     0.00
eigval :        6.84    12.00    16.72    20.49    26.07    28.14
eigval :       30.14    33.14    34.40    35.44    38.77    40.57
eigval :       44.38    46.78    49.79    73.11    80.82    86.08
eigval :       92.13   101.05   102.78   127.71   129.37   138.11
eigval :      144.26   154.82   158.12   162.60   169.12   173.28
eigval :      185.90   189.88   193.43   204.78   214.57   219.35
eigval :      223.46   228.74   231.24   269.10   275.15   276.95
eigval :      291.07   321.37   327.94   358.44   359.03   360.71
eigval :      363.78   376.89   390.77   395.85   397.51   411.14
eigval :      414.88   422.69   425.54   428.15   433.15   434.91
eigval :      439.02   444.18   473.42   477.52   479.23   495.66
eigval :      514.98   515.17   532.47   538.46   539.84   541.71
eigval :      560.41   573.62   580.28   587.54   588.43   589.23
eigval :      589.29   596.57   632.92   639.89   645.57   651.53
eigval :      662.27   662.74   663.03   663.41   667.05   676.60
eigval :      679.25   688.49   702.72   706.15   708.84   713.50
eigval :      714.28   736.29   737.05   737.45   752.53   755.26
eigval :      764.76   774.44   776.55   783.01   783.67   788.26
eigval :      840.29   844.17   870.55   875.36   876.95   881.48
eigval :      883.15   885.63   885.74   892.65   897.07   899.44
eigval :      903.63   905.94   906.78   906.99   907.87   908.03
eigval :      910.18   912.73   922.01   924.92   926.25   927.94
eigval :      931.52   933.97   934.50   935.87   936.01   936.95
eigval :      938.26   974.44   975.88   976.06   985.79  1003.93
eigval :     1015.10  1022.70  1048.48  1053.92  1067.89  1069.33
eigval :     1071.90  1076.18  1082.95  1084.25  1084.89  1113.85
eigval :     1118.41  1120.42  1121.16  1142.16  1142.96  1145.53
eigval :     1147.35  1148.14  1149.00  1150.09  1153.22  1173.24
eigval :     1174.30  1175.32  1176.29  1179.84  1180.38  1181.88
eigval :     1202.21  1203.63  1206.40  1209.03  1219.27  1221.28
eigval :     1225.43  1235.22  1240.56  1245.15  1263.08  1270.96
eigval :     1284.88  1284.99  1285.43  1286.57  1288.76  1295.09
eigval :     1298.99  1308.14  1308.24  1309.37  1317.42  1347.87
eigval :     1348.56  1349.92  1356.32  1367.96  1401.15  1407.95
eigval :     1410.37  1416.34  1416.62  1417.32  1419.03  1420.00
eigval :     1420.88  1428.39  1460.91  1461.30  1462.60  1466.79
eigval :     1467.86  1478.78  1480.03  1485.92  1518.24  1531.63
eigval :     1561.61  1565.05  1572.78  1573.25  1574.22  1579.33
eigval :     1579.63  1589.47  1590.01  1590.33  1590.95  1592.08
eigval :     1597.02  1597.68  1608.29  1608.65  2365.98  3056.80
eigval :     3058.81  3060.05  3065.79  3066.24  3066.37  3069.40
eigval :     3071.19  3071.31  3075.44  3076.86  3078.34  3081.98
eigval :     3082.48  3082.82  3084.41  3085.99  3086.43  3086.85
eigval :     3089.09  3089.12  3089.82  3090.26  3094.05  3094.99
eigval :     3098.61  3099.31  3100.71  3101.07  3101.43  3122.91
eigval :     3125.40  3126.82  3128.62

   temp. (K)  partition function   enthalpy   heat capacity  entropy
                                   cal/mol     cal/K/mol   cal/K/mol   J/K/mol
 298.15  VIB  0.853E+24            28776.182    173.259    181.710
         ROT  0.141E+09              888.752      2.981     40.272
         INT  0.120E+33            29664.934    176.240    221.982
         TR   0.207E+29             1481.254      4.968     45.785
         TOT                       31146.1879   181.2078   267.7674  1120.3388

       T/K    H(0)-H(T)+PV         H(T)/Eh          T*S/Eh         G(T)/Eh
   ------------------------------------------------------------------------
    298.15    0.496346E-01    0.747863E+00    0.127225E+00    0.620638E+00
   ------------------------------------------------------------------------

         :::::::::::::::::::::::::::::::::::::::::::::::::::::
         ::                  THERMODYNAMIC                  ::
         :::::::::::::::::::::::::::::::::::::::::::::::::::::
         :: total free energy        -147.421244308931 Eh   ::
         ::.................................................::
         :: total energy             -148.041882445628 Eh   ::
         :: zero point energy           0.698228460773 Eh   ::
         :: G(RRHO) w/o ZPVE           -0.077590324076 Eh   ::
         :: G(RRHO) contrib.            0.620638136697 Eh   ::
         :::::::::::::::::::::::::::::::::::::::::::::::::::::

           -------------------------------------------------
          | TOTAL ENERGY             -148.041882445628 Eh   |
          | TOTAL ENTHALPY           -147.294019375108 Eh   |
          | TOTAL FREE ENERGY        -147.421244308931 Eh   |
          | GRADIENT NORM               0.000032967620 Eh/α |
          | HOMO-LUMO GAP               2.386849806222 eV   |
           -------------------------------------------------

 * finished run on 2025/09/12 at 03:24:12.659
