   * xtb version 6.7.1 (edcfbbe) compiled by 'albert@albert-system' on 2024-07-22

   ID    Z sym.   atoms
    1    7 N      1, 7, 9, 22, 24, 37
    2    6 C      2-6, 8, 10-21, 23, 25-36, 38, 39, 41-59
    3   14 Si     40
    4    1 H      60-93

          program call               : xtb data2507/toluene/SiCN2Cz/SiCN2Cz_toluene_S0_crest.xyz --gfn 2 --gbsa toluene --ohess vtight --parallel 40 --molden --ceasefiles --namespace data2507/toluene/SiCN2Cz/SiCN2Cz_toluene_S0_finalOpt
      * Solvation model:               GBSA
        Solvent                        toluene
        Solvent mass                       9.2140E+01 g/mol
          :  Hamiltonian                  GFN2-xTB          :
 * total energy  :  -148.0413581 Eh     change       -0.2972712E-08 Eh
 * total energy  :  -148.0414180 Eh     change       -0.5985687E-04 Eh
 * total energy  :  -148.0414448 Eh     change       -0.2688280E-04 Eh
 * total energy  :  -148.0414612 Eh     change       -0.1640578E-04 Eh
 * total energy  :  -148.0414809 Eh     change       -0.1969770E-04 Eh
 * total energy  :  -148.0414744 Eh     change        0.6555728E-05 Eh
 * total energy  :  -148.0415104 Eh     change       -0.3603194E-04 Eh
 * total energy  :  -148.0415259 Eh     change       -0.1549940E-04 Eh
 * total energy  :  -148.0415375 Eh     change       -0.1155687E-04 Eh
 * total energy  :  -148.0415627 Eh     change       -0.2517907E-04 Eh
 * total energy  :  -148.0421798 Eh     change       -0.7459508E-06 Eh
 * total energy  :  -148.0421805 Eh     change       -0.6865941E-06 Eh
 * total energy  :  -148.0421812 Eh     change       -0.6554612E-06 Eh
 * total energy  :  -148.0421818 Eh     change       -0.6595641E-06 Eh
 * total energy  :  -148.0421825 Eh     change       -0.6938525E-06 Eh
 * total energy  :  -148.0421832 Eh     change       -0.6934009E-06 Eh
 * total energy  :  -148.0421840 Eh     change       -0.7584493E-06 Eh
 * total energy  :  -148.0421848 Eh     change       -0.7917911E-06 Eh
 * total energy  :  -148.0421848 Eh     change       -0.2144901E-08 Eh
   *** GEOMETRY OPTIMIZATION CONVERGED AFTER 152 ITERATIONS ***

 final structure:
================
93
 xtb: 6.7.1 (edcfbbe)
N            1.65930271004775        5.87372339706337       -1.76268044482693
C            1.61559928765089        4.78033653617113       -1.41701439067057
C            1.56667172733252        3.43434565852171       -0.98762454988656
C            0.33324284185090        2.81498556718705       -0.79975164524104
C            0.30037826225304        1.49129673249292       -0.37936086520341
C           -0.97922840427715        0.79612444880338       -0.20303683233225
N           -2.08399191403065        1.52490859687388       -0.12897939958366
C           -3.21622473419561        0.83179000443858        0.00654127045496
N           -4.38587028240049        1.53291161380324        0.05022271780459
C           -5.66546393526651        1.01895907130519       -0.18555057717910
C           -6.05914940381014       -0.25042779844067       -0.57441284477061
C           -7.41092254746036       -0.48060939059856       -0.77032518746570
C           -8.35335634171274        0.52684385162291       -0.59603850658153
C           -7.96333528374152        1.80295830597758       -0.23496534235550
C           -6.61332995930128        2.05176127042846       -0.03265156602823
C           -5.88222999518663        3.24422008258265        0.31327047036808
C           -6.28231719008360        4.54233654502011        0.59652463425672
C           -5.31505550616534        5.47814703543655        0.91164960738453
C           -3.97122050664538        5.12325658679627        0.95482183106155
C           -3.55346226672952        3.83226015265882        0.67677139391540
C           -4.51660763416556        2.89443566398614        0.34426997916497
N           -3.28143799006879       -0.49336687123594        0.09993106452653
C           -2.11602772426640       -1.12961762127515        0.02886198175772
N           -2.11472151374666       -2.49024658318020        0.13130977315926
C           -3.13017243267374       -3.28075349760072        0.67815800256539
C           -4.32182797827507       -2.91060078363495        1.27823873677264
C           -5.14269331354779       -3.91399183257866        1.76604028098948
C           -4.78618833302950       -5.25497384989240        1.67332838151851
C           -3.58501021829194       -5.62816060425954        1.09988540718104
C           -2.75007732824222       -4.63678157836786        0.60447565310433
C           -1.45023942261466       -4.67462320880635       -0.01628123505790
C           -0.60247504148329       -5.71893604422568       -0.35779941855639
C            0.59774891638669       -5.42112271398803       -0.97543755028890
C            0.94245081329321       -4.10416400281329       -1.25976168197246
C            0.11052115734122       -3.04881001059711       -0.92376258566393
C           -1.08472347179738       -3.33983593775366       -0.28700395761505
N           -0.93913319717339       -0.52732670099300       -0.13855844910600
C            1.49241514842464        0.81068339509153       -0.14263735966402
C            2.72826173199459        1.41322131443445       -0.33446918144750
Si           4.32779165440196        0.40943683158927       -0.07291972121158
C            4.59702822773326       -0.65801051886382       -1.61550983163652
C            5.46725212386282       -1.74537335098232       -1.57007895033026
C            5.68267673557718       -2.53561214041598       -2.68466820449186
C            5.02604290902258       -2.25269862073969       -3.87165189307871
C            4.15503012059321       -1.17750880927853       -3.93432695883315
C            3.94555429170627       -0.38919974521191       -2.81628656752026
C            5.75559188791713        1.62410928603345        0.19335172429645
C            5.62613610920561        2.67817924933376        1.09646377641209
C            6.66407204326174        3.56664839215619        1.31179237721214
C            7.85783813037706        3.41620791456187        0.62467375600599
C            8.00400589120516        2.37485420257974       -0.27672722149247
C            6.96193447520073        1.48919438582569       -0.48813059575227
C            4.10483232481298       -0.72926944422912        1.42842232167366
C            3.33111143897462       -1.88397975796229        1.32510149894634
C            3.14325095115859       -2.71895475704501        2.41166228020548
C            3.73672791466245       -2.41792886877738        3.62684184017119
C            4.52045252417240       -1.28194642082253        3.74453279765825
C            4.69966026445608       -0.44723396431707        2.65541142166766
C            2.75425850915726        2.73309066959421       -0.76368798926663
H           -0.58799194964029        3.34529800098548       -0.98852961518950
H           -5.33788836490584       -1.03600250131522       -0.72305838504421
H           -7.73467753701878       -1.46688657569724       -1.06757891908119
H           -9.39878410413390        0.30968338920221       -0.75504735390321
H           -8.68793032584325        2.59357095664490       -0.11642206750161
H           -7.32738366823312        4.80956729488569        0.57245343036775
H           -5.60262329398873        6.49505759670638        1.13199439171120
H           -3.23260934363000        5.86848945541440        1.21041497421750
H           -2.51111439255974        3.56442472509765        0.71732987858337
H           -4.60355698994348       -1.87479892463221        1.36415215611758
H           -6.07896913419404       -3.64283455914180        2.23059254481918
H           -5.45299361017990       -6.00975465804738        2.06200834916749
H           -3.29548524179936       -6.66595718104324        1.04134605847837
H           -0.88163918227583       -6.73983179976761       -0.14773294131321
H            1.27372427694993       -6.21730922853243       -1.24838297874530
H            1.87938349088393       -3.89590501257451       -1.75484184964584
H            0.38423991272676       -2.03223490262059       -1.15111258026510
H            1.43618523594218       -0.21025241692394        0.20030638484845
H            5.97714480666781       -1.97317024405032       -0.64490019641486
H            6.36236064235604       -3.37391689095471       -2.62916559903359
H            5.19090975525417       -2.86836499577727       -4.74406722710342
H            3.63783546406046       -0.95306157268700       -4.85662315247685
H            3.26261284525137        0.44705157585840       -2.87480429635176
H            4.69624078444501        2.80437333472422        1.63413497772106
H            6.54276931325733        4.37836534620632        2.01518533260174
H            8.66942522290418        4.10988072440317        0.79019086249723
H            8.93232037699255        2.25422511213926       -0.81659493114424
H            7.08120689966903        0.68135070226775       -1.19534285837234
H            2.87703144822893       -2.13912813639546        0.37831126748972
H            2.53531502709231       -3.60704888564887        2.31020418103882
H            3.59306376600888       -3.06955676981807        4.47673713678866
H            4.99318971723277       -1.04708288665038        4.68758722439700
H            5.31649114560454        0.43398270426962        2.75483972047556
H            3.69890743528508        3.23020657816169       -0.92868237910346

          :  Hamiltonian                  GFN2-xTB          :
         :: gradient norm              0.000036408024 Eh/a0 ::
         :: HOMO-LUMO gap              2.412271555340 eV    ::
         :: SCC energy              -150.802821583515 Eh    ::
         :: -> dispersion             -0.138174613767 Eh    ::
         :: -> Gsolv                  -0.066973236401 Eh    ::
         :: repulsion energy           2.760636803988 Eh    ::

    * Orbital Energies and Occupations

         #    Occupation            Energy/Eh            Energy/eV
      -------------------------------------------------------------
         1        2.0000           -0.7666568             -20.8618
       ...           ...                  ...                  ...
       126        2.0000           -0.4091849             -11.1345
       127        2.0000           -0.4083757             -11.1125
       128        2.0000           -0.4080625             -11.1039
       129        2.0000           -0.4074391             -11.0870
       130        2.0000           -0.4005906             -10.9006
       131        2.0000           -0.3952183             -10.7544
       132        2.0000           -0.3947467             -10.7416
       133        2.0000           -0.3943781             -10.7316
       134        2.0000           -0.3941781             -10.7261
       135        2.0000           -0.3939062             -10.7187
       136        2.0000           -0.3925271             -10.6812
       137        2.0000           -0.3890704             -10.5871
       138        2.0000           -0.3880197             -10.5586 (HOMO)
       139                         -0.2993704              -8.1463 (LUMO)
       140                         -0.2836775              -7.7193
       141                         -0.2791770              -7.5968
       142                         -0.2609374              -7.1005
       143                         -0.2557239              -6.9586
       144                         -0.2491729              -6.7803
       145                         -0.2456644              -6.6849
       146                         -0.2434925              -6.6258
       147                         -0.2365779              -6.4376
       148                         -0.2362365              -6.4283
       149                         -0.2361946              -6.4272
       ...                                ...                  ...
       275                          1.1506742              31.3114
      -------------------------------------------------------------
                  HL-Gap            0.0886493 Eh            2.4123 eV

     #   Z          covCN         q      C6AA      α(0)
     1   7 N        0.911    -0.259    26.728     7.477
     2   6 C        1.913     0.118    28.205     8.577
     3   6 C        2.970     0.017    27.625     8.621
     4   6 C        2.931    -0.018    28.468     8.750
     5   6 C        2.982    -0.004    28.121     8.699
     6   6 C        2.996     0.217    23.429     7.940
     7   7 N        1.846    -0.343    29.769     8.086
     8   6 C        2.929     0.283    22.221     7.731
     9   7 N        2.806    -0.054    22.290     7.012
    10   6 C        3.052     0.054    26.742     8.481
    11   6 C        2.911    -0.048    29.197     8.860
    12   6 C        2.924    -0.033    28.817     8.803
    13   6 C        2.920    -0.036    28.907     8.817
    14   6 C        2.913    -0.034    28.840     8.806
    15   6 C        3.062    -0.013    28.283     8.721
    16   6 C        3.062    -0.014    28.289     8.722
    17   6 C        2.913    -0.034    28.843     8.807
    18   6 C        2.920    -0.037    28.911     8.817
    19   6 C        2.924    -0.033    28.825     8.805
    20   6 C        2.911    -0.048    29.201     8.861
    21   6 C        3.052     0.054    26.730     8.479
    22   7 N        1.849    -0.342    29.728     8.081
    23   6 C        2.928     0.282    22.245     7.735
    24   7 N        2.807    -0.054    22.277     7.010
    25   6 C        3.052     0.054    26.743     8.481
    26   6 C        2.911    -0.048    29.198     8.860
    27   6 C        2.924    -0.033    28.814     8.803
    28   6 C        2.920    -0.037    28.910     8.817
    29   6 C        2.913    -0.034    28.841     8.806
    30   6 C        3.061    -0.013    28.285     8.721
    31   6 C        3.062    -0.013    28.282     8.721
    32   6 C        2.913    -0.034    28.844     8.807
    33   6 C        2.920    -0.037    28.912     8.818
    34   6 C        2.924    -0.032    28.806     8.802
    35   6 C        2.911    -0.048    29.186     8.859
    36   6 C        3.051     0.055    26.727     8.479
    37   7 N        1.849    -0.340    29.687     8.075
    38   6 C        2.943    -0.024    28.615     8.773
    39   6 C        2.858    -0.089    30.239     9.013
    40  14 Si       3.609     0.492    98.159    19.022
    41   6 C        2.862    -0.091    30.279     9.020
    42   6 C        2.938    -0.031    28.782     8.799
    43   6 C        2.917    -0.030    28.740     8.791
    44   6 C        2.920    -0.028    28.703     8.786
    45   6 C        2.917    -0.030    28.758     8.794
    46   6 C        2.934    -0.032    28.788     8.799
    47   6 C        2.862    -0.092    30.317     9.025
    48   6 C        2.937    -0.033    28.823     8.805
    49   6 C        2.917    -0.030    28.760     8.794
    50   6 C        2.920    -0.028    28.691     8.784
    51   6 C        2.917    -0.029    28.731     8.790
    52   6 C        2.935    -0.033    28.813     8.803
    53   6 C        2.862    -0.091    30.277     9.019
    54   6 C        2.937    -0.032    28.800     8.801
    55   6 C        2.917    -0.031    28.762     8.795
    56   6 C        2.920    -0.029    28.718     8.788
    57   6 C        2.917    -0.030    28.758     8.794
    58   6 C        2.934    -0.034    28.836     8.807
    59   6 C        2.941    -0.020    28.502     8.756
    60   1 H        0.926     0.051     2.308     2.376
    61   1 H        0.926     0.047     2.357     2.401
    62   1 H        0.926     0.043     2.407     2.426
    63   1 H        0.926     0.045     2.379     2.412
    64   1 H        0.926     0.046     2.364     2.405
    65   1 H        0.926     0.047     2.359     2.402
    66   1 H        0.926     0.045     2.383     2.414
    67   1 H        0.926     0.041     2.431     2.438
    68   1 H        0.926     0.045     2.382     2.414
    69   1 H        0.926     0.046     2.366     2.406
    70   1 H        0.926     0.043     2.414     2.430
    71   1 H        0.926     0.045     2.384     2.415
    72   1 H        0.926     0.046     2.364     2.405
    73   1 H        0.926     0.046     2.364     2.405
    74   1 H        0.926     0.045     2.382     2.414
    75   1 H        0.926     0.041     2.437     2.441
    76   1 H        0.926     0.046     2.368     2.406
    77   1 H        0.926     0.052     2.295     2.369
    78   1 H        0.926     0.028     2.614     2.528
    79   1 H        0.926     0.036     2.503     2.474
    80   1 H        0.926     0.035     2.513     2.479
    81   1 H        0.926     0.030     2.590     2.517
    82   1 H        0.925     0.015     2.818     2.625
    83   1 H        0.925     0.022     2.708     2.573
    84   1 H        0.926     0.032     2.555     2.500
    85   1 H        0.926     0.035     2.517     2.481
    86   1 H        0.926     0.035     2.521     2.483
    87   1 H        0.926     0.029     2.608     2.525
    88   1 H        0.926     0.023     2.685     2.562
    89   1 H        0.926     0.029     2.607     2.525
    90   1 H        0.926     0.034     2.535     2.490
    91   1 H        0.926     0.035     2.521     2.483
    92   1 H        0.926     0.031     2.575     2.509
    93   1 H        0.926     0.048     2.351     2.398

molecular dipole:
                 x           y           z       tot (Debye)
 q only:        0.371      -1.892       0.579
   full:        0.297      -2.114       0.652       5.673

 projected vibrational frequencies (cm⁻¹)
eigval :       -0.00    -0.00    -0.00    -0.00     0.00     0.00
eigval :        8.19     9.78    17.86    21.07    23.79    25.56
eigval :       28.64    31.29    33.73    34.79    36.24    41.27
eigval :       43.63    50.08    58.27    68.11    79.70    85.01
eigval :       90.14   100.48   104.03   128.07   128.77   137.85
eigval :      143.47   153.30   156.55   161.15   166.75   175.85
eigval :      186.10   188.21   194.47   202.98   213.34   216.94
eigval :      224.49   226.38   230.96   269.10   274.12   275.63
eigval :      292.43   320.47   329.99   356.78   359.23   360.77
eigval :      364.68   375.79   390.99   395.98   397.44   410.08
eigval :      414.45   424.04   424.67   427.54   430.95   433.37
eigval :      438.33   444.77   471.22   478.85   480.44   497.56
eigval :      515.02   515.31   532.29   538.43   539.90   541.49
eigval :      558.77   573.93   580.34   587.68   588.38   589.15
eigval :      589.88   596.57   632.60   639.83   645.41   649.52
eigval :      662.22   663.05   663.28   664.92   666.72   675.96
eigval :      678.82   683.53   702.59   704.68   710.29   712.42
eigval :      713.10   731.71   735.23   739.40   752.62   755.62
eigval :      764.09   773.37   775.61   782.24   782.83   786.65
eigval :      832.31   843.19   870.92   875.29   876.62   878.31
eigval :      881.99   884.41   887.37   891.96   893.50   899.13
eigval :      902.81   903.72   904.56   905.53   906.47   907.40
eigval :      911.11   911.39   914.20   921.87   923.28   926.93
eigval :      928.67   932.35   932.99   933.88   934.21   935.82
eigval :      942.09   974.09   975.59   976.33   985.11  1004.49
eigval :     1015.20  1023.34  1048.43  1053.96  1067.74  1070.19
eigval :     1072.96  1076.42  1082.64  1083.87  1084.33  1114.45
eigval :     1118.36  1119.49  1121.76  1141.33  1143.65  1146.00
eigval :     1146.45  1148.20  1149.02  1151.54  1155.88  1173.72
eigval :     1174.52  1175.76  1178.08  1179.13  1179.54  1184.03
eigval :     1203.12  1203.91  1204.59  1207.60  1219.85  1222.20
eigval :     1225.75  1236.31  1240.49  1245.74  1263.10  1270.90
eigval :     1283.25  1284.35  1285.06  1285.88  1287.53  1295.67
eigval :     1298.96  1307.56  1308.62  1309.22  1316.56  1347.84
eigval :     1348.63  1349.71  1356.22  1368.48  1401.46  1407.94
eigval :     1410.26  1415.58  1416.58  1417.63  1419.14  1420.09
eigval :     1420.85  1430.57  1460.72  1461.17  1461.63  1466.80
eigval :     1467.83  1478.83  1480.07  1486.34  1519.72  1532.51
eigval :     1562.02  1564.94  1572.54  1573.60  1574.17  1579.07
eigval :     1579.41  1589.15  1589.71  1590.28  1590.62  1591.89
eigval :     1596.90  1597.34  1608.07  1608.35  2365.77  3057.49
eigval :     3058.12  3063.38  3065.57  3066.91  3067.40  3069.38
eigval :     3071.05  3072.97  3075.13  3077.53  3078.05  3081.64
eigval :     3082.25  3082.33  3083.50  3085.33  3086.05  3086.57
eigval :     3086.86  3089.23  3089.48  3090.16  3091.20  3096.89
eigval :     3098.78  3098.86  3100.74  3100.81  3107.17  3121.90
eigval :     3123.10  3125.34  3126.21

   temp. (K)  partition function   enthalpy   heat capacity  entropy
                                   cal/mol     cal/K/mol   cal/K/mol   J/K/mol
 298.15  VIB  0.110E+25            28813.785    173.378    182.089
         ROT  0.139E+09              888.752      2.981     40.240
         INT  0.153E+33            29702.537    176.359    222.329
         TR   0.207E+29             1481.254      4.968     45.785
         TOT                       31183.7911   181.3271   268.1142  1121.7898

       T/K    H(0)-H(T)+PV         H(T)/Eh          T*S/Eh         G(T)/Eh
   ------------------------------------------------------------------------
    298.15    0.496945E-01    0.747717E+00    0.127390E+00    0.620327E+00
   ------------------------------------------------------------------------

         :::::::::::::::::::::::::::::::::::::::::::::::::::::
         ::                  THERMODYNAMIC                  ::
         :::::::::::::::::::::::::::::::::::::::::::::::::::::
         :: total free energy        -147.421857746029 Eh   ::
         ::.................................................::
         :: total energy             -148.042184784715 Eh   ::
         :: zero point energy           0.698022215200 Eh   ::
         :: G(RRHO) w/o ZPVE           -0.077695176514 Eh   ::
         :: G(RRHO) contrib.            0.620327038686 Eh   ::
         :::::::::::::::::::::::::::::::::::::::::::::::::::::

           -------------------------------------------------
          | TOTAL ENERGY             -148.042184784715 Eh   |
          | TOTAL ENTHALPY           -147.294468035205 Eh   |
          | TOTAL FREE ENERGY        -147.421857746029 Eh   |
          | GRADIENT NORM               0.000036384110 Eh/α |
          | HOMO-LUMO GAP               2.412271122056 eV   |
           -------------------------------------------------

 * finished run on 2025/09/12 at 03:34:29.022
