   * xtb version 6.7.1 (edcfbbe) compiled by 'albert@albert-system' on 2024-07-22

   ID    Z sym.   atoms
    1    7 N      1, 7, 9, 22, 24, 37
    2    6 C      2-6, 8, 10-21, 23, 25-36, 38, 39, 41-59
    3   14 Si     40
    4    1 H      60-93

          program call               : xtb data2507/toluene/SiCN2Cz/SiCN2Cz_toluene_T1_crest.xyz --gfn 2 --uhf 2 --gbsa toluene --ohess vtight --parallel 40 --molden --ceasefiles --namespace data2507/toluene/SiCN2Cz/SiCN2Cz_toluene_T1_finalOpt
      * Solvation model:               GBSA
        Solvent                        toluene
        Solvent mass                       9.2140E+01 g/mol
          :  Hamiltonian                  GFN2-xTB          :
 * total energy  :  -147.9512494 Eh     change       -0.1563046E-07 Eh
 * total energy  :  -147.9513337 Eh     change       -0.8435402E-04 Eh
 * total energy  :  -147.9513867 Eh     change       -0.5303993E-04 Eh
 * total energy  :  -147.9513311 Eh     change        0.5565999E-04 Eh
 * total energy  :  -147.9513961 Eh     change       -0.6497070E-04 Eh
 * total energy  :  -147.9514093 Eh     change       -0.1325710E-04 Eh
 * total energy  :  -147.9514309 Eh     change       -0.2154025E-04 Eh
 * total energy  :  -147.9514480 Eh     change       -0.1717109E-04 Eh
 * total energy  :  -147.9514736 Eh     change       -0.2559778E-04 Eh
 * total energy  :  -147.9515013 Eh     change       -0.2766450E-04 Eh
 * total energy  :  -147.9515796 Eh     change       -0.3073060E-06 Eh
 * total energy  :  -147.9515800 Eh     change       -0.3641998E-06 Eh
 * total energy  :  -147.9515804 Eh     change       -0.3813906E-06 Eh
 * total energy  :  -147.9515806 Eh     change       -0.2517815E-06 Eh
 * total energy  :  -147.9515808 Eh     change       -0.1555485E-06 Eh
 * total energy  :  -147.9515809 Eh     change       -0.1325010E-06 Eh
 * total energy  :  -147.9515811 Eh     change       -0.1785969E-06 Eh
 * total energy  :  -147.9515813 Eh     change       -0.2718681E-06 Eh
 * total energy  :  -147.9515814 Eh     change       -0.6283926E-08 Eh
   *** GEOMETRY OPTIMIZATION CONVERGED AFTER 68 ITERATIONS ***

 final structure:
================
93
 xtb: 6.7.1 (edcfbbe)
N            1.87850579837768        5.92257927165952       -1.16063018031454
C            1.79824352462074        4.79629038203952       -0.94625606530421
C            1.70264358260379        3.41639284322490       -0.67320087702933
C            0.45517046913305        2.82071555429433       -0.60354357029343
C            0.34536102894330        1.44259702538071       -0.33637252570245
C           -0.91299852346050        0.80302180389484       -0.25632335496538
N           -2.05762527133639        1.54527796868513       -0.30727704825120
C           -3.19017067328771        0.91377776180683       -0.17600706375997
N           -4.35495716383239        1.65232522770444       -0.17134871511635
C           -4.45356221297980        3.00028966602221        0.14889906048388
C           -3.47003576592928        3.89172112149695        0.55089516358178
C           -3.84761208356004        5.19547344180394        0.82260240590046
C           -5.17386590422417        5.60314696877601        0.71472603560700
C           -6.16365014904527        4.71233993118004        0.33438821658550
C           -5.80510310703494        3.40304341022073        0.05323328521356
C           -6.55498643108499        2.24030942229171       -0.34845745706280
C           -7.90012665196179        2.02298069530023       -0.60354987991972
C           -8.30546560165783        0.75592807088106       -0.98838083990805
C           -7.38372903412731       -0.27728436091653       -1.12725957885792
C           -6.03534426789160       -0.07907685091996       -0.88489388576926
C           -5.62601190418471        1.18183914030190       -0.47638212383314
N           -3.32039431642780       -0.42249659142326       -0.05373502371193
C           -2.15820050864326       -1.10354001452636       -0.06093673165722
N           -2.24022064656756       -2.47820969593201        0.00597315234678
C           -3.29381977976841       -3.21458485363607        0.53065045565263
C           -4.44821995844035       -2.78478846485661        1.16848842252314
C           -5.34174802367472       -3.74621201968875        1.60805994949610
C           -5.08926320397877       -5.10403145849219        1.43619101637445
C           -3.92733527397934       -5.53964062295518        0.82160004656806
C           -3.02117629178574       -4.59276614414127        0.36955342760425
C           -1.74258306034734       -4.68728467537192       -0.28801025700901
C           -0.97244177132167       -5.75749188651171       -0.71644480846975
C            0.22745974884732       -5.49490110530148       -1.35569253533271
C            0.65512598792021       -4.18813475738466       -1.56865168901695
C           -0.09636973409744       -3.10599510484821       -1.14470527338191
C           -1.29240350799435       -3.36307849511882       -0.49194818552498
N           -0.98054718448424       -0.55172084785624       -0.12176939527798
C            1.54102358795709        0.70585735995925       -0.13741723508678
C            2.77566337559986        1.30575581749823       -0.19115913262000
Si           4.36326916404290        0.31632391095064        0.16895582179650
C            5.58847585425379        0.72552821539559       -1.22214258488575
C            6.91971034795731        1.02444490703951       -0.94850970810417
C            7.81006235950562        1.30241675182406       -1.97101085003132
C            7.38073413355480        1.28943137151086       -3.28775559320004
C            6.05743034872231        0.99731361467067       -3.57666398409690
C            5.17123881970812        0.72097452693226       -2.55117574052474
C            5.06349875644371        0.82422309979033        1.85749421628337
C            4.71510529341513        2.02273902434638        2.47380608130752
C            5.26152059139400        2.38401084323678        3.69289989221464
C            6.16924452672133        1.54757092970705        4.32126022965828
C            6.52321365525804        0.34780573619580        3.72523548292296
C            5.97329761593293       -0.00834008248059        2.50731640968755
C            3.99840349495808       -1.54322022933670        0.21731724183842
C            4.52061154942230       -2.41569977425228       -0.73333424817339
C            4.27052888144548       -3.77522806264057       -0.66626883522097
C            3.48292599203994       -4.28671016471958        0.35149003074717
C            2.95294778973096       -3.43243038403460        1.30482985034528
C            3.21420499676893       -2.07620866486933        1.23868445972510
C            2.87532254691996        2.66930787624220       -0.47233510503272
H           -0.43939271463113        3.40168263623192       -0.77215540872025
H           -2.44524711545420        3.57197137256414        0.64788953341855
H           -3.09555936692701        5.90659795094416        1.13000716252952
H           -5.43200427439335        6.62706632787668        0.93854682276318
H           -7.19286397801370        5.02700129758794        0.25875441169718
H           -8.61256745166468        2.82699136054670       -0.50346893197065
H           -9.34842222945295        0.56676315007539       -1.19231949049059
H           -7.72233061872456       -1.25422255908651       -1.43766266651011
H           -5.32234133682900       -0.87812258218064       -1.00514538568515
H           -4.64235812090237       -1.73427468344285        1.31091759197896
H           -6.25015705677653       -3.43215102733890        2.09951643474708
H           -5.80726297909734       -5.82557754451812        1.79545244851241
H           -3.72700383202630       -6.59249609509912        0.69722375279230
H           -1.30713803764850       -6.77102865421061       -0.55874222833350
H            0.83831040359490       -6.31407118615911       -1.70339645522384
H            1.58976330653344       -4.01005204536427       -2.07717824079314
H            0.23329320424973       -2.09377212626400       -1.31485804173803
H            1.44450359838671       -0.34780675495815        0.07467189522529
H            7.25901476467661        1.03987532982618        0.07697600032219
H            8.84056920362514        1.53168135943066       -1.74012341676727
H            8.07329067102340        1.51013888250173       -4.08710608518137
H            5.71602209301941        0.98843273101639       -4.60207641482846
H            4.13804453064180        0.50005538200449       -2.78112040332238
H            4.00314960533622        2.67958820756346        1.99454687714341
H            4.97796153382501        3.31972824885555        4.15372647074411
H            6.59632368578396        1.82826535075685        5.27311939283297
H            7.22919403503252       -0.31015980165410        4.21161568438751
H            6.25033475633785       -0.94667170935357        2.04824230732732
H            5.13618156225706       -2.02264073575486       -1.52957081105993
H            4.69069897536171       -4.43742696183990       -1.41002022064007
H            3.28291499102058       -5.34669891499431        0.40467052853576
H            2.33660869991663       -3.82595055115533        2.10082164822234
H            2.80908897655907       -1.41665569312460        1.99378834845611
H            3.83621076486538        3.15470182148932       -0.54452222860424

          :  Hamiltonian                  GFN2-xTB          :
         :: gradient norm              0.000097049333 Eh/a0 ::
         :: HOMO-LUMO gap              0.550389016470 eV    ::
         :: SCC energy              -150.701346712594 Eh    ::
         :: -> dispersion             -0.139547198659 Eh    ::
         :: -> Gsolv                  -0.068012317027 Eh    ::
         :: repulsion energy           2.749765360000 Eh    ::

    * Orbital Energies and Occupations

         #    Occupation            Energy/Eh            Energy/eV
      -------------------------------------------------------------
         1        2.0000           -0.7638966             -20.7867
       ...           ...                  ...                  ...
       127        2.0000           -0.4080282             -11.1030
       128        2.0000           -0.4076023             -11.0914
       129        2.0000           -0.4056473             -11.0382
       130        2.0000           -0.3976031             -10.8193
       131        2.0000           -0.3973688             -10.8130
       132        1.9999           -0.3957847             -10.7698
       133        1.9991           -0.3937057             -10.7133
       134        1.9960           -0.3922665             -10.6741
       135        1.9938           -0.3918567             -10.6630
       136        1.9302           -0.3894967             -10.5987
       137        1.6670           -0.3876956             -10.5497
       138        1.4141           -0.3867061             -10.5228
       139        1.0000           -0.2931698              -7.9776 (HOMO)
       140        0.0000           -0.2729434              -7.4272 (LUMO)
       141                         -0.2649668              -7.2101
       142                         -0.2627000              -7.1484
       143                         -0.2567669              -6.9870
       144                         -0.2470419              -6.7224
       145                         -0.2422900              -6.5930
       146                         -0.2407174              -6.5503
       147                         -0.2404168              -6.5421
       148                         -0.2399939              -6.5306
       149                         -0.2321113              -6.3161
       150                         -0.2272127              -6.1828
       ...                                ...                  ...
       275                          1.1592479              31.5447
      -------------------------------------------------------------
                  HL-Gap            0.0202264 Eh            0.5504 eV

     #   Z          covCN         q      C6AA      α(0)
     1   7 N        0.911    -0.289    27.443     7.577
     2   6 C        1.915     0.116    28.246     8.583
     3   6 C        2.967     0.007    27.850     8.656
     4   6 C        2.930    -0.033    28.827     8.805
     5   6 C        2.974    -0.016    28.398     8.741
     6   6 C        2.944     0.157    24.608     8.136
     7   7 N        1.845    -0.313    28.962     7.976
     8   6 C        2.885     0.270    22.452     7.768
     9   7 N        2.809    -0.041    22.041     6.973
    10   6 C        3.061     0.056    26.693     8.472
    11   6 C        2.910    -0.042    29.053     8.838
    12   6 C        2.923    -0.031    28.779     8.797
    13   6 C        2.920    -0.032    28.809     8.802
    14   6 C        2.912    -0.030    28.760     8.794
    15   6 C        3.062    -0.013    28.264     8.718
    16   6 C        3.063    -0.012    28.260     8.717
    17   6 C        2.912    -0.030    28.755     8.793
    18   6 C        2.920    -0.033    28.812     8.802
    19   6 C        2.923    -0.031    28.784     8.798
    20   6 C        2.910    -0.043    29.057     8.839
    21   6 C        3.060     0.056    26.693     8.473
    22   7 N        1.847    -0.347    29.881     8.101
    23   6 C        2.883     0.269    22.472     7.772
    24   7 N        2.809    -0.042    22.050     6.974
    25   6 C        3.060     0.056    26.692     8.472
    26   6 C        2.910    -0.042    29.049     8.838
    27   6 C        2.923    -0.031    28.785     8.798
    28   6 C        2.920    -0.033    28.819     8.803
    29   6 C        2.912    -0.030    28.761     8.794
    30   6 C        3.063    -0.012    28.261     8.718
    31   6 C        3.062    -0.013    28.264     8.718
    32   6 C        2.912    -0.031    28.762     8.794
    33   6 C        2.920    -0.032    28.809     8.802
    34   6 C        2.923    -0.031    28.762     8.795
    35   6 C        2.910    -0.042    29.049     8.838
    36   6 C        3.062     0.056    26.696     8.473
    37   7 N        1.846    -0.301    28.655     7.934
    38   6 C        2.938    -0.044    29.082     8.844
    39   6 C        2.858    -0.086    30.159     9.001
    40  14 Si       3.613     0.501    97.898    18.993
    41   6 C        2.863    -0.089    30.218     9.011
    42   6 C        2.935    -0.032    28.796     8.801
    43   6 C        2.917    -0.029    28.717     8.788
    44   6 C        2.920    -0.027    28.680     8.782
    45   6 C        2.917    -0.029    28.736     8.790
    46   6 C        2.937    -0.030    28.759     8.795
    47   6 C        2.862    -0.090    30.264     9.017
    48   6 C        2.933    -0.032    28.786     8.799
    49   6 C        2.917    -0.030    28.744     8.792
    50   6 C        2.920    -0.027    28.687     8.783
    51   6 C        2.917    -0.029    28.735     8.790
    52   6 C        2.938    -0.031    28.785     8.799
    53   6 C        2.862    -0.091    30.282     9.020
    54   6 C        2.934    -0.033    28.811     8.803
    55   6 C        2.917    -0.030    28.739     8.791
    56   6 C        2.920    -0.027    28.677     8.782
    57   6 C        2.917    -0.029    28.737     8.791
    58   6 C        2.938    -0.030    28.748     8.794
    59   6 C        2.942    -0.049    29.209     8.864
    60   1 H        0.926     0.032     2.552     2.498
    61   1 H        0.926     0.047     2.355     2.400
    62   1 H        0.926     0.044     2.392     2.418
    63   1 H        0.926     0.050     2.321     2.382
    64   1 H        0.926     0.052     2.293     2.368
    65   1 H        0.926     0.051     2.307     2.375
    66   1 H        0.926     0.050     2.318     2.381
    67   1 H        0.926     0.047     2.355     2.400
    68   1 H        0.926     0.051     2.303     2.373
    69   1 H        0.926     0.048     2.343     2.394
    70   1 H        0.926     0.046     2.367     2.406
    71   1 H        0.926     0.049     2.328     2.386
    72   1 H        0.926     0.051     2.310     2.377
    73   1 H        0.926     0.052     2.296     2.370
    74   1 H        0.926     0.050     2.316     2.380
    75   1 H        0.926     0.046     2.376     2.410
    76   1 H        0.926     0.046     2.377     2.411
    77   1 H        0.926     0.034     2.536     2.490
    78   1 H        0.926     0.029     2.602     2.523
    79   1 H        0.926     0.037     2.492     2.469
    80   1 H        0.926     0.037     2.487     2.466
    81   1 H        0.926     0.034     2.536     2.490
    82   1 H        0.925     0.023     2.690     2.565
    83   1 H        0.926     0.021     2.718     2.578
    84   1 H        0.926     0.032     2.565     2.504
    85   1 H        0.926     0.036     2.501     2.473
    86   1 H        0.926     0.036     2.498     2.472
    87   1 H        0.926     0.027     2.624     2.533
    88   1 H        0.926     0.029     2.601     2.522
    89   1 H        0.926     0.037     2.495     2.470
    90   1 H        0.926     0.037     2.493     2.469
    91   1 H        0.926     0.028     2.609     2.526
    92   1 H        0.925     0.021     2.724     2.581
    93   1 H        0.926     0.021     2.714     2.576

molecular dipole:
                 x           y           z       tot (Debye)
 q only:       -0.985      -3.123       0.506
   full:       -0.979      -3.297       0.588       8.868

 projected vibrational frequencies (cm⁻¹)
eigval :       -0.00    -0.00    -0.00     0.00     0.00     0.00
eigval :       -0.75    10.28    13.03    18.74    25.34    27.18
eigval :       29.81    30.16    30.51    34.51    37.98    38.82
eigval :       40.71    44.28    46.11    71.03    79.27    84.21
eigval :       85.84   100.17   105.83   120.75   129.35   137.57
eigval :      140.10   149.07   155.38   158.52   161.03   163.59
eigval :      167.98   177.84   192.42   205.14   210.43   211.22
eigval :      216.55   217.14   226.82   266.23   271.02   273.00
eigval :      283.03   315.70   319.19   357.85   358.74   360.12
eigval :      361.40   365.90   378.39   389.47   393.00   409.59
eigval :      413.65   417.00   421.13   424.42   428.99   432.48
eigval :      433.42   439.14   465.21   467.79   473.25   484.06
eigval :      505.95   511.63   512.92   519.11   533.14   535.36
eigval :      550.76   559.06   570.35   584.36   586.76   587.39
eigval :      587.99   588.36   591.98   603.19   607.83   620.44
eigval :      628.40   635.67   657.50   658.62   660.70   662.27
eigval :      668.03   673.78   675.18   679.72   696.75   699.52
eigval :      708.71   711.57   733.14   734.10   736.60   741.41
eigval :      753.44   759.93   768.03   770.06   776.63   780.97
eigval :      784.23   808.57   825.82   859.01   864.71   868.34
eigval :      870.51   874.55   875.17   878.24   879.76   880.64
eigval :      892.77   901.50   902.65   904.63   905.08   905.27
eigval :      906.23   906.79   908.01   918.45   919.99   922.93
eigval :      927.75   931.54   931.92   932.55   933.60   933.82
eigval :      934.40   955.61   963.68   966.66   970.83   972.14
eigval :      997.02  1012.11  1014.73  1031.23  1062.89  1064.35
eigval :     1066.22  1068.93  1081.84  1082.68  1083.63  1096.35
eigval :     1098.17  1118.85  1119.31  1119.70  1123.78  1131.35
eigval :     1133.84  1134.94  1135.55  1139.35  1139.91  1148.53
eigval :     1169.43  1170.45  1173.14  1173.38  1180.33  1180.53
eigval :     1180.66  1193.47  1201.95  1203.19  1204.82  1206.67
eigval :     1210.06  1219.99  1222.92  1232.28  1241.03  1245.87
eigval :     1277.18  1279.05  1284.02  1285.64  1286.55  1286.79
eigval :     1287.84  1305.45  1307.74  1308.14  1309.61  1320.23
eigval :     1325.92  1326.72  1337.07  1354.32  1357.73  1359.56
eigval :     1376.51  1401.69  1403.10  1404.41  1406.43  1415.04
eigval :     1415.76  1416.76  1431.40  1434.67  1444.61  1454.63
eigval :     1457.00  1458.05  1458.26  1459.61  1475.79  1476.52
eigval :     1515.47  1544.61  1555.58  1556.16  1568.54  1569.54
eigval :     1570.75  1572.54  1573.05  1574.88  1575.97  1579.34
eigval :     1580.08  1584.96  1594.25  1597.29  2350.23  3058.78
eigval :     3060.30  3063.35  3065.31  3066.28  3067.01  3071.22
eigval :     3071.46  3071.77  3075.31  3077.15  3077.87  3084.65
eigval :     3085.12  3085.34  3085.67  3085.91  3086.30  3086.90
eigval :     3087.10  3088.20  3090.02  3091.21  3092.31  3092.54
eigval :     3095.51  3099.96  3100.36  3101.24  3101.87  3108.86
eigval :     3110.02  3112.33  3113.06

   temp. (K)  partition function   enthalpy   heat capacity  entropy
                                   cal/mol     cal/K/mol   cal/K/mol   J/K/mol
 298.15  VIB  0.170E+24            28718.716    174.664    179.904
         ROT  0.142E+09              888.752      2.981     40.286
         INT  0.241E+32            29607.468    177.645    220.190
         TR   0.207E+29             1481.254      4.968     45.785
         TOT                       31088.7219   182.6134   265.9753  1112.8408

       T/K    H(0)-H(T)+PV         H(T)/Eh          T*S/Eh         G(T)/Eh
   ------------------------------------------------------------------------
    298.15    0.495430E-01    0.741473E+00    0.126373E+00    0.615100E+00
   ------------------------------------------------------------------------

         :::::::::::::::::::::::::::::::::::::::::::::::::::::
         ::                  THERMODYNAMIC                  ::
         :::::::::::::::::::::::::::::::::::::::::::::::::::::
         :: total free energy        -147.336481567471 Eh   ::
         ::.................................................::
         :: total energy             -147.951581363305 Eh   ::
         :: zero point energy           0.691930232836 Eh   ::
         :: G(RRHO) w/o ZPVE           -0.076830437002 Eh   ::
         :: G(RRHO) contrib.            0.615099795834 Eh   ::
         :::::::::::::::::::::::::::::::::::::::::::::::::::::

           -------------------------------------------------
          | TOTAL ENERGY             -147.951581363305 Eh   |
          | TOTAL ENTHALPY           -147.210108098631 Eh   |
          | TOTAL FREE ENERGY        -147.336481567471 Eh   |
          | GRADIENT NORM               0.000096044834 Eh/α |
          | HOMO-LUMO GAP               0.550388299092 eV   |
           -------------------------------------------------

 * finished run on 2025/09/12 at 03:50:45.963
