   * xtb version 6.7.1 (edcfbbe) compiled by 'albert@albert-system' on 2024-07-22

   ID    Z sym.   atoms
    1    6 C      1-20, 22-25, 29-32, 34-54, 57
    2    7 N      21, 33, 55, 56
    3   16 S      26
    4    8 O      27, 28
    5    1 H      58-111

          program call               : xtb data2507/toluene/pDTCz-2DPyS/pDTCz-2DPyS_toluene_S0_finalOpt.xtbopt.xyz --gfn 2 --uhf 2 --gbsa toluene --ohess vtight --parallel 40 --molden --ceasefiles --namespace data2507/toluene/pDTCz-2DPyS/pDTCz-2DPyS_toluene_T1_preOpt
      * Solvation model:               GBSA
        Solvent                        toluene
        Solvent mass                       9.2140E+01 g/mol
          :  Hamiltonian                  GFN2-xTB          :
 * total energy  :  -157.7620866 Eh     change       -0.6891156E-08 Eh
 * total energy  :  -157.7664397 Eh     change       -0.4353147E-02 Eh
 * total energy  :  -157.7680892 Eh     change       -0.1649503E-02 Eh
 * total energy  :  -157.7684194 Eh     change       -0.3301800E-03 Eh
 * total energy  :  -157.7687162 Eh     change       -0.2968344E-03 Eh
 * total energy  :  -157.7688852 Eh     change       -0.1690146E-03 Eh
 * total energy  :  -157.7690438 Eh     change       -0.1585782E-03 Eh
 * total energy  :  -157.7691594 Eh     change       -0.1156157E-03 Eh
 * total energy  :  -157.7692243 Eh     change       -0.6484194E-04 Eh
 * total energy  :  -157.7692788 Eh     change       -0.5451011E-04 Eh
 * total energy  :  -157.7694854 Eh     change       -0.1263803E-05 Eh
 * total energy  :  -157.7694866 Eh     change       -0.1203211E-05 Eh
 * total energy  :  -157.7694878 Eh     change       -0.1204098E-05 Eh
 * total energy  :  -157.7694889 Eh     change       -0.1103568E-05 Eh
 * total energy  :  -157.7694897 Eh     change       -0.8275407E-06 Eh
 * total energy  :  -157.7694902 Eh     change       -0.5180323E-06 Eh
 * total energy  :  -157.7694906 Eh     change       -0.3632855E-06 Eh
 * total energy  :  -157.7694909 Eh     change       -0.3410794E-06 Eh
 * total energy  :  -157.7694909 Eh     change       -0.3518750E-08 Eh
   *** GEOMETRY OPTIMIZATION CONVERGED AFTER 44 ITERATIONS ***

 final structure:
================
111
 xtb: 6.7.1 (edcfbbe)
C            2.51709973762532       -3.14377748904829       -2.49584748201630
C            1.02543020083595       -3.46927471592071       -2.37762933398341
C            0.52120546510372       -3.95595808024900       -3.74552261540486
C            0.86778074477010       -4.58741422171433       -1.33734942335987
C            0.19463821139281       -2.26730562566091       -1.95826200474542
C            0.74344897754331       -0.98719894783462       -1.84568406741209
C           -0.01362130798878        0.11742221348467       -1.50167445187170
C           -1.36552964476312       -0.06604218655533       -1.25721112779721
C           -1.94204392520534       -1.35367241282809       -1.33470968123750
C           -1.16521065250906       -2.43795193019532       -1.69610947203573
C           -3.33225353423419       -1.19443024221143       -0.98204677808984
C           -4.39717518800638       -2.07064671028264       -0.89245277173696
C           -5.66258953041754       -1.59914693935005       -0.54011601170983
C           -6.82064764080673       -2.58196273591846       -0.46512597633043
C           -6.48951435651896       -3.67328117069204        0.56455011725401
C           -7.01947675884677       -3.21859651919090       -1.84967033607696
C           -8.13858219923196       -1.92085105478158       -0.05074832559386
C           -5.82132622190657       -0.23316202995079       -0.28739642045480
C           -4.77301096037888        0.66659332809768       -0.36840014620464
C           -3.51927580458656        0.18112041718782       -0.70671484846948
N           -2.32409918710034        0.84915697843354       -0.87470506310218
C           -2.08558544105697        2.21056449176593       -0.71101143897855
C           -2.46572826926022        2.90775534856628        0.46448258735403
C           -2.08270647129342        4.21167392116006        0.60999578632261
C           -1.32805653719257        4.81937845787231       -0.41283578582152
S           -0.16635420082552        6.06532080766648        0.09664434030189
O           -0.69920554780294        6.78839960640086        1.23423702558585
O            0.32158982373004        6.86530607286318       -1.00929642715419
C            1.06572502391592        4.86630616441625        0.55139644464557
C            1.80892235362802        4.31415263406584       -0.51152135673964
C            2.25380619540835        3.02587055346679       -0.40815051150878
C            1.95454850439729        2.28994131233203        0.76631834141747
N            2.26877673984585        0.94079038939073        0.89722663322246
C            3.48176202509802        0.33414802095544        0.64049758688834
C            4.68373068872927        0.88076930242441        0.21300526022274
C            5.75613949946691        0.02852970833140        0.03885251285310
C            5.68130241470440       -1.34950410793318        0.28478409808814
C            6.91857883836674       -2.20508707110104        0.06352028114655
C            8.04438130659000       -1.70372314418344        0.98130509655926
C            6.67639413394193       -3.68552283472127        0.37323264619870
C            7.35506078950355       -2.08817375538520       -1.40513624469479
C            4.47682897205962       -1.88013917926491        0.73624605800029
C            3.38418323508187       -1.04817225703704        0.91949904236042
C            2.03526415310168       -1.27800348854144        1.37439297549317
C            1.35337327920098       -2.40589551602690        1.80050965669980
C            0.01393133739891       -2.30725284617229        2.16434355058333
C           -0.78534462227779       -3.49426620834652        2.67669791546611
C            0.05792624631277       -4.76651950467353        2.80599825824133
C           -1.34722366964838       -3.15777953996256        4.06727446230349
C           -1.93865441745863       -3.77473758068731        1.70334008408365
C           -0.62070219951144       -1.06226090130509        2.05564672711024
C            0.03928607691294        0.08059631468326        1.65373332423938
C            1.38657807332334       -0.02453956595369        1.33617389677979
C            1.30151179104664        2.96652744823732        1.80345201301634
N            0.86580925960021        4.19633534273129        1.69763826604527
N           -1.05508280114269        4.18327497809443       -1.56472545043382
C           -1.42565093127845        2.93597276452759       -1.70859885662385
H            3.06428086447865       -4.04769000761784       -2.75605098129400
H            2.90699804125640       -2.76737814992368       -1.55301719111785
H            2.70143699818683       -2.41004185654263       -3.27715401992703
H           -0.52665686917571       -4.24070530585062       -3.70169582808110
H            0.62874446623636       -3.16885288390158       -4.48930856089822
H            1.09824625148384       -4.81905058109281       -4.07039905984706
H            1.53334030902724       -5.41427998035948       -1.57541934051058
H           -0.14735798469995       -4.97276134090011       -1.31288208689236
H            1.12010713770935       -4.20568873579981       -0.35129038471266
H            1.79312318685422       -0.83433703085942       -2.02986056557701
H            0.43592833453980        1.09607549229225       -1.42374264854030
H           -1.62502106550299       -3.40970561774454       -1.77661359832986
H           -4.23644677837711       -3.11554710618551       -1.10267068109532
H           -7.32397774596952       -4.36560511843309        0.65192208608081
H           -6.30842527074222       -3.22778290046237        1.54060667436587
H           -5.60884238930764       -4.23891550995826        0.27564109364135
H           -7.22791008001009       -2.44983815687878       -2.59123215196142
H           -7.85941908538762       -3.90938643726050       -1.82430441024758
H           -6.13697067400076       -3.76719146895105       -2.16621362051104
H           -8.05796682245764       -1.46586008417989        0.93394107094269
H           -8.44397558945793       -1.16499511562665       -0.77085634525570
H           -8.92195463319204       -2.67486764996294       -0.00741290420840
H           -6.79063639191456        0.15616222307881       -0.02581724693028
H           -4.93576066877386        1.71847944121822       -0.18861513757522
H           -3.01093599042859        2.39222407893517        1.24083053598512
H           -2.28881981284296        4.78966975961247        1.49572339407038
H            1.95681426907943        4.91819309480545       -1.39128655611891
H            2.78884062362162        2.55157673564372       -1.21714804150482
H            4.78655375965999        1.94025084348420        0.03457699643074
H            6.68830912464900        0.45703371169233       -0.29437211755585
H            8.31173188061067       -0.67418750796954        0.76018909152628
H            8.93177395661530       -2.31966750613733        0.85221785482268
H            7.73485800514982       -1.75904974212992        2.02322076331622
H            7.59206398797917       -4.24501029681018        0.19335557965302
H            6.39802559722496       -3.82755722575143        1.41488606987968
H            5.90092589321157       -4.09872686753510       -0.26701744980162
H            6.55684955631996       -2.42324257097022       -2.06420692107530
H            8.23180212788601       -2.70728638692689       -1.58257947504423
H            7.60595651950457       -1.06399243016098       -1.66651425630565
H            4.37358398293670       -2.92976221792753        0.95243409576390
H            1.88025844089470       -3.34362289325659        1.85277252740422
H            0.43903181729671       -5.08831971663390        1.84040727534304
H           -0.56033169743840       -5.56889725940964        3.20316300112676
H            0.89000713013675       -4.61627231707513        3.49014009785008
H           -1.89708050264145       -4.00964215354710        4.46152774231430
H           -0.53727635742083       -2.92236600582227        4.75508312137849
H           -2.02209480863180       -2.30734554447349        4.03255735225031
H           -1.54204898830301       -4.00220507176737        0.71774575250578
H           -2.52181088328039       -4.62362089062418        2.05323327536760
H           -2.59939186170422       -2.91743048190888        1.61226055633702
H           -1.66795286226983       -0.97948838610739        2.30003772564226
H           -0.47562626844329        1.02754644351017        1.58715922447526
H            1.13971149683977        2.48507541415240        2.75932317180086
H           -1.20224095154739        2.48026995815260       -2.66474562951531

          :  Hamiltonian                  GFN2-xTB          :
         :: gradient norm              0.000058207705 Eh/a0 ::
         :: HOMO-LUMO gap              0.622598687416 eV    ::
         :: SCC energy              -160.315856195558 Eh    ::
         :: -> dispersion             -0.164118079926 Eh    ::
         :: -> Gsolv                  -0.071078736130 Eh    ::
         :: repulsion energy           2.546365243747 Eh    ::

    * Orbital Energies and Occupations

         #    Occupation            Energy/Eh            Energy/eV
      -------------------------------------------------------------
         1        2.0000           -0.7642639             -20.7967
       ...           ...                  ...                  ...
       135        2.0000           -0.4180255             -11.3751
       136        2.0000           -0.4165381             -11.3346
       137        2.0000           -0.4158591             -11.3161
       138        2.0000           -0.4148801             -11.2895
       139        2.0000           -0.4110203             -11.1844
       140        2.0000           -0.4071834             -11.0800
       141        2.0000           -0.3928181             -10.6891
       142        2.0000           -0.3914925             -10.6531
       143        2.0000           -0.3871839             -10.5358
       144        2.0000           -0.3821178             -10.3980
       145        1.8461           -0.3703386             -10.0774
       146        1.1539           -0.3670997              -9.9893
       147        1.0000           -0.2873606              -7.8195 (HOMO)
       148        0.0000           -0.2644805              -7.1969 (LUMO)
       149                         -0.2570719              -6.9953
       150                         -0.2560142              -6.9665
       151                         -0.2514892              -6.8434
       152                         -0.2480644              -6.7502
       153                         -0.2359951              -6.4218
       154                         -0.2329165              -6.3380
       155                         -0.2076648              -5.6508
       156                         -0.2058610              -5.6018
       157                         -0.1996352              -5.4324
       158                         -0.1959002              -5.3307
       ...                                ...                  ...
       287                          1.1783013              32.0632
      -------------------------------------------------------------
                  HL-Gap            0.0228801 Eh            0.6226 eV

     #   Z          covCN         q      C6AA      α(0)
     1   6 C        3.761    -0.110    22.649     6.784
     2   6 C        3.903     0.027    20.057     6.366
     3   6 C        3.761    -0.107    22.592     6.776
     4   6 C        3.762    -0.108    22.611     6.778
     5   6 C        2.973     0.013    27.730     8.638
     6   6 C        2.927    -0.039    28.970     8.827
     7   6 C        2.908    -0.043    29.075     8.842
     8   6 C        3.081     0.041    26.995     8.518
     9   6 C        3.059    -0.010    28.218     8.711
    10   6 C        2.919    -0.032    28.810     8.802
    11   6 C        3.062    -0.011    28.224     8.712
    12   6 C        2.919    -0.033    28.831     8.805
    13   6 C        2.972     0.012    27.737     8.639
    14   6 C        3.903     0.027    20.059     6.366
    15   6 C        3.761    -0.109    22.622     6.780
    16   6 C        3.762    -0.108    22.606     6.778
    17   6 C        3.761    -0.110    22.647     6.784
    18   6 C        2.927    -0.040    28.997     8.831
    19   6 C        2.908    -0.044    29.102     8.846
    20   6 C        3.074     0.043    26.969     8.515
    21   7 N        2.799    -0.012    21.489     6.885
    22   6 C        2.908     0.027    27.406     8.584
    23   6 C        2.922    -0.035    28.862     8.810
    24   6 C        2.963    -0.044    29.092     8.847
    25   6 C        2.944    -0.013    28.348     8.732
    26  16 S        3.864     0.881   110.129    17.663
    27   8 O        0.860    -0.564    25.257     6.738
    28   8 O        0.860    -0.565    25.271     6.740
    29   6 C        2.944    -0.013    28.327     8.729
    30   6 C        2.966    -0.044    29.094     8.848
    31   6 C        2.922    -0.034    28.856     8.809
    32   6 C        2.907     0.028    27.387     8.581
    33   7 N        2.800    -0.013    21.494     6.886
    34   6 C        3.075     0.042    26.982     8.516
    35   6 C        2.907    -0.044    29.103     8.846
    36   6 C        2.929    -0.036    28.891     8.815
    37   6 C        2.972     0.012    27.745     8.640
    38   6 C        3.903     0.027    20.059     6.366
    39   6 C        3.761    -0.107    22.589     6.775
    40   6 C        3.761    -0.111    22.677     6.789
    41   6 C        3.761    -0.108    22.606     6.778
    42   6 C        2.916    -0.038    28.950     8.823
    43   6 C        3.064    -0.012    28.252     8.716
    44   6 C        3.061    -0.012    28.248     8.716
    45   6 C        2.917    -0.038    28.935     8.821
    46   6 C        2.973     0.013    27.726     8.637
    47   6 C        3.903     0.028    20.054     6.365
    48   6 C        3.761    -0.112    22.692     6.791
    49   6 C        3.762    -0.107    22.595     6.776
    50   6 C        3.762    -0.109    22.627     6.781
    51   6 C        2.930    -0.035    28.876     8.813
    52   6 C        2.908    -0.043    29.075     8.842
    53   6 C        3.082     0.040    27.009     8.520
    54   6 C        2.898     0.054    26.785     8.486
    55   7 N        1.878    -0.250    27.362     7.754
    56   7 N        1.880    -0.251    27.387     7.758
    57   6 C        2.897     0.054    26.777     8.484
    58   1 H        0.925     0.042     2.424     2.435
    59   1 H        0.925     0.041     2.434     2.440
    60   1 H        0.925     0.035     2.523     2.484
    61   1 H        0.925     0.040     2.449     2.447
    62   1 H        0.925     0.034     2.537     2.491
    63   1 H        0.925     0.045     2.388     2.417
    64   1 H        0.925     0.043     2.406     2.426
    65   1 H        0.925     0.040     2.455     2.450
    66   1 H        0.925     0.041     2.431     2.438
    67   1 H        0.926     0.048     2.342     2.393
    68   1 H        0.926     0.024     2.676     2.558
    69   1 H        0.926     0.053     2.283     2.363
    70   1 H        0.926     0.053     2.285     2.364
    71   1 H        0.925     0.043     2.416     2.431
    72   1 H        0.925     0.036     2.496     2.471
    73   1 H        0.925     0.044     2.398     2.422
    74   1 H        0.925     0.034     2.531     2.488
    75   1 H        0.925     0.043     2.411     2.428
    76   1 H        0.925     0.041     2.430     2.438
    77   1 H        0.925     0.038     2.479     2.462
    78   1 H        0.925     0.037     2.494     2.470
    79   1 H        0.925     0.041     2.440     2.443
    80   1 H        0.926     0.051     2.312     2.378
    81   1 H        0.926     0.035     2.515     2.480
    82   1 H        0.926     0.060     2.196     2.317
    83   1 H        0.926     0.052     2.297     2.370
    84   1 H        0.926     0.052     2.292     2.368
    85   1 H        0.926     0.061     2.185     2.311
    86   1 H        0.926     0.035     2.520     2.483
    87   1 H        0.926     0.043     2.410     2.427
    88   1 H        0.925     0.037     2.488     2.467
    89   1 H        0.925     0.042     2.421     2.433
    90   1 H        0.925     0.035     2.521     2.483
    91   1 H        0.925     0.040     2.444     2.445
    92   1 H        0.925     0.039     2.457     2.451
    93   1 H        0.925     0.043     2.415     2.430
    94   1 H        0.925     0.038     2.472     2.459
    95   1 H        0.925     0.042     2.422     2.434
    96   1 H        0.925     0.038     2.482     2.464
    97   1 H        0.926     0.058     2.218     2.329
    98   1 H        0.926     0.059     2.212     2.326
    99   1 H        0.925     0.044     2.399     2.422
   100   1 H        0.925     0.042     2.424     2.435
   101   1 H        0.925     0.038     2.476     2.461
   102   1 H        0.925     0.043     2.403     2.424
   103   1 H        0.925     0.034     2.536     2.490
   104   1 H        0.925     0.037     2.492     2.469
   105   1 H        0.925     0.043     2.414     2.430
   106   1 H        0.925     0.045     2.387     2.416
   107   1 H        0.925     0.037     2.484     2.465
   108   1 H        0.926     0.041     2.434     2.440
   109   1 H        0.926     0.023     2.689     2.564
   110   1 H        0.925     0.053     2.279     2.361
   111   1 H        0.925     0.053     2.280     2.361

molecular dipole:
                 x           y           z       tot (Debye)
 q only:        0.177      -9.327      -0.182
   full:        0.150      -8.770      -0.180      22.298

 projected vibrational frequencies (cm⁻¹)
eigval :       -0.00    -0.00    -0.00     0.00     0.00     0.00
eigval :       14.31    18.69    24.82    26.42    29.92    32.65
eigval :       35.51    38.13    40.53    45.57    51.86    59.14
eigval :       63.84    65.13    76.32    78.90    84.21    88.65
eigval :       94.16   101.08   116.61   122.35   137.24   142.47
eigval :      154.04   155.68   158.12   164.07   173.64   177.28
eigval :      180.93   184.26   188.91   193.43   203.73   213.75
eigval :      218.16   223.80   225.95   231.14   241.71   245.83
eigval :      250.24   257.29   259.30   270.86   272.66   277.58
eigval :      291.10   299.67   303.86   310.92   314.47   318.11
eigval :      318.59   322.08   328.31   333.02   336.56   339.15
eigval :      349.67   352.35   356.49   358.26   368.81   376.80
eigval :      381.42   387.50   392.69   397.09   401.46   403.24
eigval :      404.93   407.85   411.31   420.76   422.90   442.27
eigval :      443.43   444.02   449.08   461.88   462.26   464.87
eigval :      470.20   486.62   487.04   506.54   515.80   518.29
eigval :      527.48   569.06   571.86   580.02   581.80   584.95
eigval :      586.54   596.17   596.69   617.86   621.81   636.53
eigval :      641.85   643.05   643.83   685.71   689.96   692.07
eigval :      693.79   706.24   708.45   714.55   714.82   738.66
eigval :      744.80   795.33   797.85   820.53   823.14   825.01
eigval :      828.00   829.81   831.98   868.18   870.24   871.28
eigval :      872.03   872.58   875.95   882.25   885.96   892.23
eigval :      896.10   910.60   912.07   913.58   914.19   918.14
eigval :      920.60   922.38   923.16   935.17   936.31   958.46
eigval :      958.99   959.38   960.27   961.26   961.88   962.08
eigval :      963.94   964.01   964.12   964.84   965.32   980.69
eigval :      986.46  1028.90  1032.06  1032.52  1033.53  1033.74
eigval :     1034.41  1034.85  1035.80  1039.38  1040.42  1044.78
eigval :     1045.57  1102.87  1105.40  1109.63  1124.79  1125.80
eigval :     1127.38  1130.89  1137.31  1141.95  1158.49  1161.07
eigval :     1181.44  1201.59  1202.53  1203.65  1216.59  1221.21
eigval :     1221.72  1221.85  1222.81  1223.75  1224.87  1226.00
eigval :     1226.95  1227.54  1230.68  1232.35  1241.75  1249.53
eigval :     1251.56  1273.11  1275.54  1285.52  1286.05  1289.14
eigval :     1292.96  1295.73  1298.47  1322.35  1329.44  1331.69
eigval :     1333.95  1334.79  1349.11  1354.11  1358.34  1397.59
eigval :     1398.81  1399.94  1401.17  1401.37  1401.61  1402.77
eigval :     1403.04  1403.83  1404.26  1407.60  1407.76  1419.35
eigval :     1421.83  1425.07  1425.96  1426.32  1427.32  1440.94
eigval :     1442.56  1450.72  1455.82  1464.31  1471.93  1476.64
eigval :     1483.46  1485.66  1486.69  1488.00  1488.31  1489.56
eigval :     1490.49  1491.55  1495.76  1496.05  1496.22  1497.89
eigval :     1499.22  1500.96  1501.47  1502.18  1509.04  1510.97
eigval :     1511.22  1511.73  1514.48  1515.24  1515.65  1519.31
eigval :     1551.69  1555.79  1558.32  1568.54  1568.99  1571.79
eigval :     1573.23  1588.88  1599.88  3020.81  3021.50  3022.69
eigval :     3023.36  3024.14  3024.34  3024.54  3024.92  3026.57
eigval :     3026.95  3027.09  3027.24  3028.67  3029.77  3030.32
eigval :     3030.72  3031.00  3032.09  3033.11  3033.66  3035.35
eigval :     3035.59  3036.91  3037.49  3039.86  3042.20  3042.57
eigval :     3044.36  3046.69  3046.81  3048.17  3048.42  3048.45
eigval :     3049.44  3050.16  3050.39  3053.70  3054.73  3078.85
eigval :     3081.35  3081.69  3084.84  3086.89  3087.75  3100.09
eigval :     3100.44  3102.30  3105.49  3110.11  3112.02  3120.82
eigval :     3125.88  3126.44  3127.82

   temp. (K)  partition function   enthalpy   heat capacity  entropy
                                   cal/mol     cal/K/mol   cal/K/mol   J/K/mol
 298.15  VIB  0.143E+25            33221.822    204.471    204.334
         ROT  0.113E+09              888.752      2.981     39.829
         INT  0.161E+33            34110.574    207.452    244.164
         TR   0.209E+29             1481.254      4.968     45.801
         TOT                       35591.8278   212.4202   289.9649  1213.2130

       T/K    H(0)-H(T)+PV         H(T)/Eh          T*S/Eh         G(T)/Eh
   ------------------------------------------------------------------------
    298.15    0.567192E-01    0.961657E+00    0.137772E+00    0.823886E+00
   ------------------------------------------------------------------------

         :::::::::::::::::::::::::::::::::::::::::::::::::::::
         ::                  THERMODYNAMIC                  ::
         :::::::::::::::::::::::::::::::::::::::::::::::::::::
         :: total free energy        -156.945605214199 Eh   ::
         ::.................................................::
         :: total energy             -157.769490952790 Eh   ::
         :: zero point energy           0.904938210584 Eh   ::
         :: G(RRHO) w/o ZPVE           -0.081052471993 Eh   ::
         :: G(RRHO) contrib.            0.823885738591 Eh   ::
         :::::::::::::::::::::::::::::::::::::::::::::::::::::

           -------------------------------------------------
          | TOTAL ENERGY             -157.769490952790 Eh   |
          | TOTAL ENTHALPY           -156.807833554225 Eh   |
          | TOTAL FREE ENERGY        -156.945605214199 Eh   |
          | GRADIENT NORM               0.000057960450 Eh/α |
          | HOMO-LUMO GAP               0.622599602037 eV   |
           -------------------------------------------------

 * finished run on 2025/09/05 at 07:24:23.812
