   * xtb version 6.7.1 (edcfbbe) compiled by 'albert@albert-system' on 2024-07-22

   ID    Z sym.   atoms
    1    6 C      1-20, 22-25, 29-32, 34-54, 57
    2    7 N      21, 33, 55, 56
    3   16 S      26
    4    8 O      27, 28
    5    1 H      58-111

          program call               : xtb data2507/toluene/pDTCz-2DPyS/pDTCz-2DPyS_toluene_S0_crest.xyz --gfn 2 --gbsa toluene --ohess vtight --parallel 40 --molden --ceasefiles --namespace data2507/toluene/pDTCz-2DPyS/pDTCz-2DPyS_toluene_S0_finalOpt
      * Solvation model:               GBSA
        Solvent                        toluene
        Solvent mass                       9.2140E+01 g/mol
          :  Hamiltonian                  GFN2-xTB          :
 * total energy  :  -157.8444139 Eh     change       -0.2454868E-08 Eh
 * total energy  :  -157.8446389 Eh     change       -0.2250333E-03 Eh
 * total energy  :  -157.8448008 Eh     change       -0.1618421E-03 Eh
 * total energy  :  -157.8448594 Eh     change       -0.5866429E-04 Eh
 * total energy  :  -157.8449476 Eh     change       -0.8816744E-04 Eh
 * total energy  :  -157.8450338 Eh     change       -0.8621306E-04 Eh
 * total energy  :  -157.8450998 Eh     change       -0.6600667E-04 Eh
 * total energy  :  -157.8451497 Eh     change       -0.4989584E-04 Eh
 * total energy  :  -157.8451866 Eh     change       -0.3688132E-04 Eh
 * total energy  :  -157.8452169 Eh     change       -0.3026598E-04 Eh
 * total energy  :  -157.8460306 Eh     change       -0.2354554E-06 Eh
 * total energy  :  -157.8460308 Eh     change       -0.2013440E-06 Eh
 * total energy  :  -157.8460310 Eh     change       -0.1764622E-06 Eh
 * total energy  :  -157.8460312 Eh     change       -0.2352976E-06 Eh
 * total energy  :  -157.8460315 Eh     change       -0.2898511E-06 Eh
 * total energy  :  -157.8460319 Eh     change       -0.3913932E-06 Eh
 * total energy  :  -157.8460323 Eh     change       -0.3709361E-06 Eh
 * total energy  :  -157.8460326 Eh     change       -0.3296717E-06 Eh
 * total energy  :  -157.8460326 Eh     change       -0.2735561E-08 Eh
   *** GEOMETRY OPTIMIZATION CONVERGED AFTER 122 ITERATIONS ***

 final structure:
================
111
 xtb: 6.7.1 (edcfbbe)
C            2.45305645948083       -3.04410025558854       -2.41774600304359
C            0.96268893164644       -3.38652083926771       -2.33099927778711
C            0.49583000179179       -3.88348668266135       -3.70775284941549
C            0.79728483220026       -4.50216918736956       -1.29047783966218
C            0.10796402775431       -2.19078175481504       -1.93450414085017
C            0.64153184880918       -0.90654999933501       -1.80936388521247
C           -0.13599403527537        0.19625859074052       -1.50601215650137
C           -1.49393887000756        0.01108085121712       -1.32043751931745
C           -2.04976065504421       -1.28132793565959       -1.38375914030707
C           -1.25117501044977       -2.36753313698809       -1.70501040940415
C           -3.44621136347856       -1.14390974433658       -1.05504934198544
C           -4.49188642533349       -2.04889950817511       -0.97796164518272
C           -5.76986243851922       -1.61240349509438       -0.64721895646896
C           -6.90024883104854       -2.62906461103440       -0.56041788879704
C           -6.54624765020415       -3.68091215671367        0.50172414191697
C           -7.06824140868603       -3.30796105252416       -1.92807418503122
C           -8.24160236256570       -1.99765587848252       -0.17525606575176
C           -5.96766956598114       -0.24887565347016       -0.41765533781989
C           -4.94104742731792        0.67797392585863       -0.49048026186829
C           -3.66992452427830        0.22435394780559       -0.79250134154417
N           -2.48379283513595        0.92508571259132       -0.96959145460611
C           -2.25236147943541        2.27824706916830       -0.80560611388737
C           -2.72045808616330        3.00530324504567        0.29547286917077
C           -2.24593722756364        4.29039766069233        0.49738570053506
C           -1.33095718822532        4.79718581204194       -0.41067007230241
S           -0.15288167363997        6.06931096940527        0.10573662819026
O           -0.66053268193236        6.78111407682881        1.25370737444759
O            0.33902004419029        6.86379591052397       -0.99405024316351
C            1.05106809751886        4.78827733697222        0.53498299076557
C            1.91536239171766        4.32186385433934       -0.44246718126722
C            2.43080390195288        3.04541221777302       -0.30082414966468
C            2.06229627796126        2.28602248752624        0.81731267817056
N            2.37632123863220        0.94632328788816        0.94932298620172
C            3.58365796799203        0.32024803128942        0.66242577122142
C            4.79175682411497        0.84771563115893        0.23699126436733
C            5.85370010345023       -0.01898795950173        0.06248308167728
C            5.76365662836683       -1.39472203517486        0.30875375815712
C            6.98751126893648       -2.26849664759444        0.07318263375883
C            8.13137475214297       -1.78861481313200        0.97905164691320
C            6.72360733946621       -3.74538124910421        0.38235283228502
C            7.40794963877279       -2.15712272180824       -1.40011479401566
C            4.55977651641958       -1.90333208116200        0.77116319674494
C            3.47576243216411       -1.05471382317033        0.95248190693321
C            2.13369393520760       -1.27592234406469        1.42505116864839
C            1.45722039854763       -2.41250378870608        1.84958544997812
C            0.12570567712099       -2.32228571805451        2.22301834951436
C           -0.66961043466409       -3.51078552972132        2.74370954128736
C            0.17032133292683       -4.78826900714379        2.83883298436865
C           -1.18996467442655       -3.18354824964686        4.15202077097370
C           -1.85053483330741       -3.77730431118333        1.80041455810731
C           -0.51215385329868       -1.08026875892344        2.11524831337421
C            0.14176893265297        0.06653940701838        1.71294149032433
C            1.48846525124870       -0.02582811208324        1.40207272183734
C            1.28034229612266        2.92056290680231        1.79554765816723
N            0.75941372256077        4.11850056961974        1.63457782323582
N           -0.96184080651103        4.16304976912347       -1.50926773563324
C           -1.43649535760940        2.95592119039233       -1.72558455536490
H            3.01581413461250       -3.94131701956181       -2.66855617661432
H            2.82000713357645       -2.66610006417844       -1.46625491188833
H            2.64477501070905       -2.30606245844538       -3.19331227875838
H           -0.55162124134371       -4.17301555084403       -3.68655885331109
H            0.61615318030954       -3.09921794582683       -4.45273430421181
H            1.08443526187714       -4.74532466841491       -4.01548028217100
H            1.47684062837702       -5.32327102013718       -1.50956137704021
H           -0.21434049751179       -4.89821291037289       -1.28567490846742
H            1.02392588102701       -4.11251317028218       -0.30105431825890
H            1.69699581879992       -0.74602518267134       -1.94987435310302
H            0.31936751807309        1.17105576387221       -1.40761801027507
H           -1.70295487945514       -3.34443361805705       -1.77302997459776
H           -4.29716532006485       -3.08955645924860       -1.18235705974226
H           -7.35691378513324       -4.39982386337209        0.60053548107352
H           -6.38960240587004       -3.20326099324076        1.46698183594770
H           -5.64253420254663       -4.22254484330520        0.23776207064556
H           -7.29504984214345       -2.56612899128701       -2.69150485414105
H           -7.88512472827259       -4.02575203911099       -1.89155068640957
H           -6.16528976782135       -3.83492973289469       -2.22343277450378
H           -8.18441416186869       -1.51735236422048        0.79904450227712
H           -8.56019913885304       -1.26794259960699       -0.91639064818877
H           -9.00326507982555       -2.77318403247045       -0.12179192827983
H           -6.95089583254842        0.11996412951132       -0.17780912429744
H           -5.14478627792114        1.72578583241389       -0.32905172842073
H           -3.38356619645243        2.54689833113935        1.01300219423112
H           -2.51975636483607        4.87836697167326        1.35771809792435
H            2.11903556994695        4.93526012069461       -1.30435468703297
H            3.05295126675143        2.61884899981513       -1.07235725384979
H            4.91956393325743        1.90450013492435        0.05889186352348
H            6.78990962843555        0.39879509056679       -0.27417883598615
H            8.41210783677073       -0.76269330492580        0.75706514185848
H            9.00804129802240       -2.41790149270896        0.83967936407541
H            7.83174402920452       -1.84110974878429        2.02410635016799
H            7.62580253463404       -4.32186744607901        0.18768784554879
H            6.45661012442339       -3.88508629964179        1.42740077636033
H            5.93033342543939       -4.14147484539369       -0.24714504428457
H            6.59355187718289       -2.47317767884723       -2.04905817031702
H            8.26934528215346       -2.79352315035570       -1.59207759967552
H            7.67592950135422       -1.13715978215214       -1.66152481589605
H            4.44068850508230       -2.94855969070622        1.00071831004024
H            1.99074607945160       -3.34761450221361        1.88546599329025
H            0.52904420921725       -5.09873683417140        1.86087785888148
H           -0.44200020222830       -5.59337221471459        3.24011148932944
H            1.01876634005303       -4.64902197297468        3.50511232834015
H           -1.74310188270776       -4.03089062297167        4.55192654204521
H           -0.35840116627266       -2.96782089207853        4.82041653601115
H           -1.85126311358729       -2.32160928013981        4.14273487785334
H           -1.48547137605756       -3.96675500454266        0.79453407471561
H           -2.41250937322508       -4.64486500473419        2.14002456296631
H           -2.52589333212757       -2.92735965723148        1.75891520557783
H           -1.55975166447444       -1.00010609904595        2.36002966684691
H           -0.39407902888007        1.00120128713423        1.63662713454783
H            1.04630217907802        2.42667523758144        2.72799003924688
H           -1.13305806817581        2.48707512187525       -2.65108827765015

          :  Hamiltonian                  GFN2-xTB          :
         :: gradient norm              0.000037882148 Eh/a0 ::
         :: HOMO-LUMO gap              1.956578721331 eV    ::
         :: SCC energy              -160.407410435607 Eh    ::
         :: -> dispersion             -0.161578393546 Eh    ::
         :: -> Gsolv                  -0.059768576295 Eh    ::
         :: repulsion energy           2.561377826996 Eh    ::

    * Orbital Energies and Occupations

         #    Occupation            Energy/Eh            Energy/eV
      -------------------------------------------------------------
         1        2.0000           -0.7862481             -21.3949
       ...           ...                  ...                  ...
       134        2.0000           -0.4194883             -11.4149
       135        2.0000           -0.4145272             -11.2799
       136        2.0000           -0.4129717             -11.2375
       137        2.0000           -0.4127349             -11.2311
       138        2.0000           -0.4115898             -11.1999
       139        2.0000           -0.4053053             -11.0289
       140        2.0000           -0.4034379             -10.9781
       141        2.0000           -0.4005018             -10.8982
       142        2.0000           -0.3933154             -10.7027
       143        2.0000           -0.3832993             -10.4301
       144        2.0000           -0.3802765             -10.3478
       145        2.0000           -0.3695737             -10.0566
       146        2.0000           -0.3662975              -9.9675 (HOMO)
       147                         -0.2943946              -8.0109 (LUMO)
       148                         -0.2833638              -7.7107
       149                         -0.2728737              -7.4253
       150                         -0.2642305              -7.1901
       151                         -0.2491686              -6.7802
       152                         -0.2456217              -6.6837
       153                         -0.2262970              -6.1579
       154                         -0.2250906              -6.1250
       155                         -0.2036382              -5.5413
       156                         -0.1997850              -5.4364
       157                         -0.1918562              -5.2207
       ...                                ...                  ...
       287                          1.1869933              32.2997
      -------------------------------------------------------------
                  HL-Gap            0.0719029 Eh            1.9566 eV

     #   Z          covCN         q      C6AA      α(0)
     1   6 C        3.761    -0.107    22.599     6.777
     2   6 C        3.903     0.026    20.086     6.371
     3   6 C        3.761    -0.106    22.566     6.772
     4   6 C        3.762    -0.105    22.559     6.771
     5   6 C        2.973     0.004    27.936     8.670
     6   6 C        2.929    -0.040    29.004     8.832
     7   6 C        2.910    -0.053    29.310     8.877
     8   6 C        3.070     0.039    27.056     8.529
     9   6 C        3.059    -0.013    28.279     8.721
    10   6 C        2.921    -0.037    28.932     8.821
    11   6 C        3.063    -0.014    28.297     8.723
    12   6 C        2.920    -0.038    28.943     8.822
    13   6 C        2.972     0.003    27.954     8.672
    14   6 C        3.903     0.026    20.087     6.371
    15   6 C        3.761    -0.107    22.585     6.775
    16   6 C        3.761    -0.106    22.576     6.773
    17   6 C        3.761    -0.108    22.612     6.779
    18   6 C        2.929    -0.042    29.053     8.840
    19   6 C        2.909    -0.054    29.348     8.883
    20   6 C        3.061     0.041    27.020     8.524
    21   7 N        2.798    -0.041    22.025     6.970
    22   6 C        2.907     0.062    26.601     8.457
    23   6 C        2.930    -0.027    28.674     8.782
    24   6 C        2.942    -0.038    28.954     8.825
    25   6 C        2.963     0.006    27.876     8.660
    26  16 S        3.845     0.928   108.757    17.552
    27   8 O        0.860    -0.543    24.762     6.672
    28   8 O        0.860    -0.544    24.779     6.674
    29   6 C        2.963     0.008    27.842     8.655
    30   6 C        2.946    -0.039    28.965     8.827
    31   6 C        2.930    -0.027    28.684     8.783
    32   6 C        2.906     0.063    26.595     8.456
    33   7 N        2.798    -0.038    21.981     6.963
    34   6 C        3.063     0.041    27.026     8.525
    35   6 C        2.909    -0.054    29.330     8.880
    36   6 C        2.931    -0.038    28.939     8.822
    37   6 C        2.972     0.004    27.940     8.670
    38   6 C        3.902     0.026    20.084     6.370
    39   6 C        3.761    -0.106    22.568     6.772
    40   6 C        3.761    -0.109    22.631     6.782
    41   6 C        3.761    -0.106    22.581     6.774
    42   6 C        2.918    -0.043    29.060     8.840
    43   6 C        3.066    -0.015    28.311     8.725
    44   6 C        3.062    -0.014    28.301     8.724
    45   6 C        2.919    -0.042    29.054     8.839
    46   6 C        2.973     0.004    27.926     8.668
    47   6 C        3.903     0.026    20.081     6.370
    48   6 C        3.761    -0.110    22.641     6.783
    49   6 C        3.762    -0.106    22.573     6.773
    50   6 C        3.761    -0.106    22.578     6.774
    51   6 C        2.932    -0.036    28.906     8.817
    52   6 C        2.909    -0.052    29.286     8.874
    53   6 C        3.071     0.039    27.058     8.529
    54   6 C        2.917     0.047    26.945     8.512
    55   7 N        1.892    -0.235    26.994     7.702
    56   7 N        1.900    -0.235    26.996     7.703
    57   6 C        2.918     0.048    26.927     8.509
    58   1 H        0.925     0.038     2.469     2.457
    59   1 H        0.925     0.039     2.461     2.453
    60   1 H        0.925     0.033     2.545     2.495
    61   1 H        0.925     0.037     2.488     2.467
    62   1 H        0.925     0.032     2.561     2.502
    63   1 H        0.925     0.041     2.438     2.442
    64   1 H        0.925     0.039     2.462     2.454
    65   1 H        0.925     0.036     2.505     2.475
    66   1 H        0.925     0.039     2.462     2.454
    67   1 H        0.926     0.041     2.431     2.438
    68   1 H        0.926     0.013     2.850     2.640
    69   1 H        0.926     0.042     2.420     2.433
    70   1 H        0.926     0.042     2.424     2.435
    71   1 H        0.925     0.039     2.460     2.453
    72   1 H        0.925     0.034     2.532     2.488
    73   1 H        0.925     0.040     2.446     2.446
    74   1 H        0.925     0.032     2.554     2.499
    75   1 H        0.925     0.039     2.456     2.451
    76   1 H        0.925     0.038     2.471     2.458
    77   1 H        0.925     0.036     2.500     2.473
    78   1 H        0.925     0.035     2.512     2.479
    79   1 H        0.925     0.038     2.473     2.459
    80   1 H        0.926     0.044     2.399     2.422
    81   1 H        0.926     0.028     2.616     2.529
    82   1 H        0.926     0.078     2.005     2.214
    83   1 H        0.926     0.073     2.056     2.242
    84   1 H        0.926     0.073     2.051     2.240
    85   1 H        0.926     0.078     1.999     2.211
    86   1 H        0.926     0.028     2.609     2.526
    87   1 H        0.926     0.037     2.492     2.469
    88   1 H        0.925     0.036     2.508     2.476
    89   1 H        0.925     0.039     2.459     2.452
    90   1 H        0.925     0.033     2.546     2.495
    91   1 H        0.925     0.038     2.478     2.462
    92   1 H        0.925     0.037     2.487     2.466
    93   1 H        0.925     0.040     2.452     2.449
    94   1 H        0.925     0.036     2.505     2.475
    95   1 H        0.925     0.039     2.462     2.454
    96   1 H        0.925     0.036     2.502     2.473
    97   1 H        0.926     0.049     2.332     2.388
    98   1 H        0.926     0.049     2.329     2.387
    99   1 H        0.925     0.041     2.438     2.442
   100   1 H        0.925     0.039     2.464     2.455
   101   1 H        0.925     0.036     2.500     2.473
   102   1 H        0.925     0.040     2.446     2.446
   103   1 H        0.925     0.032     2.555     2.500
   104   1 H        0.925     0.035     2.515     2.480
   105   1 H        0.925     0.039     2.456     2.451
   106   1 H        0.925     0.040     2.444     2.445
   107   1 H        0.925     0.035     2.518     2.481
   108   1 H        0.926     0.035     2.518     2.481
   109   1 H        0.926     0.014     2.823     2.627
   110   1 H        0.926     0.067     2.120     2.277
   111   1 H        0.926     0.067     2.116     2.275

molecular dipole:
                 x           y           z       tot (Debye)
 q only:        0.121      -5.667      -0.125
   full:        0.080      -5.234      -0.132      13.310

 projected vibrational frequencies (cm⁻¹)
eigval :       -0.00    -0.00    -0.00     0.00     0.00     0.00
eigval :        7.93    15.71    25.58    28.30    30.60    33.53
eigval :       37.94    40.69    43.36    45.70    52.28    59.83
eigval :       64.64    70.36    76.41    79.63    84.73    92.89
eigval :       98.86   103.13   114.75   115.95   131.61   137.12
eigval :      155.59   158.24   163.04   165.97   175.82   179.19
eigval :      182.85   187.30   192.97   195.26   205.39   216.48
eigval :      219.30   225.12   229.80   231.42   240.72   250.57
eigval :      253.16   258.12   261.82   272.62   278.03   281.90
eigval :      288.06   296.85   308.68   312.80   315.70   316.65
eigval :      322.29   323.68   330.98   333.75   339.31   352.76
eigval :      354.19   355.92   360.15   365.77   368.52   379.26
eigval :      380.49   391.23   394.63   399.81   404.21   410.26
eigval :      412.00   414.01   421.33   440.50   443.47   444.73
eigval :      446.45   456.41   463.17   465.22   466.80   468.32
eigval :      473.19   488.09   505.75   519.15   520.56   527.12
eigval :      547.86   575.55   576.75   582.37   583.09   585.22
eigval :      587.30   600.50   601.66   628.40   629.64   641.78
eigval :      642.24   675.49   678.91   688.09   689.40   705.02
eigval :      706.55   709.37   710.66   722.88   723.84   749.62
eigval :      756.15   814.83   816.24   822.84   823.49   827.75
eigval :      829.68   831.43   833.26   872.38   873.14   873.96
eigval :      878.80   879.33   881.42   895.26   898.27   907.86
eigval :      908.91   918.68   920.03   921.04   922.70   923.41
eigval :      923.86   930.12   931.12   944.44   946.84   959.32
eigval :      959.41   959.67   960.72   961.95   962.44   963.19
eigval :      963.53   964.00   964.17   964.98   965.27  1008.44
eigval :     1010.14  1030.84  1034.35  1035.04  1035.22  1035.83
eigval :     1035.90  1036.13  1036.96  1040.68  1041.87  1068.73
eigval :     1101.20  1111.43  1113.32  1115.62  1128.72  1130.38
eigval :     1134.13  1141.11  1143.65  1145.89  1177.53  1181.18
eigval :     1208.08  1208.82  1211.48  1225.43  1225.47  1225.66
eigval :     1226.01  1226.32  1227.11  1228.24  1229.32  1230.12
eigval :     1232.36  1233.22  1234.93  1241.86  1249.78  1256.39
eigval :     1256.81  1280.75  1282.63  1292.38  1294.57  1297.71
eigval :     1298.97  1299.67  1302.89  1339.52  1341.15  1345.39
eigval :     1348.78  1351.54  1356.21  1383.40  1385.20  1399.50
eigval :     1400.71  1401.41  1401.85  1403.18  1403.36  1404.00
eigval :     1404.74  1410.85  1411.98  1425.83  1427.07  1427.28
eigval :     1427.81  1428.32  1429.42  1451.31  1458.78  1470.91
eigval :     1471.72  1478.52  1480.19  1485.94  1487.77  1489.08
eigval :     1490.03  1490.18  1491.75  1491.99  1493.48  1497.96
eigval :     1498.29  1498.90  1500.37  1501.68  1502.65  1503.38
eigval :     1504.07  1510.06  1512.09  1512.60  1514.07  1516.00
eigval :     1516.98  1517.65  1521.01  1535.06  1536.46  1542.69
eigval :     1543.34  1571.33  1573.80  1581.70  1586.06  1602.15
eigval :     1603.65  1611.41  1614.69  3018.06  3019.75  3020.08
eigval :     3020.88  3021.35  3021.70  3021.77  3021.81  3024.31
eigval :     3024.67  3025.11  3025.15  3026.07  3026.83  3027.07
eigval :     3027.60  3028.97  3029.72  3031.31  3032.44  3033.46
eigval :     3033.68  3035.98  3036.43  3038.40  3039.96  3040.64
eigval :     3042.22  3043.57  3044.83  3045.76  3046.93  3047.45
eigval :     3048.29  3051.09  3052.86  3070.27  3070.92  3074.47
eigval :     3076.27  3082.21  3082.66  3094.97  3095.33  3096.21
eigval :     3096.46  3097.12  3099.59  3115.86  3116.29  3117.26
eigval :     3122.50  3123.40  3125.78

   temp. (K)  partition function   enthalpy   heat capacity  entropy
                                   cal/mol     cal/K/mol   cal/K/mol   J/K/mol
 298.15  VIB  0.133E+25            32909.474    202.928    203.113
         ROT  0.116E+09              888.752      2.981     39.880
         INT  0.154E+33            33798.227    205.909    242.992
         TR   0.209E+29             1481.254      4.968     45.801
         TOT                       35279.4807   210.8774   288.7936  1208.3125

       T/K    H(0)-H(T)+PV         H(T)/Eh          T*S/Eh         G(T)/Eh
   ------------------------------------------------------------------------
    298.15    0.562214E-01    0.965456E+00    0.137215E+00    0.828241E+00
   ------------------------------------------------------------------------

         :::::::::::::::::::::::::::::::::::::::::::::::::::::
         ::                  THERMODYNAMIC                  ::
         :::::::::::::::::::::::::::::::::::::::::::::::::::::
         :: total free energy        -157.017791994738 Eh   ::
         ::.................................................::
         :: total energy             -157.846032611378 Eh   ::
         :: zero point energy           0.909234348379 Eh   ::
         :: G(RRHO) w/o ZPVE           -0.080993731739 Eh   ::
         :: G(RRHO) contrib.            0.828240616640 Eh   ::
         :::::::::::::::::::::::::::::::::::::::::::::::::::::

           -------------------------------------------------
          | TOTAL ENERGY             -157.846032611378 Eh   |
          | TOTAL ENTHALPY           -156.880576831907 Eh   |
          | TOTAL FREE ENERGY        -157.017791994738 Eh   |
          | GRADIENT NORM               0.000037891110 Eh/α |
          | HOMO-LUMO GAP               1.956578606135 eV   |
           -------------------------------------------------

 * finished run on 2025/09/05 at 07:24:07.252
