   * xtb version 6.7.1 (edcfbbe) compiled by 'albert@albert-system' on 2024-07-22

   ID    Z sym.   atoms
    1    6 C      1-20, 22-25, 29-32, 34-54, 57
    2    7 N      21, 33, 55, 56
    3   16 S      26
    4    8 O      27, 28
    5    1 H      58-111

          program call               : xtb data2507/toluene/pDTCz-2DPyS/pDTCz-2DPyS.xyz --gfn 2 --gbsa toluene --ohess vtight --parallel 40 --molden --ceasefiles --namespace data2507/toluene/pDTCz-2DPyS/pDTCz-2DPyS_toluene_S0_preOpt
      * Solvation model:               GBSA
        Solvent                        toluene
        Solvent mass                       9.2140E+01 g/mol
          :  Hamiltonian                  GFN2-xTB          :
 * total energy  :  -157.8239383 Eh     change       -0.1578258E-08 Eh
 * total energy  :  -157.8439091 Eh     change       -0.1997084E-01 Eh
 * total energy  :  -157.8498244 Eh     change       -0.5915270E-02 Eh
 * total energy  :  -157.8511271 Eh     change       -0.1302675E-02 Eh
 * total energy  :  -157.8516511 Eh     change       -0.5239716E-03 Eh
 * total energy  :  -157.8517501 Eh     change       -0.9908815E-04 Eh
 * total energy  :  -157.8518081 Eh     change       -0.5798105E-04 Eh
 * total energy  :  -157.8518485 Eh     change       -0.4032436E-04 Eh
 * total energy  :  -157.8518908 Eh     change       -0.4232120E-04 Eh
 * total energy  :  -157.8519389 Eh     change       -0.4817275E-04 Eh
 * total energy  :  -157.8530143 Eh     change       -0.1856982E-05 Eh
 * total energy  :  -157.8530164 Eh     change       -0.2104140E-05 Eh
 * total energy  :  -157.8530186 Eh     change       -0.2232025E-05 Eh
 * total energy  :  -157.8530210 Eh     change       -0.2315970E-05 Eh
 * total energy  :  -157.8530232 Eh     change       -0.2225749E-05 Eh
 * total energy  :  -157.8530252 Eh     change       -0.2010257E-05 Eh
 * total energy  :  -157.8530269 Eh     change       -0.1734967E-05 Eh
 * total energy  :  -157.8530284 Eh     change       -0.1493729E-05 Eh
 * total energy  :  -157.8530284 Eh     change       -0.5301075E-08 Eh
   *** GEOMETRY OPTIMIZATION CONVERGED AFTER 185 ITERATIONS ***

 final structure:
================
111
 xtb: 6.7.1 (edcfbbe)
C           -8.05704115902697       -4.13821497565703        1.69579240419011
C           -6.80657642691580       -3.83162804559567        2.52583390273610
C           -7.21645299304056       -3.78615706470620        4.00549994732180
C           -5.79489184223629       -4.96531648441044        2.30079053846639
C           -6.16380159574055       -2.50488318253168        2.14606458628811
C           -5.01323081455034       -2.08870704856728        2.82769310669493
C           -4.36770799195280       -0.89756861285580        2.55662468163956
C           -4.89719467188511       -0.08036561432910        1.57117337754076
C           -6.03372947370419       -0.49026678620321        0.84751453474814
C           -6.66326291436528       -1.69267010558988        1.13974197916006
C           -6.28740503769837        0.53037710357247       -0.13627024928583
C           -7.27742628915883        0.69501398529916       -1.09125246163166
C           -7.28740583921248        1.82762724614341       -1.89656463054525
C           -8.38538529822622        1.98499948782840       -2.94005855230303
C           -9.74724176137087        2.01353107621492       -2.22973551741362
C           -8.32978139011113        0.79576716175116       -3.91084697811164
C           -8.24922502869909        3.27210006193466       -3.75914790343983
C           -6.29370227780466        2.78982686278406       -1.70091793488182
C           -5.29392887744946        2.65072596309825       -0.75300760583515
C           -5.27942301822593        1.50389293470909        0.02071435091967
N           -4.43835535604455        1.13058939081874        1.06367886274888
C           -3.35346237907062        1.85107760105532        1.52957631332191
C           -3.13409842658510        2.03565003572280        2.90042533137929
C           -2.03528881219143        2.76930442293890        3.30977336343234
C           -1.20582109869373        3.28894305747924        2.33324774152528
S            0.26258946745371        4.23330127351576        2.78336303025684
O            0.43113552596105        4.15328698173869        4.22043702692711
O            0.19158800499142        5.57014823430040        2.23213488820013
C            1.60907296373567        3.34858692453410        1.97429638487607
C            2.61190552473981        4.02399883413073        1.30383114949064
C            3.61861876270009        3.27396985819234        0.72281004850394
C            3.58077763210392        1.87848473832615        0.84052431697410
N            4.56976333570078        1.08189270696960        0.29408802290717
C            5.93928781116805        1.32143329924907        0.35715012548997
C            6.64679940204190        2.33074512888857        0.98962820851879
C            8.02642235937535        2.29768011302090        0.92239208303225
C            8.73367811793127        1.28860560993187        0.25712150199638
C           10.25441222776936        1.35009444791166        0.22871329252929
C           10.78710437872284        1.30250617957536        1.66865931698947
C           10.87562491565165        0.18508688034052       -0.54802713672859
C           10.69263622533208        2.65900198105661       -0.44523849354332
C            8.01443673735711        0.26328270502891       -0.33711730028138
C            6.62729277739373        0.27305456051409       -0.28383950289926
C            5.62731709096211       -0.64387364573570       -0.76632945773260
C            5.70195956475610       -1.82964113110392       -1.47876003485327
C            4.53927909568878       -2.50066558756775       -1.83807048303180
C            4.64727168829658       -3.81142457026157       -2.60564750443998
C            3.28287916554464       -4.43308363785103       -2.91880914791425
C            5.37179985263520       -3.55598870786060       -3.93583609059056
C            5.44656793789452       -4.81724753245533       -1.76331514404167
C            3.31170728701154       -1.93386789989925       -1.48730689111277
C            3.20946754270656       -0.75014970118587       -0.77577017044121
C            4.37615291986534       -0.11569546468117       -0.38730026060767
C            2.49897274139434        1.31579122334636        1.53530009522411
N            1.54087497858027        2.03580209106124        2.08347783124939
N           -1.38547555082985        3.12162759247277        1.03748878640174
C           -2.43083485028615        2.42418518679056        0.64102406070287
H           -8.47894985575542       -5.08903036737607        2.01554627202633
H           -7.81542381168825       -4.21815618907724        0.63833942220077
H           -8.81604823016958       -3.37140453969245        1.83354388675883
H           -6.35620223885291       -3.63915292371779        4.65259137895034
H           -7.91601465691782       -2.97026726506697        4.17740360051137
H           -7.69873969345961       -4.71950732098830        4.28869469464409
H           -4.90962249822554       -4.83713000395590        2.91747270567697
H           -5.48336355731003       -4.99052425149979        1.25830647055801
H           -6.24640954577622       -5.92358400131765        2.54922884853442
H           -4.59755498018621       -2.71841050621425        3.59910945875344
H           -3.46872440122593       -0.63193360594713        3.09189791421242
H           -7.53035018179052       -1.97339528032970        0.56643533876936
H           -8.03833372717874       -0.06293507373040       -1.19001534447054
H           -9.93082362270056        1.09073461617930       -1.68652756913484
H          -10.54607053796319        2.14592780530455       -2.95652672635575
H           -9.78478386277506        2.83916011045372       -1.52153756250185
H           -8.49180204537975       -0.14665822888069       -3.39536307382739
H           -7.35836091524283        0.75454861010769       -4.39982076223557
H           -9.09659727125319        0.90119958025493       -4.67552941058789
H           -8.32414468090384        4.15207887303653       -3.12424201030966
H           -7.30362144431418        3.29749311340572       -4.29608900428646
H           -9.05242073754244        3.31989003605195       -4.49198032744680
H           -6.28827416973293        3.68747771159557       -2.29632915660634
H           -4.56148894851879        3.43291547348911       -0.62050958891622
H           -3.82639786518758        1.62835539403751        3.62113597715110
H           -1.80920566822495        2.95264608147673        4.34732112824793
H            2.57528609952654        5.09915975162633        1.23959291392036
H            4.41015170893334        3.75092339049600        0.16579219618969
H            6.14974023198832        3.11643353579004        1.53805443284552
H            8.56967862331218        3.08985488744786        1.41401334939400
H           10.43647497876509        2.15026577196175        2.25085479098894
H           11.87505141070461        1.31891836389174        1.66561389731076
H           10.45678798635264        0.39052751400615        2.16232364692822
H           11.95902248277307        0.28758195633471       -0.54791174170181
H           10.62983253783649       -0.76878349557782       -0.08685682544498
H           10.53921943293887        0.18097682075980       -1.58235300087268
H           10.30386324372821        2.70837307851598       -1.46060055714454
H           11.77854346119743        2.71156029685093       -0.48856849029462
H           10.33295805404573        3.52735049759190        0.09974150118074
H            8.50574169507220       -0.55327232683059       -0.83828830651255
H            6.67213491571899       -2.21370682558916       -1.75147702153296
H            2.73269516799243       -4.65233642624973       -2.00648929204820
H            3.42774584743704       -5.36860025984574       -3.45569416467539
H            2.68652568478863       -3.77578728426467       -3.54757908772369
H            4.82582298954991       -2.82346697916672       -4.52727774471235
H            6.37846127768497       -3.18093990609324       -3.77407450440093
H            5.44036067491025       -4.47919950108443       -4.50755911743581
H            5.51950850004807       -5.76868824506276       -2.28606984785790
H            6.45337275730282       -4.45946792047293       -1.56695885328751
H            4.95217177954622       -4.98503018363828       -0.80832479866429
H            2.39350103452766       -2.41762869904966       -1.77559111339165
H            2.23751258927431       -0.33892216409963       -0.54857820328307
H            2.41854570028501        0.24668553675652        1.67158426952106
H           -2.53022357742709        2.29229982415593       -0.42728962807512

          :  Hamiltonian                  GFN2-xTB          :
         :: gradient norm              0.000053437944 Eh/a0 ::
         :: HOMO-LUMO gap              2.247210437745 eV    ::
         :: SCC energy              -160.412930354485 Eh    ::
         :: -> dispersion             -0.139559315587 Eh    ::
         :: -> Gsolv                  -0.069804659818 Eh    ::
         :: repulsion energy           2.559901924379 Eh    ::

    * Orbital Energies and Occupations

         #    Occupation            Energy/Eh            Energy/eV
      -------------------------------------------------------------
         1        2.0000           -0.7834992             -21.3201
       ...           ...                  ...                  ...
       134        2.0000           -0.4197816             -11.4228
       135        2.0000           -0.4131197             -11.2416
       136        2.0000           -0.4125904             -11.2272
       137        2.0000           -0.4110832             -11.1861
       138        2.0000           -0.4107695             -11.1776
       139        2.0000           -0.4044821             -11.0065
       140        2.0000           -0.4012663             -10.9190
       141        2.0000           -0.4009163             -10.9095
       142        2.0000           -0.3937825             -10.7154
       143        2.0000           -0.3807411             -10.3605
       144        2.0000           -0.3803458             -10.3497
       145        2.0000           -0.3675486             -10.0015
       146        2.0000           -0.3669226              -9.9845 (HOMO)
       147                         -0.2843391              -7.7373 (LUMO)
       148                         -0.2813073              -7.6548
       149                         -0.2727054              -7.4207
       150                         -0.2688352              -7.3154
       151                         -0.2463355              -6.7031
       152                         -0.2459305              -6.6921
       153                         -0.2245537              -6.1104
       154                         -0.2241001              -6.0981
       155                         -0.2009006              -5.4668
       156                         -0.1997120              -5.4344
       157                         -0.1892439              -5.1496
       ...                                ...                  ...
       287                          1.1626495              31.6373
      -------------------------------------------------------------
                  HL-Gap            0.0825835 Eh            2.2472 eV

     #   Z          covCN         q      C6AA      α(0)
     1   6 C        3.761    -0.108    22.617     6.779
     2   6 C        3.902     0.026    20.089     6.371
     3   6 C        3.761    -0.106    22.574     6.773
     4   6 C        3.761    -0.106    22.575     6.773
     5   6 C        2.972     0.003    27.962     8.674
     6   6 C        2.931    -0.038    28.943     8.823
     7   6 C        2.909    -0.054    29.340     8.882
     8   6 C        3.066     0.040    27.043     8.527
     9   6 C        3.062    -0.015    28.331     8.728
    10   6 C        2.918    -0.043    29.059     8.840
    11   6 C        3.063    -0.015    28.320     8.727
    12   6 C        2.920    -0.039    28.965     8.826
    13   6 C        2.972     0.003    27.962     8.674
    14   6 C        3.903     0.026    20.089     6.371
    15   6 C        3.761    -0.106    22.573     6.773
    16   6 C        3.761    -0.106    22.580     6.774
    17   6 C        3.761    -0.108    22.614     6.779
    18   6 C        2.929    -0.042    29.048     8.839
    19   6 C        2.909    -0.055    29.358     8.885
    20   6 C        3.064     0.039    27.072     8.532
    21   7 N        2.798    -0.039    21.986     6.964
    22   6 C        2.906     0.065    26.542     8.448
    23   6 C        2.932    -0.025    28.628     8.775
    24   6 C        2.941    -0.034    28.850     8.809
    25   6 C        2.967     0.020    27.559     8.611
    26  16 S        3.831     0.919   108.999    17.572
    27   8 O        0.860    -0.567    25.330     6.748
    28   8 O        0.860    -0.563    25.221     6.733
    29   6 C        2.967     0.018    27.612     8.619
    30   6 C        2.938    -0.034    28.839     8.807
    31   6 C        2.932    -0.025    28.638     8.776
    32   6 C        2.905     0.065    26.547     8.448
    33   7 N        2.797    -0.038    21.974     6.962
    34   6 C        3.065     0.040    27.044     8.528
    35   6 C        2.909    -0.054    29.341     8.882
    36   6 C        2.931    -0.038    28.944     8.823
    37   6 C        2.972     0.003    27.959     8.673
    38   6 C        3.902     0.026    20.089     6.371
    39   6 C        3.761    -0.106    22.570     6.772
    40   6 C        3.761    -0.108    22.619     6.780
    41   6 C        3.761    -0.106    22.575     6.773
    42   6 C        2.918    -0.043    29.059     8.840
    43   6 C        3.063    -0.015    28.327     8.728
    44   6 C        3.063    -0.015    28.315     8.726
    45   6 C        2.920    -0.039    28.961     8.825
    46   6 C        2.972     0.003    27.954     8.672
    47   6 C        3.903     0.026    20.088     6.371
    48   6 C        3.761    -0.109    22.622     6.780
    49   6 C        3.761    -0.106    22.577     6.773
    50   6 C        3.761    -0.106    22.578     6.774
    51   6 C        2.929    -0.042    29.050     8.839
    52   6 C        2.909    -0.055    29.358     8.885
    53   6 C        3.063     0.038    27.077     8.533
    54   6 C        2.918     0.048    26.927     8.509
    55   7 N        1.893    -0.230    26.881     7.686
    56   7 N        1.889    -0.226    26.794     7.674
    57   6 C        2.919     0.048    26.914     8.507
    58   1 H        0.925     0.038     2.474     2.460
    59   1 H        0.925     0.037     2.487     2.466
    60   1 H        0.925     0.037     2.490     2.468
    61   1 H        0.925     0.037     2.492     2.469
    62   1 H        0.925     0.033     2.538     2.491
    63   1 H        0.925     0.039     2.458     2.452
    64   1 H        0.925     0.037     2.493     2.469
    65   1 H        0.925     0.034     2.534     2.489
    66   1 H        0.925     0.040     2.455     2.450
    67   1 H        0.926     0.037     2.483     2.464
    68   1 H        0.926     0.030     2.593     2.518
    69   1 H        0.926     0.046     2.371     2.408
    70   1 H        0.926     0.040     2.444     2.445
    71   1 H        0.925     0.038     2.473     2.459
    72   1 H        0.925     0.040     2.453     2.449
    73   1 H        0.925     0.033     2.549     2.497
    74   1 H        0.925     0.038     2.470     2.458
    75   1 H        0.925     0.033     2.538     2.491
    76   1 H        0.925     0.040     2.455     2.450
    77   1 H        0.925     0.036     2.508     2.477
    78   1 H        0.925     0.036     2.500     2.473
    79   1 H        0.925     0.039     2.468     2.457
    80   1 H        0.926     0.043     2.403     2.424
    81   1 H        0.926     0.025     2.654     2.548
    82   1 H        0.926     0.079     1.991     2.207
    83   1 H        0.926     0.072     2.066     2.248
    84   1 H        0.926     0.069     2.092     2.262
    85   1 H        0.926     0.079     1.991     2.207
    86   1 H        0.926     0.028     2.617     2.530
    87   1 H        0.926     0.037     2.494     2.469
    88   1 H        0.925     0.036     2.501     2.473
    89   1 H        0.925     0.040     2.453     2.449
    90   1 H        0.925     0.033     2.539     2.492
    91   1 H        0.925     0.038     2.471     2.458
    92   1 H        0.925     0.037     2.487     2.466
    93   1 H        0.925     0.037     2.483     2.464
    94   1 H        0.925     0.034     2.531     2.488
    95   1 H        0.925     0.039     2.456     2.451
    96   1 H        0.925     0.036     2.496     2.471
    97   1 H        0.926     0.046     2.364     2.404
    98   1 H        0.926     0.040     2.445     2.445
    99   1 H        0.925     0.036     2.496     2.471
   100   1 H        0.925     0.039     2.465     2.455
   101   1 H        0.925     0.036     2.498     2.471
   102   1 H        0.925     0.033     2.541     2.493
   103   1 H        0.925     0.038     2.476     2.461
   104   1 H        0.925     0.040     2.452     2.449
   105   1 H        0.925     0.040     2.453     2.449
   106   1 H        0.925     0.038     2.475     2.460
   107   1 H        0.925     0.033     2.542     2.493
   108   1 H        0.926     0.045     2.386     2.416
   109   1 H        0.926     0.027     2.630     2.536
   110   1 H        0.926     0.069     2.094     2.263
   111   1 H        0.926     0.069     2.093     2.262

molecular dipole:
                 x           y           z       tot (Debye)
 q only:       -0.149      -3.398      -2.184
   full:       -0.081      -3.034      -1.901       9.102

 projected vibrational frequencies (cm⁻¹)
eigval :       -0.00    -0.00    -0.00    -0.00     0.00     0.00
eigval :        2.23     4.48     5.47    20.11    23.26    27.60
eigval :       32.04    32.20    33.99    34.66    36.97    54.71
eigval :       57.70    70.43    71.69    73.66    78.92    95.36
eigval :       98.75   101.01   106.47   110.99   128.80   137.63
eigval :      145.04   157.02   158.89   163.16   173.66   175.10
eigval :      178.82   181.54   191.36   193.93   194.65   215.85
eigval :      220.31   222.95   224.00   227.68   234.95   238.32
eigval :      245.78   253.45   266.69   268.50   275.03   280.52
eigval :      293.40   298.30   305.09   316.00   318.75   321.36
eigval :      324.93   327.37   327.66   333.04   337.27   351.77
eigval :      356.64   357.02   359.60   366.26   372.58   383.87
eigval :      387.01   389.31   398.65   399.83   404.04   409.90
eigval :      411.72   412.88   414.50   442.14   442.50   443.50
eigval :      444.96   460.37   463.03   464.09   466.54   468.15
eigval :      469.50   495.77   499.55   519.49   519.87   526.33
eigval :      550.13   574.82   575.53   582.64   583.63   585.28
eigval :      591.67   603.08   604.39   628.33   628.75   642.03
eigval :      642.19   684.79   688.72   689.64   694.05   700.56
eigval :      701.86   707.84   708.50   721.81   722.50   749.70
eigval :      760.91   816.81   818.21   822.52   823.63   831.60
eigval :      831.84   832.92   833.45   872.30   872.33   872.70
eigval :      874.04   878.11   879.27   894.88   897.07   913.85
eigval :      913.96   916.87   916.90   922.36   923.27   923.80
eigval :      923.91   931.34   932.37   945.27   947.60   959.30
eigval :      959.34   959.40   960.52   961.12   961.58   961.86
eigval :      962.24   962.43   963.09   963.12   963.56  1011.27
eigval :     1014.37  1031.08  1031.92  1034.14  1034.54  1035.27
eigval :     1035.66  1035.97  1036.26  1038.43  1038.76  1064.78
eigval :     1103.88  1109.39  1114.04  1114.80  1128.99  1129.66
eigval :     1141.82  1143.67  1144.09  1146.34  1176.41  1177.60
eigval :     1188.15  1207.37  1208.86  1225.31  1225.56  1225.62
eigval :     1225.64  1225.80  1226.42  1227.19  1227.62  1230.71
eigval :     1231.41  1232.24  1233.83  1246.63  1246.72  1255.89
eigval :     1256.09  1280.79  1280.90  1294.20  1294.51  1296.49
eigval :     1297.96  1302.20  1302.28  1340.96  1341.26  1344.23
eigval :     1344.67  1356.86  1356.98  1382.73  1383.96  1400.11
eigval :     1400.16  1401.88  1402.07  1402.51  1402.78  1403.00
eigval :     1403.30  1410.48  1410.59  1426.62  1427.08  1427.16
eigval :     1427.50  1428.46  1428.88  1453.79  1458.72  1470.86
eigval :     1470.91  1478.69  1479.05  1488.24  1488.61  1488.92
eigval :     1489.00  1490.59  1491.45  1491.58  1491.98  1498.26
eigval :     1498.38  1499.02  1499.14  1501.63  1501.85  1502.54
eigval :     1502.85  1511.48  1511.56  1511.83  1512.07  1516.74
eigval :     1517.06  1517.49  1517.87  1541.46  1543.04  1545.01
eigval :     1548.23  1571.80  1571.94  1582.64  1582.90  1602.11
eigval :     1602.34  1613.08  1613.12  3019.97  3020.06  3020.29
eigval :     3020.76  3021.15  3021.18  3021.41  3021.78  3024.39
eigval :     3024.41  3024.50  3025.12  3025.71  3025.89  3026.24
eigval :     3026.24  3028.12  3028.29  3028.45  3028.86  3031.50
eigval :     3031.56  3031.66  3031.90  3036.29  3036.43  3036.69
eigval :     3036.75  3044.66  3045.45  3045.58  3045.72  3047.88
eigval :     3048.07  3048.99  3049.09  3074.43  3077.24  3080.96
eigval :     3081.24  3081.32  3083.57  3094.78  3095.33  3095.44
eigval :     3095.85  3095.92  3098.10  3112.28  3113.51  3121.10
eigval :     3121.51  3122.12  3123.01

   temp. (K)  partition function   enthalpy   heat capacity  entropy
                                   cal/mol     cal/K/mol   cal/K/mol   J/K/mol
 298.15  VIB  0.959E+27            33177.865    201.437    208.956
         ROT  0.231E+09              888.752      2.981     41.247
         INT  0.221E+36            34066.618    204.418    250.203
         TR   0.209E+29             1481.254      4.968     45.801
         TOT                       35547.8715   209.3859   296.0041  1238.4810

       T/K    H(0)-H(T)+PV         H(T)/Eh          T*S/Eh         G(T)/Eh
   ------------------------------------------------------------------------
    298.15    0.566491E-01    0.965290E+00    0.140641E+00    0.824649E+00
   ------------------------------------------------------------------------

         :::::::::::::::::::::::::::::::::::::::::::::::::::::
         ::                  THERMODYNAMIC                  ::
         :::::::::::::::::::::::::::::::::::::::::::::::::::::
         :: total free energy        -157.028379607664 Eh   ::
         ::.................................................::
         :: total energy             -157.853028431759 Eh   ::
         :: zero point energy           0.908640767805 Eh   ::
         :: G(RRHO) w/o ZPVE           -0.083991943710 Eh   ::
         :: G(RRHO) contrib.            0.824648824096 Eh   ::
         :::::::::::::::::::::::::::::::::::::::::::::::::::::

           -------------------------------------------------
          | TOTAL ENERGY             -157.853028431759 Eh   |
          | TOTAL ENTHALPY           -156.887738524807 Eh   |
          | TOTAL FREE ENERGY        -157.028379607664 Eh   |
          | GRADIENT NORM               0.000053444673 Eh/α |
          | HOMO-LUMO GAP               2.247211377519 eV   |
           -------------------------------------------------

 * finished run on 2025/09/05 at 07:10:04.428
