   * xtb version 6.7.1 (edcfbbe) compiled by 'albert@albert-system' on 2024-07-22

   ID    Z sym.   atoms
    1    6 C      1-20, 22-25, 29-32, 34-54, 57
    2    7 N      21, 33, 55, 56
    3   16 S      26
    4    8 O      27, 28
    5    1 H      58-111

          program call               : xtb data2507/toluene/pDTCz-2DPyS/pDTCz-2DPyS_toluene_T1_crest.xyz --gfn 2 --uhf 2 --gbsa toluene --ohess vtight --parallel 40 --molden --ceasefiles --namespace data2507/toluene/pDTCz-2DPyS/pDTCz-2DPyS_toluene_T1_finalOpt
      * Solvation model:               GBSA
        Solvent                        toluene
        Solvent mass                       9.2140E+01 g/mol
          :  Hamiltonian                  GFN2-xTB          :
 * total energy  :  -157.7685107 Eh     change       -0.3392387E-08 Eh
 * total energy  :  -157.7689317 Eh     change       -0.4210344E-03 Eh
 * total energy  :  -157.7692373 Eh     change       -0.3055860E-03 Eh
 * total energy  :  -157.7693065 Eh     change       -0.6918685E-04 Eh
 * total energy  :  -157.7694216 Eh     change       -0.1150619E-03 Eh
 * total energy  :  -157.7695091 Eh     change       -0.8755158E-04 Eh
 * total energy  :  -157.7695777 Eh     change       -0.6859147E-04 Eh
 * total energy  :  -157.7696335 Eh     change       -0.5577264E-04 Eh
 * total energy  :  -157.7696767 Eh     change       -0.4323931E-04 Eh
 * total energy  :  -157.7697089 Eh     change       -0.3218093E-04 Eh
 * total energy  :  -157.7698751 Eh     change       -0.1217760E-05 Eh
 * total energy  :  -157.7698760 Eh     change       -0.9365928E-06 Eh
 * total energy  :  -157.7698769 Eh     change       -0.8354990E-06 Eh
 * total energy  :  -157.7698777 Eh     change       -0.8270354E-06 Eh
 * total energy  :  -157.7698785 Eh     change       -0.8141691E-06 Eh
 * total energy  :  -157.7698792 Eh     change       -0.6630604E-06 Eh
 * total energy  :  -157.7698802 Eh     change       -0.1030773E-05 Eh
 * total energy  :  -157.7698810 Eh     change       -0.8287112E-06 Eh
 * total energy  :  -157.7698810 Eh     change       -0.1129447E-07 Eh
   *** GEOMETRY OPTIMIZATION CONVERGED AFTER 44 ITERATIONS ***

 final structure:
================
111
 xtb: 6.7.1 (edcfbbe)
C            2.84022812769804       -2.98632065888330       -2.73676149067954
C            1.36967614454575       -3.33997528521675       -2.49776550409136
C            0.78656113127384       -3.89770857767956       -3.80626813558212
C            1.31480278509872       -4.41640977926485       -1.40517748369074
C            0.53597922434976       -2.14176928143845       -2.07401860408589
C            1.06314593820052       -0.84891094132422       -2.01726903601754
C            0.29381931467598        0.25302347528799       -1.69137410675216
C           -1.04771051251261        0.05639030490124       -1.40480840900583
C           -1.59609001723094       -1.24576954470817       -1.40819681915451
C           -0.80872211474883       -2.32812974854543       -1.75399160755281
C           -2.97627363996376       -1.10290493158531       -1.01552895318980
C           -4.00942519910145       -2.00842497533901       -0.83836890639392
C           -5.27008127927027       -1.55518115532984       -0.46133802870589
C           -6.44599004846830       -2.49472220474904       -0.24765823458743
C           -6.96242740861682       -2.33509692452502        1.19064824368697
C           -6.07262607124009       -3.96496258055271       -0.45918566373801
C           -7.56051233933787       -2.13566883238203       -1.24260709790073
C           -5.46179287975144       -0.17746848213079       -0.28711290648961
C           -4.45101123271043        0.74728697777877       -0.45734832015643
C           -3.19092472339169        0.27839976299575       -0.80390548740285
N           -2.01961656721810        0.96792193179732       -1.04043495312728
C           -1.80220726159821        2.33487429948353       -0.90760304785109
C           -2.23537351409982        3.06200248478871        0.23139566843032
C           -1.85729680273883        4.36804751007199        0.36574320438332
C           -1.04315786311205        4.94819207324828       -0.62909103028446
S            0.13747767229884        6.15167174904399       -0.05893305822989
O           -0.44409636063401        6.93586385985755        1.01201330286828
O            0.75833086925797        6.88980002088630       -1.14058045138046
C            1.25557851622035        4.89815765043852        0.52891829196147
C            2.04220629898126        4.26578961751417       -0.45580466753398
C            2.36070884753102        2.94622174000911       -0.30031927400272
C            1.89427103635599        2.25773784322170        0.84945213689299
N            2.05189661361523        0.88497985273078        1.00506097656828
C            3.19318949561091        0.14222971674103        0.78320016336490
C            4.47263466245320        0.55073607672603        0.43113629245308
C            5.44380513356274       -0.41890857879075        0.28117248120960
C            5.19387287384426       -1.78369976235701        0.48135554568252
C            6.32993988781112       -2.77584078039872        0.29125618594815
C            7.45486152058346       -2.44330090063785        1.28373755029424
C            5.89478294165695       -4.22465286084503        0.53087645008721
C            6.85758821282393       -2.66723774864741       -1.14771132084097
C            3.91433882735023       -2.17609137072971        0.86266035527293
C            2.91990010866449       -1.22461188331133        1.01949394408858
C            1.53437489578910       -1.30165912937259        1.41150131381194
C            0.70154713229623       -2.34347715808570        1.77477230010409
C           -0.63450212702888       -2.09493186871491        2.08864303945355
C           -1.51883884539409       -3.24994819943094        2.52945162324879
C           -0.96149992624645       -3.81274545571610        3.84696682260183
C           -2.97318748114366       -2.83049860591014        2.76078303191123
C           -1.50873120877689       -4.34357545278558        1.45269429835059
C           -1.10630229103099       -0.78205229788730        2.00868537074237
C           -0.29064107176944        0.28042089365411        1.66462365060238
C            1.04166792224546        0.02225673029507        1.38380893693380
C            1.23389571263605        3.01247429370173        1.82588995066757
N            0.91609672087763        4.27271722992387        1.66752915372705
N           -0.73641197525912        4.29065994334203       -1.75889916819741
C           -1.11164994559859        3.04406610211392       -1.89740258480204
H            3.38288829664549       -3.88499400338619       -3.02389220981304
H            3.29573262935941       -2.58617919586162       -1.83323329034280
H            2.94820471407386       -2.26410979386438       -3.54283334833276
H            1.37103655058834       -4.75220210912307       -4.14045133609018
H           -0.24352125041099       -4.21779537921902       -3.67596082798172
H            0.81131143449463       -3.13782623110413       -4.58498986101425
H            1.94286642020091       -5.25985487936206       -1.68382731680400
H            0.30429719449748       -4.78344704167449       -1.25581118406684
H            1.67660508355717       -4.00242869764077       -0.46816015018621
H            2.10448057477520       -0.68333537932149       -2.23514395621863
H            0.72951767892951        1.24006902239396       -1.65660151971787
H           -1.24794539154499       -3.31214407918337       -1.78177926289304
H           -3.81922749052223       -3.05509822129494       -1.00364702335940
H           -6.17216609584607       -2.56408810888185        1.90209847677044
H           -7.79208548956161       -3.01667309887342        1.36507343645692
H           -7.31035650349212       -1.32363547624707        1.38056535078342
H           -5.29415994751142       -4.27411600669205        0.23349694739207
H           -5.73988357491682       -4.14251701672202       -1.47924483046227
H           -6.94685575907888       -4.58754767547915       -0.28058447244839
H           -7.92027011838577       -1.12177922122475       -1.09078663224459
H           -7.19557734482746       -2.21840750335262       -2.26460172024964
H           -8.40071339641305       -2.81581040183330       -1.12041483494353
H           -6.43868836285905        0.19081242856211       -0.01614176521191
H           -4.64465224304290        1.80245783642586       -0.33947665863141
H           -2.81810696895382        2.56808259306770        0.99423286320391
H           -2.10551825403005        4.96571103328541        1.22724429739023
H            2.31737003797826        4.83773441545289       -1.32652616706294
H            2.92131104623625        2.41439266116376       -1.05416941402223
H            4.71125365053225        1.59429685020338        0.29407707115843
H            6.43581428784925       -0.09719480655401        0.00579417385360
H            7.08376921275265       -2.49315040044523        2.30565425143084
H            7.85474069600419       -1.44724621310046        1.11528938221050
H            8.26813130570451       -3.15792117638128        1.17700197923757
H            6.74332278404495       -4.88640266348074        0.37004450521618
H            5.54989970537917       -4.36722363483610        1.55239566999183
H            5.10759867741444       -4.51574525269874       -0.15974394253527
H            6.06234673366758       -2.88274288637971       -1.85785088786261
H            7.66259149414447       -3.38222347533455       -1.30299994281264
H            7.24309095416276       -1.67363965866244       -1.35816059152440
H            3.68013892466212       -3.21052759080565        1.04706649076364
H            1.09887137487575       -3.34447200418538        1.82072799386697
H            0.05419762510076       -4.17816763334572        3.72334409546002
H           -1.58213605306236       -4.63666738731607        4.19254656583035
H           -0.95491671849146       -3.04111183616595        4.61442048115029
H           -3.55414469585233       -3.70102998047748        3.05955727310090
H           -3.05103416141681       -2.09280891708911        3.55628819752894
H           -3.41000176529654       -2.42423037449999        1.85079139003049
H           -0.51438731445820       -4.75457848828607        1.30961075193539
H           -2.17148894078197       -5.15605384045261        1.74278006160157
H           -1.85249844314513       -3.92844825545700        0.50940117554043
H           -2.13983994868248       -0.56852436412372        2.22213430482105
H           -0.68417101661886        1.28424827035307        1.61162892787027
H            0.96625882507570        2.57113406040083        2.77724072584301
H           -0.86747938050981        2.57664049884797       -2.84258416862228

          :  Hamiltonian                  GFN2-xTB          :
         :: gradient norm              0.000064987332 Eh/a0 ::
         :: HOMO-LUMO gap              0.644208380957 eV    ::
         :: SCC energy              -160.316500697086 Eh    ::
         :: -> dispersion             -0.170026915910 Eh    ::
         :: -> Gsolv                  -0.068404404044 Eh    ::
         :: repulsion energy           2.546619660071 Eh    ::

    * Orbital Energies and Occupations

         #    Occupation            Energy/Eh            Energy/eV
      -------------------------------------------------------------
         1        2.0000           -0.7647026             -20.8086
       ...           ...                  ...                  ...
       135        2.0000           -0.4174264             -11.3588
       136        2.0000           -0.4171159             -11.3503
       137        2.0000           -0.4150767             -11.2948
       138        2.0000           -0.4149132             -11.2904
       139        2.0000           -0.4099829             -11.1562
       140        2.0000           -0.4076604             -11.0930
       141        2.0000           -0.3928618             -10.6903
       142        2.0000           -0.3899990             -10.6124
       143        2.0000           -0.3885027             -10.5717
       144        2.0000           -0.3824483             -10.4069
       145        1.7691           -0.3697804             -10.0622
       146        1.2309           -0.3674943             -10.0000
       147        1.0000           -0.2883297              -7.8458 (HOMO)
       148        0.0000           -0.2646554              -7.2016 (LUMO)
       149                         -0.2573398              -7.0026
       150                         -0.2560377              -6.9671
       151                         -0.2512375              -6.8365
       152                         -0.2484754              -6.7614
       153                         -0.2361558              -6.4261
       154                         -0.2325975              -6.3293
       155                         -0.2079280              -5.6580
       156                         -0.2055161              -5.5924
       157                         -0.1982191              -5.3938
       158                         -0.1972080              -5.3663
       ...                                ...                  ...
       287                          1.1795088              32.0961
      -------------------------------------------------------------
                  HL-Gap            0.0236742 Eh            0.6442 eV

     #   Z          covCN         q      C6AA      α(0)
     1   6 C        3.761    -0.109    22.624     6.781
     2   6 C        3.903     0.028    20.056     6.366
     3   6 C        3.762    -0.107    22.597     6.776
     4   6 C        3.762    -0.110    22.658     6.785
     5   6 C        2.973     0.013    27.725     8.637
     6   6 C        2.927    -0.040    28.984     8.829
     7   6 C        2.909    -0.045    29.125     8.849
     8   6 C        3.080     0.040    27.026     8.523
     9   6 C        3.060    -0.012    28.250     8.716
    10   6 C        2.919    -0.033    28.828     8.805
    11   6 C        3.063    -0.011    28.236     8.714
    12   6 C        2.917    -0.038    28.937     8.821
    13   6 C        2.972     0.012    27.743     8.640
    14   6 C        3.903     0.028    20.053     6.365
    15   6 C        3.761    -0.108    22.617     6.779
    16   6 C        3.761    -0.112    22.681     6.789
    17   6 C        3.761    -0.107    22.587     6.775
    18   6 C        2.929    -0.036    28.894     8.815
    19   6 C        2.907    -0.044    29.103     8.846
    20   6 C        3.075     0.043    26.965     8.514
    21   7 N        2.799    -0.013    21.495     6.886
    22   6 C        2.907     0.028    27.382     8.580
    23   6 C        2.922    -0.035    28.867     8.811
    24   6 C        2.966    -0.045    29.104     8.849
    25   6 C        2.943    -0.014    28.368     8.736
    26  16 S        3.865     0.884   110.050    17.656
    27   8 O        0.860    -0.564    25.251     6.737
    28   8 O        0.860    -0.564    25.252     6.737
    29   6 C        2.943    -0.014    28.363     8.735
    30   6 C        2.966    -0.045    29.105     8.849
    31   6 C        2.922    -0.035    28.868     8.811
    32   6 C        2.907     0.028    27.378     8.580
    33   7 N        2.799    -0.013    21.498     6.886
    34   6 C        3.075     0.043    26.964     8.514
    35   6 C        2.907    -0.045    29.105     8.846
    36   6 C        2.929    -0.036    28.894     8.815
    37   6 C        2.972     0.012    27.744     8.640
    38   6 C        3.903     0.028    20.053     6.365
    39   6 C        3.761    -0.107    22.587     6.775
    40   6 C        3.761    -0.112    22.681     6.789
    41   6 C        3.761    -0.108    22.617     6.779
    42   6 C        2.917    -0.038    28.938     8.821
    43   6 C        3.063    -0.011    28.236     8.714
    44   6 C        3.060    -0.012    28.251     8.716
    45   6 C        2.919    -0.033    28.829     8.805
    46   6 C        2.973     0.013    27.726     8.637
    47   6 C        3.903     0.028    20.056     6.366
    48   6 C        3.762    -0.107    22.597     6.776
    49   6 C        3.761    -0.109    22.624     6.781
    50   6 C        3.762    -0.110    22.656     6.785
    51   6 C        2.927    -0.040    28.983     8.829
    52   6 C        2.909    -0.045    29.123     8.849
    53   6 C        3.080     0.040    27.027     8.523
    54   6 C        2.897     0.054    26.795     8.487
    55   7 N        1.878    -0.249    27.353     7.753
    56   7 N        1.878    -0.249    27.346     7.752
    57   6 C        2.897     0.054    26.795     8.487
    58   1 H        0.925     0.041     2.438     2.442
    59   1 H        0.925     0.040     2.454     2.450
    60   1 H        0.925     0.034     2.531     2.488
    61   1 H        0.925     0.044     2.395     2.420
    62   1 H        0.925     0.041     2.437     2.441
    63   1 H        0.925     0.033     2.548     2.496
    64   1 H        0.925     0.043     2.412     2.429
    65   1 H        0.925     0.044     2.395     2.420
    66   1 H        0.925     0.042     2.422     2.434
    67   1 H        0.926     0.048     2.351     2.398
    68   1 H        0.926     0.025     2.663     2.552
    69   1 H        0.926     0.054     2.275     2.359
    70   1 H        0.926     0.058     2.224     2.332
    71   1 H        0.925     0.040     2.448     2.447
    72   1 H        0.925     0.042     2.423     2.434
    73   1 H        0.925     0.037     2.486     2.466
    74   1 H        0.925     0.044     2.392     2.419
    75   1 H        0.925     0.039     2.464     2.455
    76   1 H        0.925     0.040     2.446     2.446
    77   1 H        0.925     0.037     2.490     2.468
    78   1 H        0.925     0.034     2.523     2.484
    79   1 H        0.925     0.042     2.420     2.433
    80   1 H        0.926     0.043     2.403     2.424
    81   1 H        0.926     0.035     2.513     2.479
    82   1 H        0.926     0.062     2.179     2.308
    83   1 H        0.926     0.052     2.299     2.371
    84   1 H        0.926     0.052     2.300     2.371
    85   1 H        0.926     0.062     2.178     2.308
    86   1 H        0.926     0.035     2.514     2.479
    87   1 H        0.926     0.043     2.404     2.425
    88   1 H        0.925     0.035     2.523     2.484
    89   1 H        0.925     0.037     2.490     2.468
    90   1 H        0.925     0.042     2.420     2.433
    91   1 H        0.925     0.040     2.446     2.446
    92   1 H        0.925     0.039     2.464     2.455
    93   1 H        0.925     0.044     2.394     2.420
    94   1 H        0.925     0.040     2.448     2.447
    95   1 H        0.925     0.042     2.424     2.435
    96   1 H        0.925     0.037     2.486     2.466
    97   1 H        0.926     0.058     2.225     2.332
    98   1 H        0.926     0.054     2.275     2.359
    99   1 H        0.925     0.041     2.437     2.441
   100   1 H        0.925     0.044     2.395     2.420
   101   1 H        0.925     0.033     2.548     2.496
   102   1 H        0.925     0.041     2.438     2.442
   103   1 H        0.925     0.034     2.532     2.488
   104   1 H        0.925     0.040     2.453     2.449
   105   1 H        0.925     0.044     2.396     2.421
   106   1 H        0.925     0.043     2.413     2.429
   107   1 H        0.925     0.042     2.423     2.434
   108   1 H        0.926     0.048     2.351     2.398
   109   1 H        0.926     0.025     2.664     2.552
   110   1 H        0.925     0.054     2.271     2.357
   111   1 H        0.925     0.054     2.271     2.357

molecular dipole:
                 x           y           z       tot (Debye)
 q only:       -0.218      -9.406       0.076
   full:       -0.205      -8.835       0.071      22.464

 projected vibrational frequencies (cm⁻¹)
eigval :       -0.00    -0.00    -0.00     0.00     0.00     0.00
eigval :        8.91    17.01    26.06    28.11    30.45    33.19
eigval :       38.16    38.45    41.82    46.56    55.01    64.39
eigval :       66.93    70.90    77.32    81.09    87.65    91.19
eigval :      101.05   104.80   124.91   127.47   140.78   145.09
eigval :      157.12   162.24   163.77   167.59   176.46   184.43
eigval :      186.09   188.12   190.38   194.36   203.74   225.07
eigval :      227.24   230.16   234.14   235.67   238.50   245.35
eigval :      247.32   256.74   268.85   269.71   276.26   276.95
eigval :      289.77   302.60   306.55   310.92   317.47   318.92
eigval :      322.15   330.30   333.44   334.95   338.51   339.38
eigval :      352.46   353.36   355.46   358.46   370.24   379.39
eigval :      381.63   388.47   391.40   398.38   403.16   403.89
eigval :      404.85   407.90   410.92   421.98   423.54   443.02
eigval :      443.80   445.59   446.05   462.71   463.60   467.01
eigval :      468.23   486.35   486.91   506.57   516.43   518.21
eigval :      527.91   569.70   572.12   580.00   581.82   586.02
eigval :      586.50   594.62   595.51   617.83   622.02   635.85
eigval :      641.93   642.35   643.76   685.69   690.19   691.52
eigval :      693.15   706.53   707.25   715.39   715.48   738.36
eigval :      743.56   793.87   798.63   822.79   823.63   825.56
eigval :      827.14   830.83   831.49   868.27   868.55   869.66
eigval :      871.85   871.96   873.72   880.45   884.29   892.55
eigval :      897.52   912.20   912.66   916.60   917.59   918.69
eigval :      920.51   922.46   923.49   935.46   936.78   957.68
eigval :      958.35   961.09   961.51   961.74   961.93   962.38
eigval :      962.76   962.92   963.80   965.39   968.00   979.22
eigval :      985.41  1029.77  1030.09  1032.07  1033.20  1033.66
eigval :     1034.92  1037.79  1037.96  1038.72  1039.75  1044.07
eigval :     1045.77  1102.19  1105.88  1110.06  1124.27  1125.48
eigval :     1126.69  1130.22  1138.27  1141.90  1160.15  1160.82
eigval :     1182.34  1201.76  1202.57  1204.76  1217.32  1221.59
eigval :     1221.62  1223.46  1223.73  1224.45  1225.30  1225.56
eigval :     1226.69  1227.79  1228.13  1236.75  1241.08  1249.08
eigval :     1251.31  1273.82  1274.77  1286.05  1286.46  1290.90
eigval :     1293.92  1294.66  1298.72  1321.63  1330.00  1331.73
eigval :     1333.04  1333.48  1351.01  1353.08  1362.38  1397.35
eigval :     1397.95  1398.98  1399.94  1400.36  1400.84  1401.57
eigval :     1402.44  1403.88  1404.13  1407.71  1407.93  1419.85
eigval :     1422.14  1425.46  1425.59  1426.47  1427.17  1440.84
eigval :     1441.57  1453.03  1453.21  1468.76  1469.02  1476.22
eigval :     1482.75  1486.05  1487.86  1487.95  1488.64  1489.61
eigval :     1490.83  1491.61  1495.29  1495.73  1496.63  1499.59
eigval :     1501.15  1502.25  1502.41  1502.58  1510.12  1510.35
eigval :     1512.32  1512.59  1516.25  1516.26  1519.53  1520.91
eigval :     1551.24  1556.27  1556.50  1569.74  1570.21  1571.77
eigval :     1571.87  1588.99  1599.29  3019.16  3019.73  3023.39
eigval :     3023.50  3024.06  3024.13  3024.39  3024.50  3025.47
eigval :     3025.63  3027.29  3027.46  3029.40  3029.43  3029.69
eigval :     3029.98  3030.30  3030.64  3033.19  3033.45  3035.31
eigval :     3035.38  3036.19  3036.65  3041.91  3042.22  3044.86
eigval :     3046.33  3046.56  3046.61  3049.35  3049.61  3049.82
eigval :     3049.85  3051.15  3052.05  3057.01  3059.11  3081.18
eigval :     3081.97  3086.85  3087.62  3088.12  3089.04  3101.38
eigval :     3101.59  3102.47  3103.62  3110.17  3110.69  3124.87
eigval :     3126.09  3127.69  3128.30

   temp. (K)  partition function   enthalpy   heat capacity  entropy
                                   cal/mol     cal/K/mol   cal/K/mol   J/K/mol
 298.15  VIB  0.841E+24            33038.022    204.661    202.946
         ROT  0.525E+08              888.752      2.981     38.308
         INT  0.442E+32            33926.775    207.642    241.254
         TR   0.209E+29             1481.254      4.968     45.801
         TOT                       35408.0287   212.6104   287.0552  1201.0391

       T/K    H(0)-H(T)+PV         H(T)/Eh          T*S/Eh         G(T)/Eh
   ------------------------------------------------------------------------
    298.15    0.564263E-01    0.961915E+00    0.136389E+00    0.825526E+00
   ------------------------------------------------------------------------

         :::::::::::::::::::::::::::::::::::::::::::::::::::::
         ::                  THERMODYNAMIC                  ::
         :::::::::::::::::::::::::::::::::::::::::::::::::::::
         :: total free energy        -156.944355515705 Eh   ::
         ::.................................................::
         :: total energy             -157.769881035949 Eh   ::
         :: zero point energy           0.905488433926 Eh   ::
         :: G(RRHO) w/o ZPVE           -0.079962913681 Eh   ::
         :: G(RRHO) contrib.            0.825525520244 Eh   ::
         :::::::::::::::::::::::::::::::::::::::::::::::::::::

           -------------------------------------------------
          | TOTAL ENERGY             -157.769881035949 Eh   |
          | TOTAL ENTHALPY           -156.807966316656 Eh   |
          | TOTAL FREE ENERGY        -156.944355515705 Eh   |
          | GRADIENT NORM               0.000064775543 Eh/α |
          | HOMO-LUMO GAP               0.644209002295 eV   |
           -------------------------------------------------

 * finished run on 2025/09/05 at 07:42:53.682
