   * xtb version 6.7.1 (edcfbbe) compiled by 'albert@albert-system' on 2024-07-22

   ID    Z sym.   atoms
    1    6 C      1-6, 8-13, 15-19, 22-26, 28-33, 35-47, 49-54, 56-63, 65, 66
    2    8 O      7, 34, 55
    3    7 N      14, 20, 21, 27, 48, 64
    4    1 H      67-102

          program call               : xtb data2507/toluene/TPXZ-as-TAZ/TPXZ-as-TAZ.xyz --gfn 2 --gbsa toluene --ohess vtight --parallel 40 --molden --ceasefiles --namespace data2507/toluene/TPXZ-as-TAZ/TPXZ-as-TAZ_toluene_S0_preOpt
      * Solvation model:               GBSA
        Solvent                        toluene
        Solvent mass                       9.2140E+01 g/mol
          :  Hamiltonian                  GFN2-xTB          :
 * total energy  :  -170.2467858 Eh     change       -0.3398384E-08 Eh
 * total energy  :  -170.2648101 Eh     change       -0.1802429E-01 Eh
 * total energy  :  -170.2711040 Eh     change       -0.6293891E-02 Eh
 * total energy  :  -170.2736170 Eh     change       -0.2513037E-02 Eh
 * total energy  :  -170.2760755 Eh     change       -0.2458469E-02 Eh
 * total energy  :  -170.2778758 Eh     change       -0.1800335E-02 Eh
 * total energy  :  -170.2791873 Eh     change       -0.1311457E-02 Eh
 * total energy  :  -170.2800846 Eh     change       -0.8973018E-03 Eh
 * total energy  :  -170.2805740 Eh     change       -0.4894683E-03 Eh
 * total energy  :  -170.2808643 Eh     change       -0.2902406E-03 Eh
 * total energy  :  -170.2837548 Eh     change       -0.1442384E-05 Eh
 * total energy  :  -170.2837563 Eh     change       -0.1507992E-05 Eh
 * total energy  :  -170.2837580 Eh     change       -0.1695902E-05 Eh
 * total energy  :  -170.2837594 Eh     change       -0.1384077E-05 Eh
 * total energy  :  -170.2837602 Eh     change       -0.8402184E-06 Eh
 * total energy  :  -170.2837609 Eh     change       -0.6271879E-06 Eh
 * total energy  :  -170.2837613 Eh     change       -0.3962770E-06 Eh
 * total energy  :  -170.2837617 Eh     change       -0.4333445E-06 Eh
 * total energy  :  -170.2837617 Eh     change       -0.8458102E-08 Eh
   *** GEOMETRY OPTIMIZATION CONVERGED AFTER 152 ITERATIONS ***

 final structure:
================
102
 xtb: 6.7.1 (edcfbbe)
C            9.93551348236146       -3.59501475013593       -2.74509156095175
C            8.56797298623578       -3.65421362513438       -2.56706860125368
C            7.93276096708512       -2.76865399111278       -1.70938585761756
C            8.65761093819029       -1.81463384380125       -1.00509418402957
C           10.04098295237820       -1.74318024248572       -1.21764886818377
C           10.67024523259427       -2.62878848077663       -2.07289357593136
O           10.83275739154951       -0.79467501718065       -0.61276732014788
C           10.21555700575217        0.10014961016519        0.23048044339943
C           11.02263880004617        1.04476042988299        0.83719474393396
C           10.48072563180789        1.96194843886732        1.72620723444330
C            9.13151827714555        1.91319684732854        2.01369350757544
C            8.31771427969959        0.96923155548325        1.40540059684926
C            8.83869964146946        0.06335370754338        0.48917588038624
N            8.04788043012263       -0.90244510572723       -0.13961733970451
C            6.65960746116981       -0.96337552211990        0.10553338520202
C            6.10529372043422       -2.08349024521993        0.72327961510233
C            4.74917417784669       -2.14144747076975        0.96586443923897
C            3.92218604910845       -1.07925992115802        0.59665302741885
C            2.49169079615325       -1.13856292648677        0.85965846649530
N            2.01276068705472       -2.13241976230849        1.62074691489803
N            0.74206892089706       -2.34924919738251        1.58829803835799
C           -0.10545493488480       -1.53885790662163        0.97329811380258
C           -1.47943105039194       -1.98826939540167        0.79850525321734
C           -2.04800210435280       -2.86942327991076        1.72016107579174
C           -3.35185337002515       -3.29349757187772        1.57085289609481
C           -4.11027475817210       -2.85741845952215        0.48626155052004
N           -5.44955613057075       -3.27646907434130        0.33670246253116
C           -5.75683932632492       -4.62395971085419        0.13125102515628
C           -4.77459618605046       -5.59970983482252        0.01223818280057
C           -5.11373524702679       -6.92874951005154       -0.19255739107922
C           -6.43839513236515       -7.30431073572841       -0.29071433674309
C           -7.43036678593786       -6.33764838843751       -0.20613838868945
C           -7.09684109897071       -5.01107763044318       -0.00550896715486
O           -8.13436141826464       -4.10788278104919        0.03283903396641
C           -7.81355297440843       -2.78445267911988        0.22838744082744
C           -8.86358494133625       -1.88609789471340        0.27520768697753
C           -8.62342000912292       -0.53837279472507        0.50268604656573
C           -7.32883479033661       -0.10283452089591        0.70184435672280
C           -6.27272211622694       -1.00024542200292        0.65143015046918
C           -6.49213087848944       -2.34773244944978        0.39227959433692
C           -3.53652108638767       -2.00324794929522       -0.45357343016683
C           -2.23572341694394       -1.57233687516278       -0.29903451097819
C            0.40057824640663       -0.26838543108193        0.56399630313219
C           -0.41819639226041        0.92065432940900        0.36296657040536
C           -1.58416728065160        1.13570072360618        1.10010619364394
C           -2.34649144558909        2.26403758033801        0.88411239549277
C           -1.96630749774939        3.19814888359110       -0.07888837322103
N           -2.75970267280421        4.33856959613461       -0.31483443734104
C           -4.06955785736223        4.21039475403965       -0.78845433140064
C           -4.64215138056855        2.97589204226231       -1.07048730442583
C           -5.94257561728903        2.88369752269348       -1.54324345484297
C           -6.69054617058018        4.02472120651636       -1.75333989217672
C           -6.12343102203069        5.26709494733505       -1.50901733467889
C           -4.82599238906142        5.36294845260602       -1.04001403639850
O           -4.32449411063088        6.63051835149577       -0.85743830137291
C           -3.03551591424763        6.73945604939783       -0.39046395382192
C           -2.54881906110413        8.01862634620231       -0.19278000988135
C           -1.26990970877057        8.21164896543632        0.30906147029520
C           -0.49368173388294        7.11600839088398        0.62955850339982
C           -0.97690242443712        5.83158275560173        0.43059853584814
C           -2.24213292932492        5.62048283786025       -0.10436195904397
C           -0.79264693152259        2.99612855491288       -0.80339910522591
C           -0.02345189732063        1.87477658444294       -0.57667976567438
N            1.70882454714774       -0.16060896400690        0.41408008896378
C            4.47994165614965        0.03946208457392       -0.02408005653032
C            5.83591788926043        0.09769519661737       -0.26706107392411
H           10.43568219189582       -4.28328819543913       -3.40804855930101
H            7.97955356713201       -4.38781327101085       -3.09652331624469
H            6.86169439791460       -2.81633042282212       -1.59143878325467
H           11.73766196547319       -2.54187077350933       -2.20269390174355
H           12.07593305533637        1.04159481033333        0.60416311931938
H           11.11796834362433        2.69669928490737        2.19257096799362
H            8.69769539232786        2.60658680695695        2.71780467718584
H            7.26828946246392        0.93244513088248        1.65171149161757
H            6.74772080595925       -2.90116418138389        1.01477624074498
H            4.31064807151108       -2.99989390495757        1.45025790371633
H           -1.45497232511774       -3.19799829316234        2.55951732959607
H           -3.79482218061623       -3.95986379610494        2.29600868228773
H           -3.73522583899671       -5.31804767879784        0.07315650784641
H           -4.32936700676961       -7.66530446519127       -0.27612959424731
H           -6.70896316834331       -8.33713257814292       -0.44389409917515
H           -8.47437241585451       -6.59318903086989       -0.29882400043550
H           -9.86461366845645       -2.26359145621283        0.13671194811281
H           -9.44884136495698        0.15516655055565        0.53426553937657
H           -7.12735122670127        0.93893368147174        0.89853389456185
H           -5.26718516707327       -0.65144660950646        0.82278920521396
H           -4.11719901156651       -1.68549373736681       -1.30682240946731
H           -1.79334120035797       -0.92629086875137       -1.04303492548864
H           -1.87630417328522        0.42933828858282        1.86285343070374
H           -3.23901239319657        2.43580773965259        1.46691537057287
H           -4.06341494012056        2.07759679518396       -0.92825667481534
H           -6.36218318184907        1.91029430138303       -1.74569900034610
H           -7.70408842023744        3.96013842052901       -2.11634643024848
H           -6.67116661687842        6.18001115576802       -1.68297940653463
H           -3.19072992814971        8.85133158593153       -0.43400719998738
H           -0.89754788992525        9.21317600947826        0.45611829780893
H            0.49506724079020        7.24852677344237        1.04119786603711
H           -0.36566585730795        4.98533821925373        0.70164688898005
H           -0.49445137984018        3.72056799900002       -1.54659471666588
H            0.88163730029432        1.70763799932526       -1.13984551277202
H            3.83521148697696        0.85619443465667       -0.30865384011543
H            6.26830309964536        0.96144489182861       -0.75017849264900

          :  Hamiltonian                  GFN2-xTB          :
         :: gradient norm              0.000065344821 Eh/a0 ::
         :: HOMO-LUMO gap              1.242403938975 eV    ::
         :: SCC energy              -173.198796505007 Eh    ::
         :: -> dispersion             -0.148540491492 Eh    ::
         :: -> Gsolv                  -0.068196796921 Eh    ::
         :: repulsion energy           2.915034794210 Eh    ::

    * Orbital Energies and Occupations

         #    Occupation            Energy/Eh            Energy/eV
      -------------------------------------------------------------
         1        2.0000           -0.7326550             -19.9366
       ...           ...                  ...                  ...
       144        2.0000           -0.4176074             -11.3637
       145        2.0000           -0.4170887             -11.3496
       146        2.0000           -0.4158728             -11.3165
       147        2.0000           -0.4145560             -11.2806
       148        2.0000           -0.4139326             -11.2637
       149        2.0000           -0.4029523             -10.9649
       150        2.0000           -0.3936748             -10.7124
       151        2.0000           -0.3923539             -10.6765
       152        2.0000           -0.3916020             -10.6560
       153        2.0000           -0.3586801              -9.7602
       154        2.0000           -0.3474286              -9.4540
       155        2.0000           -0.3457768              -9.4091
       156        2.0000           -0.3450054              -9.3881 (HOMO)
       157                         -0.2993478              -8.1457 (LUMO)
       158                         -0.2959048              -8.0520
       159                         -0.2578224              -7.0157
       160                         -0.2470535              -6.7227
       161                         -0.2419372              -6.5834
       162                         -0.2413512              -6.5675
       163                         -0.2409949              -6.5578
       164                         -0.2400729              -6.5327
       165                         -0.2394098              -6.5147
       166                         -0.2374666              -6.4618
       167                         -0.2329332              -6.3384
       ...                                ...                  ...
       300                          0.6726721              18.3043
      -------------------------------------------------------------
                  HL-Gap            0.0456576 Eh            1.2424 eV

     #   Z          covCN         q      C6AA      α(0)
     1   6 C        2.919    -0.041    29.015     8.833
     2   6 C        2.919    -0.039    28.968     8.826
     3   6 C        2.924    -0.061    29.507     8.908
     4   6 C        2.921     0.042    27.056     8.530
     5   6 C        2.882     0.123    25.308     8.247
     6   6 C        2.919    -0.058    29.437     8.897
     7   8 O        1.708    -0.271    18.497     5.807
     8   6 C        2.882     0.122    25.309     8.247
     9   6 C        2.919    -0.058    29.437     8.897
    10   6 C        2.919    -0.041    29.015     8.833
    11   6 C        2.919    -0.039    28.967     8.826
    12   6 C        2.924    -0.061    29.507     8.908
    13   6 C        2.921     0.042    27.056     8.530
    14   7 N        2.751    -0.071    22.609     7.062
    15   6 C        2.921     0.070    26.434     8.431
    16   6 C        2.920    -0.038    28.949     8.823
    17   6 C        2.923    -0.028    28.697     8.785
    18   6 C        2.981    -0.006    28.173     8.707
    19   6 C        2.921     0.174    24.263     8.078
    20   7 N        1.930    -0.181    25.732     7.522
    21   7 N        1.957    -0.122    24.407     7.326
    22   6 C        2.923     0.068    26.469     8.437
    23   6 C        2.978    -0.001    28.047     8.687
    24   6 C        2.924    -0.028    28.701     8.785
    25   6 C        2.920    -0.038    28.943     8.822
    26   6 C        2.920     0.068    26.484     8.439
    27   7 N        2.751    -0.072    22.631     7.066
    28   6 C        2.921     0.042    27.057     8.530
    29   6 C        2.924    -0.061    29.510     8.908
    30   6 C        2.919    -0.039    28.967     8.826
    31   6 C        2.919    -0.041    29.017     8.833
    32   6 C        2.919    -0.058    29.439     8.898
    33   6 C        2.882     0.122    25.314     8.248
    34   8 O        1.708    -0.272    18.512     5.809
    35   6 C        2.882     0.122    25.310     8.248
    36   6 C        2.919    -0.058    29.438     8.897
    37   6 C        2.919    -0.041    29.017     8.834
    38   6 C        2.919    -0.039    28.971     8.826
    39   6 C        2.924    -0.061    29.514     8.909
    40   6 C        2.922     0.042    27.063     8.531
    41   6 C        2.920    -0.039    28.975     8.827
    42   6 C        2.922    -0.032    28.786     8.798
    43   6 C        2.960     0.101    25.761     8.325
    44   6 C        2.978    -0.003    28.089     8.694
    45   6 C        2.921    -0.030    28.743     8.792
    46   6 C        2.920    -0.039    28.970     8.826
    47   6 C        2.920     0.069    26.459     8.435
    48   7 N        2.751    -0.070    22.595     7.060
    49   6 C        2.921     0.041    27.073     8.533
    50   6 C        2.924    -0.061    29.505     8.908
    51   6 C        2.919    -0.039    28.961     8.825
    52   6 C        2.919    -0.040    29.000     8.831
    53   6 C        2.919    -0.057    29.428     8.896
    54   6 C        2.883     0.123    25.302     8.246
    55   8 O        1.708    -0.271    18.486     5.805
    56   6 C        2.882     0.123    25.303     8.247
    57   6 C        2.919    -0.058    29.431     8.896
    58   6 C        2.919    -0.040    29.001     8.831
    59   6 C        2.919    -0.039    28.965     8.826
    60   6 C        2.924    -0.060    29.500     8.907
    61   6 C        2.921     0.041    27.070     8.532
    62   6 C        2.920    -0.039    28.966     8.826
    63   6 C        2.924    -0.025    28.635     8.776
    64   7 N        1.854    -0.256    27.508     7.774
    65   6 C        2.923    -0.027    28.687     8.783
    66   6 C        2.920    -0.039    28.978     8.828
    67   1 H        0.926     0.043     2.414     2.430
    68   1 H        0.926     0.042     2.429     2.437
    69   1 H        0.926     0.039     2.465     2.455
    70   1 H        0.926     0.048     2.340     2.392
    71   1 H        0.926     0.048     2.340     2.392
    72   1 H        0.926     0.043     2.413     2.429
    73   1 H        0.926     0.042     2.425     2.435
    74   1 H        0.926     0.039     2.457     2.451
    75   1 H        0.926     0.052     2.298     2.371
    76   1 H        0.926     0.061     2.191     2.315
    77   1 H        0.926     0.058     2.225     2.333
    78   1 H        0.926     0.052     2.299     2.371
    79   1 H        0.926     0.039     2.456     2.451
    80   1 H        0.926     0.042     2.427     2.436
    81   1 H        0.926     0.042     2.418     2.432
    82   1 H        0.926     0.048     2.346     2.395
    83   1 H        0.926     0.048     2.348     2.396
    84   1 H        0.926     0.043     2.415     2.430
    85   1 H        0.926     0.043     2.415     2.430
    86   1 H        0.926     0.038     2.476     2.461
    87   1 H        0.926     0.049     2.331     2.388
    88   1 H        0.926     0.037     2.491     2.468
    89   1 H        0.926     0.039     2.462     2.454
    90   1 H        0.926     0.051     2.307     2.375
    91   1 H        0.926     0.039     2.460     2.453
    92   1 H        0.926     0.043     2.406     2.426
    93   1 H        0.926     0.043     2.405     2.425
    94   1 H        0.926     0.049     2.337     2.390
    95   1 H        0.926     0.049     2.336     2.390
    96   1 H        0.926     0.043     2.408     2.426
    97   1 H        0.926     0.042     2.418     2.432
    98   1 H        0.926     0.040     2.451     2.448
    99   1 H        0.926     0.052     2.290     2.367
   100   1 H        0.926     0.055     2.256     2.349
   101   1 H        0.926     0.058     2.218     2.329
   102   1 H        0.926     0.052     2.297     2.370

molecular dipole:
                 x           y           z       tot (Debye)
 q only:       -0.062       0.304      -0.157
   full:       -0.255       0.462      -0.303       1.547

 projected vibrational frequencies (cm⁻¹)
eigval :       -0.00    -0.00    -0.00     0.00     0.00     0.00
eigval :       -3.13     5.95     9.32    13.11    14.03    17.55
eigval :       21.54    26.35    29.66    37.17    40.05    41.92
eigval :       49.34    56.29    58.52    66.10    67.79    75.85
eigval :       92.80    95.04   105.50   114.69   117.14   119.08
eigval :      124.03   132.44   152.64   171.04   184.41   193.18
eigval :      195.41   202.89   233.05   241.02   247.49   249.31
eigval :      252.66   254.45   265.07   270.76   273.45   278.35
eigval :      287.13   323.04   339.95   342.61   354.22   368.28
eigval :      373.62   376.31   379.52   380.93   384.94   392.14
eigval :      398.93   403.06   405.09   417.90   419.78   425.50
eigval :      429.26   429.51   430.01   431.18   442.94   446.10
eigval :      447.99   456.47   471.81   484.08   497.70   506.52
eigval :      509.40   509.96   510.04   521.67   522.36   522.55
eigval :      537.49   544.33   553.58   565.12   578.46   582.37
eigval :      587.04   587.80   592.33   601.83   605.42   608.52
eigval :      613.00   628.45   640.05   646.92   656.49   658.67
eigval :      659.42   659.74   660.84   661.00   666.77   674.10
eigval :      687.94   690.57   697.02   706.15   725.36   732.90
eigval :      755.12   773.95   777.31   777.52   777.86   778.20
eigval :      779.99   794.10   799.99   801.05   819.04   819.91
eigval :      828.47   852.73   853.33   853.49   859.71   860.71
eigval :      862.13   862.80   864.64   866.16   867.07   871.53
eigval :      873.33   879.08   895.50   896.12   896.57   896.86
eigval :      897.66   898.47   911.47   912.30   913.07   913.59
eigval :      913.76   914.24   914.81   915.40   915.73   916.15
eigval :      916.32   922.05   923.21   929.48   929.90   930.74
eigval :      931.64   937.31   997.61  1004.46  1015.00  1045.09
eigval :     1084.18  1087.66  1088.72  1089.78  1090.24  1090.77
eigval :     1090.95  1106.06  1106.09  1106.35  1116.92  1117.35
eigval :     1117.97  1124.67  1128.24  1128.90  1143.39  1167.51
eigval :     1168.87  1168.96  1173.36  1173.39  1174.89  1175.52
eigval :     1179.89  1180.95  1183.94  1185.68  1188.30  1197.18
eigval :     1197.87  1198.49  1204.07  1216.89  1218.64  1221.87
eigval :     1240.99  1241.53  1241.57  1247.93  1258.20  1259.38
eigval :     1259.61  1259.89  1260.69  1261.07  1299.48  1303.77
eigval :     1304.15  1304.42  1304.47  1305.28  1311.52  1313.65
eigval :     1317.31  1331.44  1332.87  1333.79  1334.99  1349.92
eigval :     1351.54  1354.23  1371.25  1387.87  1389.24  1403.52
eigval :     1406.87  1417.83  1422.12  1422.85  1425.15  1440.89
eigval :     1441.07  1441.50  1467.62  1478.08  1478.95  1479.90
eigval :     1480.28  1481.99  1483.32  1501.79  1502.80  1502.99
eigval :     1550.51  1551.96  1557.57  1566.04  1566.21  1566.36
eigval :     1578.84  1578.90  1578.94  1579.80  1581.51  1584.08
eigval :     1588.21  1588.59  1589.26  1601.47  1601.79  1601.85
eigval :     3079.82  3082.69  3086.95  3086.99  3087.22  3087.30
eigval :     3087.52  3087.86  3088.25  3089.11  3090.12  3090.75
eigval :     3092.91  3095.54  3095.87  3096.01  3096.45  3096.53
eigval :     3097.85  3098.14  3101.62  3103.70  3103.99  3104.10
eigval :     3104.39  3104.47  3105.75  3107.11  3107.72  3107.76
eigval :     3108.64  3108.75  3109.47  3109.49  3113.62  3114.46

   temp. (K)  partition function   enthalpy   heat capacity  entropy
                                   cal/mol     cal/K/mol   cal/K/mol   J/K/mol
 298.15  VIB  0.135E+27            30642.694    191.043    193.724
         ROT  0.320E+09              888.752      2.981     41.900
         INT  0.433E+35            31531.446    194.024    235.624
         TR   0.241E+29             1481.254      4.968     46.086
         TOT                       33012.6999   198.9925   281.7100  1178.6748

       T/K    H(0)-H(T)+PV         H(T)/Eh          T*S/Eh         G(T)/Eh
   ------------------------------------------------------------------------
    298.15    0.526091E-01    0.813318E+00    0.133850E+00    0.679468E+00
   ------------------------------------------------------------------------

         :::::::::::::::::::::::::::::::::::::::::::::::::::::
         ::                  THERMODYNAMIC                  ::
         :::::::::::::::::::::::::::::::::::::::::::::::::::::
         :: total free energy        -169.604293714875 Eh   ::
         ::.................................................::
         :: total energy             -170.283761708773 Eh   ::
         :: zero point energy           0.760708435048 Eh   ::
         :: G(RRHO) w/o ZPVE           -0.081240441149 Eh   ::
         :: G(RRHO) contrib.            0.679467993898 Eh   ::
         :::::::::::::::::::::::::::::::::::::::::::::::::::::

           -------------------------------------------------
          | TOTAL ENERGY             -170.283761708773 Eh   |
          | TOTAL ENTHALPY           -169.470444187757 Eh   |
          | TOTAL FREE ENERGY        -169.604293714875 Eh   |
          | GRADIENT NORM               0.000065326019 Eh/α |
          | HOMO-LUMO GAP               1.242405247070 eV   |
           -------------------------------------------------

 * finished run on 2025/08/25 at 21:51:14.410
