   * xtb version 6.7.1 (edcfbbe) compiled by 'albert@albert-system' on 2024-07-22

   ID    Z sym.   atoms
    1    6 C      1-6, 8-13, 15-19, 22-26, 28-33, 35-47, 49-54, 56-63, 65, 66
    2    8 O      7, 34, 55
    3    7 N      14, 20, 21, 27, 48, 64
    4    1 H      67-102

          program call               : xtb data2507/toluene/TPXZ-as-TAZ/TPXZ-as-TAZ_toluene_T1_crest.xyz --gfn 2 --uhf 2 --gbsa toluene --ohess vtight --parallel 40 --molden --ceasefiles --namespace data2507/toluene/TPXZ-as-TAZ/TPXZ-as-TAZ_toluene_T1_finalOpt
      * Solvation model:               GBSA
        Solvent                        toluene
        Solvent mass                       9.2140E+01 g/mol
          :  Hamiltonian                  GFN2-xTB          :
 * total energy  :  -170.2288720 Eh     change       -0.2171788E-08 Eh
 * total energy  :  -170.2289551 Eh     change       -0.8307085E-04 Eh
 * total energy  :  -170.2290244 Eh     change       -0.6925076E-04 Eh
 * total energy  :  -170.2290577 Eh     change       -0.3337206E-04 Eh
 * total energy  :  -170.2291033 Eh     change       -0.4559026E-04 Eh
 * total energy  :  -170.2291392 Eh     change       -0.3585793E-04 Eh
 * total energy  :  -170.2291680 Eh     change       -0.2879349E-04 Eh
 * total energy  :  -170.2291991 Eh     change       -0.3110943E-04 Eh
 * total energy  :  -170.2292349 Eh     change       -0.3583864E-04 Eh
 * total energy  :  -170.2292715 Eh     change       -0.3652303E-04 Eh
 * total energy  :  -170.2309384 Eh     change       -0.4028164E-06 Eh
 * total energy  :  -170.2309387 Eh     change       -0.3202391E-06 Eh
 * total energy  :  -170.2309390 Eh     change       -0.2727873E-06 Eh
 * total energy  :  -170.2309392 Eh     change       -0.2736283E-06 Eh
 * total energy  :  -170.2309396 Eh     change       -0.3476614E-06 Eh
 * total energy  :  -170.2309400 Eh     change       -0.4158150E-06 Eh
 * total energy  :  -170.2309404 Eh     change       -0.4051996E-06 Eh
 * total energy  :  -170.2309407 Eh     change       -0.2788852E-06 Eh
 * total energy  :  -170.2309407 Eh     change       -0.3748966E-08 Eh
   *** GEOMETRY OPTIMIZATION CONVERGED AFTER 122 ITERATIONS ***

 final structure:
================
102
 xtb: 6.7.1 (edcfbbe)
C           10.15531576100981       -2.92948280160214       -2.80536994881836
C            8.78263453769654       -3.04217192117135       -2.68733049067460
C            8.08466313938662       -2.22857709575775       -1.80975717892107
C            8.75142117902653       -1.29120860069794       -1.02713812509139
C           10.14179998838436       -1.16842619131119       -1.17245777874611
C           10.83335279860071       -1.98507914495833       -2.04904098925002
O           10.87281955858530       -0.24032810903727       -0.47205559554646
C           10.19229508421785        0.58241159450771        0.39201958531501
C           10.93727085443257        1.51411646472361        1.09236383473285
C           10.31929726739058        2.36442498664229        1.99717595145303
C            8.95612819687549        2.26742044922969        2.20436352858003
C            8.20445521085526        1.33625525065555        1.50618536059294
C            8.80453659247823        0.48930399019662        0.57982893301614
N            8.07994446590246       -0.45761265289612       -0.13796627519629
C            6.68372713419171       -0.59789544155187        0.06094420701000
C            6.18088125322460       -1.73480189094306        0.69325960085567
C            4.82641102438975       -1.87359956575651        0.89146401777683
C            3.93719230269633       -0.87850642126438        0.45936146029975
C            2.52364596786696       -1.02666670435929        0.66160737397138
N            2.06077790376488       -2.14334823083796        1.32526689322060
N            0.80975266865339       -2.35347335353802        1.37008837273116
C           -0.11018457766429       -1.54868051648598        0.91008956530295
C           -1.47312570796530       -2.02420826037472        0.81385924041570
C           -1.97604743957088       -2.91897806762028        1.76647045913161
C           -3.26647871216499       -3.39227005814541        1.67671675606875
C           -4.08600837148208       -2.99670386596928        0.62029918198549
N           -5.41532660229684       -3.47365805354920        0.53246825273658
C           -5.66797598086074       -4.83074938578530        0.33968849387222
C           -4.64672357193711       -5.75584792631458        0.14931361279026
C           -4.93239416953786       -7.09861651796183       -0.03858954953659
C           -6.24154907926490       -7.54088984643083       -0.05001956439976
C           -7.27344676707548       -6.62790238334538        0.10863017810132
C           -6.99406241315546       -5.28609720761513        0.29514934828748
O           -8.06679423123014       -4.43660274095467        0.41725188592311
C           -7.80049978173061       -3.09796156613583        0.57254713334707
C           -8.88872180580562       -2.25015196528472        0.67611682566725
C           -8.69942159444409       -0.88917528910579        0.86400595188237
C           -7.41579570180585       -0.38681511814907        0.96007401844830
C           -6.32224712246064       -1.23126250657670        0.85424021603371
C           -6.49235031023810       -2.59534278414826        0.64094776426505
C           -3.58452173552269       -2.13356228067454       -0.35171268491646
C           -2.29797215911599       -1.65085841431639       -0.25590448518929
C            0.36755651071716       -0.24123810719500        0.41708008276293
C           -0.48587950048919        0.88782244139874        0.17891098864852
C           -1.70591073408027        1.05730696693751        0.85903328494037
C           -2.49638653143453        2.15737053645930        0.62195520244817
C           -2.10755071019207        3.12152435754732       -0.30771005812645
N           -2.94090854595506        4.23465802193309       -0.57311737684484
C           -4.19139718253516        4.05715632003396       -1.16056107030566
C           -4.66885764918469        2.80353732600521       -1.53026500805672
C           -5.91852931455704        2.66283812183546       -2.11173207507574
C           -6.71163845786239        3.77070127914487       -2.34282911619518
C           -6.24174180966402        5.03103097010138       -2.00465609405579
C           -4.99408953385009        5.17742208234095       -1.42545076584921
O           -4.58505376300785        6.45778820449870       -1.14208974827923
C           -3.35233748319196        6.61432120153128       -0.55638670225101
C           -2.95886511429591        7.90585215257708       -0.25575263830150
C           -1.73884152508781        8.13830022316246        0.36167804442098
C           -0.92607208119593        7.06972398707142        0.68970978300626
C           -1.31446892410421        5.77409964687474        0.38967423533265
C           -2.52191602628146        5.52412296652674       -0.25485425557473
C           -0.88616472537917        2.98164991649774       -0.96921120401784
C           -0.08628448818951        1.89173879408655       -0.72211308364972
N            1.67348508089684       -0.11310381757500        0.25134304685369
C            4.45406781904231        0.26179603603142       -0.17449818579509
C            5.80844704945689        0.39926029949565       -0.37089180759398
H           10.70234523388863       -3.56356444841934       -3.48502730696775
H            8.24220771771290       -3.76362971694330       -3.28057907047902
H            7.01261619919086       -2.31594953219597       -1.72963308413797
H           11.90218046846313       -1.86278557257353       -2.12735170729742
H           12.00084770690126        1.55469809150761        0.91742185801433
H           10.90738266552724        3.08906937382708        2.53773388371782
H            8.46569370462979        2.91476013731623        2.91500336740805
H            7.14337736820137        1.25847806395377        1.68271934532152
H            6.86525358488300       -2.50101464290249        1.02746173510453
H            4.42526363832692       -2.74562950099821        1.38430736500630
H           -1.33925578781402       -3.22252932632640        2.58341397778596
H           -3.65240556100494       -4.06766868280521        2.42612239768914
H           -3.62191433134851       -5.41984876786650        0.14354873199727
H           -4.12021966271622       -7.79521291321179       -0.17875599557108
H           -6.46813814389410       -8.58581923615588       -0.19120875373690
H           -8.30681941703882       -6.93643881891663        0.08715893760761
H           -9.87689707743671       -2.67800929388135        0.61351235100727
H           -9.55338904265046       -0.23518562166906        0.94230264139654
H           -7.25417975064309        0.66772195056087        1.12231828641543
H           -5.32557035950402       -0.83066893764688        0.94414429698909
H           -4.21019935197740       -1.85167540125343       -1.18584365628824
H           -1.91139653436112       -1.00125058860606       -1.02666367286101
H           -2.00624645638183        0.33808751070274        1.60546275498529
H           -3.42279915405439        2.28725772953774        1.16250973663383
H           -4.05253464458440        1.93444112782662       -1.36592769514725
H           -6.26599510081746        1.67807489364974       -2.38408779509061
H           -7.68670514569939        3.66509178342950       -2.79141768410769
H           -6.82741039666434        5.91830332864588       -2.18700696336348
H           -3.62465497263057        8.71550938822899       -0.51011295004056
H           -1.43818547539086        9.14857784085526        0.58992046832335
H            0.01797606648153        7.23508869254232        1.18574169606899
H           -0.67919287513542        4.94621695192456        0.66191768929335
H           -0.57880956064252        3.73334773056403       -1.68182807381587
H            0.85533283900015        1.77877449982996       -1.23689502838685
H            3.76811052290872        1.02602820464647       -0.50563880601871
H            6.20520740174513        1.27560383149361       -0.86252333879761

          :  Hamiltonian                  GFN2-xTB          :
         :: gradient norm              0.000062297076 Eh/a0 ::
         :: HOMO-LUMO gap              0.205604700491 eV    ::
         :: SCC energy              -173.142624348131 Eh    ::
         :: -> dispersion             -0.147801494750 Eh    ::
         :: -> Gsolv                  -0.068850891181 Eh    ::
         :: repulsion energy           2.911683656922 Eh    ::

    * Orbital Energies and Occupations

         #    Occupation            Energy/Eh            Energy/eV
      -------------------------------------------------------------
         1        2.0000           -0.7363538             -20.0372
       ...           ...                  ...                  ...
       145        2.0000           -0.4144683             -11.2783
       146        2.0000           -0.4129972             -11.2382
       147        2.0000           -0.4126026             -11.2275
       148        2.0000           -0.4079246             -11.1002
       149        2.0000           -0.3968472             -10.7988
       150        2.0000           -0.3955852             -10.7644
       151        2.0000           -0.3950957             -10.7511
       152        2.0000           -0.3872397             -10.5373
       153        1.9843           -0.3494527              -9.5091
       154        1.9131           -0.3477566              -9.4629
       155        1.8602           -0.3472482              -9.4491
       156        1.2424           -0.3444390              -9.3727
       157        0.9816           -0.2911231              -7.9219 (HOMO)
       158        0.0184           -0.2835672              -7.7163 (LUMO)
       159                         -0.2496165              -6.7924
       160                         -0.2440176              -6.6401
       161                         -0.2439352              -6.6378
       162                         -0.2438849              -6.6364
       163                         -0.2377549              -6.4696
       164                         -0.2347590              -6.3881
       165                         -0.2346581              -6.3854
       166                         -0.2339684              -6.3666
       167                         -0.2305641              -6.2740
       168                         -0.2285745              -6.2198
       ...                                ...                  ...
       300                          0.6764759              18.4078
      -------------------------------------------------------------
                  HL-Gap            0.0075559 Eh            0.2056 eV

     #   Z          covCN         q      C6AA      α(0)
     1   6 C        2.919    -0.038    28.949     8.823
     2   6 C        2.918    -0.036    28.904     8.816
     3   6 C        2.923    -0.057    29.425     8.896
     4   6 C        2.923     0.044    27.004     8.522
     5   6 C        2.882     0.124    25.273     8.242
     6   6 C        2.918    -0.056    29.402     8.892
     7   8 O        1.708    -0.260    18.304     5.776
     8   6 C        2.883     0.124    25.273     8.242
     9   6 C        2.918    -0.056    29.402     8.892
    10   6 C        2.919    -0.038    28.949     8.823
    11   6 C        2.918    -0.036    28.904     8.816
    12   6 C        2.923    -0.058    29.432     8.897
    13   6 C        2.923     0.044    27.003     8.522
    14   7 N        2.751    -0.058    22.356     7.022
    15   6 C        2.922     0.055    26.777     8.486
    16   6 C        2.918    -0.039    28.970     8.826
    17   6 C        2.923    -0.035    28.876     8.812
    18   6 C        2.978    -0.007    28.200     8.711
    19   6 C        2.895     0.154    24.665     8.143
    20   7 N        1.930    -0.185    25.817     7.534
    21   7 N        1.943    -0.084    23.619     7.207
    22   6 C        2.917     0.054    26.797     8.489
    23   6 C        2.977    -0.000    28.030     8.684
    24   6 C        2.924    -0.033    28.815     8.803
    25   6 C        2.918    -0.040    28.984     8.828
    26   6 C        2.921     0.057    26.713     8.476
    27   7 N        2.751    -0.061    22.416     7.032
    28   6 C        2.923     0.044    27.021     8.524
    29   6 C        2.923    -0.058    29.443     8.898
    30   6 C        2.919    -0.037    28.916     8.818
    31   6 C        2.919    -0.039    28.958     8.824
    32   6 C        2.919    -0.057    29.408     8.893
    33   6 C        2.883     0.124    25.281     8.243
    34   8 O        1.708    -0.262    18.345     5.783
    35   6 C        2.883     0.124    25.278     8.243
    36   6 C        2.919    -0.057    29.406     8.892
    37   6 C        2.919    -0.039    28.958     8.825
    38   6 C        2.918    -0.037    28.911     8.817
    39   6 C        2.923    -0.058    29.450     8.899
    40   6 C        2.922     0.044    27.023     8.525
    41   6 C        2.918    -0.040    28.992     8.830
    42   6 C        2.922    -0.034    28.856     8.809
    43   6 C        2.942     0.069    26.449     8.435
    44   6 C        2.974    -0.006    28.160     8.704
    45   6 C        2.921    -0.040    29.001     8.831
    46   6 C        2.917    -0.041    29.022     8.834
    47   6 C        2.921     0.051    26.863     8.499
    48   7 N        2.751    -0.060    22.400     7.029
    49   6 C        2.923     0.044    27.010     8.523
    50   6 C        2.923    -0.058    29.445     8.899
    51   6 C        2.918    -0.037    28.913     8.818
    52   6 C        2.919    -0.039    28.961     8.825
    53   6 C        2.919    -0.057    29.410     8.893
    54   6 C        2.883     0.124    25.282     8.243
    55   8 O        1.708    -0.262    18.342     5.782
    56   6 C        2.883     0.124    25.285     8.244
    57   6 C        2.919    -0.057    29.413     8.894
    58   6 C        2.919    -0.039    28.963     8.825
    59   6 C        2.918    -0.037    28.919     8.818
    60   6 C        2.923    -0.058    29.442     8.898
    61   6 C        2.923     0.044    27.008     8.522
    62   6 C        2.917    -0.042    29.033     8.836
    63   6 C        2.924    -0.035    28.870     8.811
    64   7 N        1.850    -0.229    26.859     7.681
    65   6 C        2.923    -0.034    28.852     8.809
    66   6 C        2.917    -0.040    29.001     8.831
    67   1 H        0.926     0.047     2.362     2.403
    68   1 H        0.926     0.045     2.382     2.413
    69   1 H        0.926     0.043     2.412     2.429
    70   1 H        0.926     0.052     2.290     2.367
    71   1 H        0.926     0.052     2.290     2.367
    72   1 H        0.926     0.047     2.361     2.403
    73   1 H        0.926     0.045     2.380     2.413
    74   1 H        0.926     0.043     2.404     2.425
    75   1 H        0.926     0.043     2.410     2.428
    76   1 H        0.926     0.053     2.288     2.365
    77   1 H        0.926     0.046     2.364     2.404
    78   1 H        0.926     0.045     2.386     2.416
    79   1 H        0.926     0.043     2.412     2.429
    80   1 H        0.926     0.045     2.388     2.416
    81   1 H        0.926     0.046     2.372     2.408
    82   1 H        0.926     0.052     2.301     2.372
    83   1 H        0.926     0.052     2.301     2.372
    84   1 H        0.926     0.046     2.370     2.408
    85   1 H        0.926     0.044     2.395     2.420
    86   1 H        0.926     0.042     2.417     2.431
    87   1 H        0.926     0.044     2.401     2.423
    88   1 H        0.926     0.034     2.531     2.488
    89   1 H        0.926     0.029     2.597     2.520
    90   1 H        0.926     0.038     2.472     2.459
    91   1 H        0.926     0.043     2.412     2.429
    92   1 H        0.926     0.044     2.392     2.419
    93   1 H        0.926     0.046     2.371     2.408
    94   1 H        0.926     0.051     2.304     2.373
    95   1 H        0.926     0.051     2.303     2.373
    96   1 H        0.926     0.046     2.373     2.409
    97   1 H        0.926     0.044     2.391     2.418
    98   1 H        0.926     0.043     2.410     2.428
    99   1 H        0.926     0.040     2.454     2.450
   100   1 H        0.926     0.042     2.421     2.433
   101   1 H        0.926     0.048     2.345     2.395
   102   1 H        0.926     0.044     2.394     2.419

molecular dipole:
                 x           y           z       tot (Debye)
 q only:       -0.091       0.263      -0.285
   full:       -0.286       0.360      -0.327       1.433

 projected vibrational frequencies (cm⁻¹)
eigval :       -0.00    -0.00     0.00     0.00     0.00     0.00
eigval :        9.30    10.06    12.47    14.48    16.46    24.87
eigval :       25.33    31.36    34.81    41.09    41.57    45.72
eigval :       48.54    53.88    62.02    64.27    71.06    78.97
eigval :       89.92    97.36   108.51   115.48   116.40   122.30
eigval :      123.96   132.21   159.92   170.09   184.88   192.94
eigval :      200.14   202.99   232.43   239.37   247.31   249.88
eigval :      252.19   253.80   263.53   271.82   274.74   279.12
eigval :      288.72   321.10   340.09   344.64   350.51   364.22
eigval :      370.34   375.53   377.73   379.70   385.39   390.84
eigval :      393.19   396.31   404.96   410.58   418.37   423.94
eigval :      426.21   429.33   430.33   432.20   433.67   448.72
eigval :      450.55   453.07   463.65   480.78   483.91   500.00
eigval :      507.65   507.66   509.48   523.74   524.50   525.65
eigval :      533.78   539.18   546.55   556.70   567.95   578.17
eigval :      578.90   585.76   588.45   590.07   600.99   606.10
eigval :      607.92   612.44   628.73   633.05   658.26   661.73
eigval :      662.33   662.87   664.33   664.67   665.19   666.20
eigval :      670.58   680.62   683.42   686.72   691.35   717.61
eigval :      728.13   777.49   777.55   778.08   778.41   779.15
eigval :      779.63   789.81   798.15   799.36   806.71   809.20
eigval :      814.37   835.43   853.04   853.26   853.28   855.30
eigval :      857.58   862.13   865.35   865.87   866.46   866.69
eigval :      867.05   869.82   897.28   898.06   898.18   898.62
eigval :      899.08   899.60   906.04   908.16   909.14   910.57
eigval :      912.97   915.02   915.33   915.35   915.56   915.71
eigval :      916.34   917.12   917.42   919.08   920.14   921.93
eigval :      923.23   928.17   971.60   975.17   996.68  1004.65
eigval :     1022.30  1055.24  1061.28  1086.27  1087.45  1087.52
eigval :     1087.95  1088.94  1089.24  1107.19  1107.39  1107.61
eigval :     1115.95  1116.30  1117.96  1122.07  1132.48  1133.55
eigval :     1165.97  1166.70  1168.64  1172.55  1173.05  1173.25
eigval :     1173.59  1178.25  1181.52  1182.52  1184.79  1190.92
eigval :     1199.07  1199.51  1200.45  1209.38  1212.94  1217.16
eigval :     1232.16  1238.51  1239.02  1239.35  1242.29  1255.37
eigval :     1255.64  1256.26  1257.73  1263.98  1264.58  1269.80
eigval :     1301.24  1305.46  1306.27  1306.79  1307.13  1309.97
eigval :     1313.92  1316.68  1319.19  1329.53  1330.42  1330.96
eigval :     1341.53  1342.32  1347.31  1363.23  1401.52  1404.37
eigval :     1410.01  1414.78  1420.07  1420.71  1420.98  1425.73
eigval :     1440.07  1440.72  1440.93  1461.16  1464.21  1465.55
eigval :     1467.60  1473.63  1477.76  1481.10  1485.40  1494.53
eigval :     1511.99  1525.73  1531.36  1561.75  1561.77  1562.71
eigval :     1569.61  1571.50  1572.16  1572.94  1573.45  1578.06
eigval :     1578.89  1581.57  1583.42  1591.33  1592.47  1595.56
eigval :     3077.68  3079.42  3080.65  3080.74  3082.55  3084.27
eigval :     3088.45  3089.09  3089.31  3089.68  3089.88  3090.45
eigval :     3092.00  3094.64  3097.63  3097.81  3097.86  3097.93
eigval :     3098.01  3098.33  3098.56  3098.76  3098.92  3101.46
eigval :     3106.11  3106.38  3106.47  3106.85  3107.99  3108.50
eigval :     3109.76  3110.23  3110.35  3110.93  3113.95  3115.71

   temp. (K)  partition function   enthalpy   heat capacity  entropy
                                   cal/mol     cal/K/mol   cal/K/mol   J/K/mol
 298.15  VIB  0.607E+25            30731.877    192.947    191.655
         ROT  0.324E+09              888.752      2.981     41.922
         INT  0.196E+34            31620.629    195.928    233.577
         TR   0.241E+29             1481.254      4.968     46.086
         TOT                       33101.8830   200.8963   279.6637  1170.1127

       T/K    H(0)-H(T)+PV         H(T)/Eh          T*S/Eh         G(T)/Eh
   ------------------------------------------------------------------------
    298.15    0.527512E-01    0.810098E+00    0.132877E+00    0.677221E+00
   ------------------------------------------------------------------------

         :::::::::::::::::::::::::::::::::::::::::::::::::::::
         ::                  THERMODYNAMIC                  ::
         :::::::::::::::::::::::::::::::::::::::::::::::::::::
         :: total free energy        -169.553719594368 Eh   ::
         ::.................................................::
         :: total energy             -170.230940694642 Eh   ::
         :: zero point energy           0.757347120000 Eh   ::
         :: G(RRHO) w/o ZPVE           -0.080126019727 Eh   ::
         :: G(RRHO) contrib.            0.677221100274 Eh   ::
         :::::::::::::::::::::::::::::::::::::::::::::::::::::

           -------------------------------------------------
          | TOTAL ENERGY             -170.230940694642 Eh   |
          | TOTAL ENTHALPY           -169.420842366265 Eh   |
          | TOTAL FREE ENERGY        -169.553719594368 Eh   |
          | GRADIENT NORM               0.000061885723 Eh/α |
          | HOMO-LUMO GAP               0.205607111303 eV   |
           -------------------------------------------------

 * finished run on 2025/08/25 at 22:10:54.159
