   * xtb version 6.7.1 (edcfbbe) compiled by 'albert@albert-system' on 2024-07-22

   ID    Z sym.   atoms
    1    6 C      1-6, 8-13, 15-19, 22-26, 28-33, 35-47, 49-54, 56-63, 65, 66
    2    8 O      7, 34, 55
    3    7 N      14, 20, 21, 27, 48, 64
    4    1 H      67-102

          program call               : xtb data2507/toluene/TPXZ-as-TAZ/TPXZ-as-TAZ_toluene_S0_finalOpt.xtbopt.xyz --gfn 2 --uhf 2 --gbsa toluene --ohess vtight --parallel 40 --molden --ceasefiles --namespace data2507/toluene/TPXZ-as-TAZ/TPXZ-as-TAZ_toluene_T1_preOpt
      * Solvation model:               GBSA
        Solvent                        toluene
        Solvent mass                       9.2140E+01 g/mol
          :  Hamiltonian                  GFN2-xTB          :
 * total energy  :  -170.2180732 Eh     change       -0.2143850E-08 Eh
 * total energy  :  -170.2198524 Eh     change       -0.1779282E-02 Eh
 * total energy  :  -170.2206688 Eh     change       -0.8163551E-03 Eh
 * total energy  :  -170.2209299 Eh     change       -0.2610960E-03 Eh
 * total energy  :  -170.2213325 Eh     change       -0.4026391E-03 Eh
 * total energy  :  -170.2215170 Eh     change       -0.1844429E-03 Eh
 * total energy  :  -170.2216749 Eh     change       -0.1579157E-03 Eh
 * total energy  :  -170.2217996 Eh     change       -0.1246814E-03 Eh
 * total energy  :  -170.2218686 Eh     change       -0.6907735E-04 Eh
 * total energy  :  -170.2219517 Eh     change       -0.8303569E-04 Eh
 * total energy  :  -170.2308595 Eh     change       -0.3050121E-06 Eh
 * total energy  :  -170.2308598 Eh     change       -0.3173699E-06 Eh
 * total energy  :  -170.2308600 Eh     change       -0.2544791E-06 Eh
 * total energy  :  -170.2308602 Eh     change       -0.1717337E-06 Eh
 * total energy  :  -170.2308604 Eh     change       -0.1685153E-06 Eh
 * total energy  :  -170.2308606 Eh     change       -0.1732882E-06 Eh
 * total energy  :  -170.2308608 Eh     change       -0.1993783E-06 Eh
 * total energy  :  -170.2308609 Eh     change       -0.1542230E-06 Eh
 * total energy  :  -170.2308610 Eh     change       -0.8792847E-07 Eh
   *** GEOMETRY OPTIMIZATION CONVERGED AFTER 219 ITERATIONS ***

 final structure:
================
102
 xtb: 6.7.1 (edcfbbe)
C           10.32030071033097       -2.87480065545836       -2.19799555616864
C            8.96122855314219       -3.05148957775248       -2.01787260843802
C            8.21217575287591       -2.09794961005842       -1.34779124946504
C            8.81371714061138       -0.95167906730152       -0.83799765033188
C           10.18958651578453       -0.77094460271575       -1.04703817850328
C           10.93232438239270       -1.72739739258554       -1.71570644799676
O           10.85539325250046        0.35041660858441       -0.61620017424993
C           10.12300628973987        1.31140315418878        0.03696819082113
C           10.80178409835119        2.43851446067320        0.46409298196407
C           10.12975070179304        3.44072843012463        1.14792781234344
C            8.78008478220462        3.30125667347106        1.41165505666753
C            8.09448308690111        2.17503675765846        0.98620359407921
C            8.74800509798745        1.16995627275841        0.28021458991140
N            8.09002063937693        0.02617712818686       -0.16222544745067
C            6.70634416339119       -0.14977004714029        0.08799572102930
C            6.27829411882988       -1.12889484124222        0.98423368704325
C            4.93559733850137       -1.30021836985529        1.23163678262257
C            3.98386847590381       -0.49655875409676        0.58681168296999
C            2.58289073955416       -0.67692637671035        0.84427887364394
N            2.19498220336899       -1.60889020348218        1.78376316518282
N            0.95915421455171       -1.87111775147810        1.91177969181584
C           -0.01191500053602       -1.26848557772819        1.28057971336609
C           -1.34534725060035       -1.82629279026134        1.35191895504472
C           -1.78586696900639       -2.44748481593727        2.52678366751947
C           -3.04573183705234       -2.99940939633436        2.60228285543721
C           -3.89471946480587       -2.96103184175238        1.49693671390594
N           -5.19209851511456       -3.52004930369981        1.57419752180191
C           -5.36188311603584       -4.88885803210888        1.77624612653771
C           -4.28657612230202       -5.76875004138954        1.84389601387138
C           -4.49081627919315       -7.12393165689895        2.04816757477814
C           -5.77130472748032       -7.62749060088612        2.17597252440721
C           -6.85641275893169       -6.76894919189102        2.08155391826641
C           -6.65829934646496       -5.41531265241327        1.87720804089022
O           -7.78058584832396       -4.63069069091500        1.76734275700454
C           -7.59583982919971       -3.28801963126242        1.54406833124994
C           -8.73353777066446       -2.50973427995190        1.42693386166081
C           -8.62704084929446       -1.14129880169125        1.22841970739130
C           -7.37628361512945       -0.55756468650900        1.16461221948147
C           -6.23351186923981       -1.33301431324335        1.27861777228311
C           -6.32048548700901       -2.71043492894985        1.45264301092642
C           -3.45424302384743       -2.37350966151218        0.31279785683467
C           -2.19913886003847       -1.81051364964399        0.24091313781555
C            0.38001956134772       -0.11579193991231        0.44582618732261
C           -0.54386372376456        0.85198436535573       -0.07308601396606
C           -1.76833664534006        1.13014479212386        0.56153489728532
C           -2.62616110845310        2.07556580136664        0.05011533548521
C           -2.30163691053609        2.76874704899593       -1.11575515392911
N           -3.20438375490406        3.71501924737303       -1.65803042743925
C           -4.44193144076445        3.30785753329411       -2.15044217177941
C           -4.83807038784128        1.97402267139704       -2.15652933009297
C           -6.07874000529225        1.60422214345460       -2.65006993558252
C           -6.94396029397052        2.55680830103694       -3.15377363984024
C           -6.55536248050869        3.88795755114804       -3.18067908874595
C           -5.31661890844179        4.26238602842698       -2.69195587896897
O           -4.98904369527178        5.59375655673884       -2.77758826623436
C           -3.76947691604173        5.97973533531317       -2.27673447788567
C           -3.46042033557600        7.32628434488068       -2.34312224799629
C           -2.25862064922809        7.79289796573837       -1.83161003128751
C           -1.37910292395077        6.90601613836275       -1.24009257328904
C           -1.68245260661763        5.55585631487197       -1.17274314446457
C           -2.87039712098736        5.06600951877066       -1.70607827370411
C           -1.07776656447784        2.52373727762623       -1.74084302074094
C           -0.21119814558177        1.59109272967579       -1.22301742029086
N            1.67489206222574        0.04248559357788        0.22555731030195
C            4.42563258425879        0.48593627266759       -0.31247469024984
C            5.76815718625963        0.65634497132797       -0.55783401549908
H           10.90715733050782       -3.61654575693657       -2.71625119024755
H            8.47124350971374       -3.93351638062880       -2.40059875126830
H            7.15049119048399       -2.23828577041287       -1.21958816401088
H           11.98804757859320       -1.55276038737416       -1.85145562010635
H           11.85739064520523        2.51030490033736        0.25433398743635
H           10.66614376206039        4.31739840542787        1.47496565698493
H            8.24897267185071        4.06784279312160        1.95457766114012
H            7.04419658532349        2.06838381578460        1.20668091362894
H            7.01088092885525       -1.74655358498177        1.48313019600004
H            4.59186628203506       -2.05011236748960        1.92716359205732
H           -1.12592275878966       -2.47445306001793        3.38061298966845
H           -3.38536529721754       -3.45932717109354        3.51870591226565
H           -3.28337907726777       -5.38930887472923        1.73116682817088
H           -3.63788269681838       -7.78279093352748        2.10208525758502
H           -5.93465810766878       -8.68100532476531        2.33899238576644
H           -7.86951129019979       -7.13096311126026        2.15960176522740
H           -9.69387268106185       -2.99565534423528        1.49890019989178
H           -9.51904858494259       -0.54223878006731        1.13602176457107
H           -7.27891724796261        0.50830117714288        1.02688787945280
H           -5.26317003411257       -0.86516716621254        1.24019222028065
H           -4.10169152704169       -2.37064829283019       -0.55181590898699
H           -1.85852647830327       -1.37852592682905       -0.68800919632991
H           -2.01984505933959        0.62626308927737        1.48214790114147
H           -3.55663436260976        2.29436357365907        0.55385152120990
H           -4.16549664321331        1.22184881049427       -1.77693078481390
H           -6.36225972634692        0.56307188660578       -2.63787836213207
H           -7.91234915303354        2.27366217166152       -3.53478552557686
H           -7.19839686853680        4.65440797671016       -3.58382434860441
H           -4.17718821348032        7.99345585211390       -2.79551847199371
H           -2.02383792757889        8.84391702578146       -1.88993575844036
H           -0.44855601614459        7.25838774061398       -0.82239601900419
H           -0.99515413441039        4.87346394227905       -0.69828672332193
H           -0.82182732419754        3.06758509893579       -2.63866537815685
H            0.73234470576003        1.39335230328827       -1.70803508422791
H            3.69181997846049        1.10302862531554       -0.80739324671052
H            6.10703887249967        1.41077640640197       -1.25286824034335

          :  Hamiltonian                  GFN2-xTB          :
         :: gradient norm              0.000056685658 Eh/a0 ::
         :: HOMO-LUMO gap              0.204850588271 eV    ::
         :: SCC energy              -173.142687791611 Eh    ::
         :: -> dispersion             -0.147817725512 Eh    ::
         :: -> Gsolv                  -0.068760288262 Eh    ::
         :: repulsion energy           2.911826798393 Eh    ::

    * Orbital Energies and Occupations

         #    Occupation            Energy/Eh            Energy/eV
      -------------------------------------------------------------
         1        2.0000           -0.7363273             -20.0365
       ...           ...                  ...                  ...
       145        2.0000           -0.4145104             -11.2794
       146        2.0000           -0.4130401             -11.2394
       147        2.0000           -0.4126286             -11.2282
       148        2.0000           -0.4079304             -11.1004
       149        2.0000           -0.3968650             -10.7992
       150        2.0000           -0.3955548             -10.7636
       151        2.0000           -0.3950696             -10.7504
       152        2.0000           -0.3874605             -10.5433
       153        1.9844           -0.3494245              -9.5083
       154        1.9132           -0.3477241              -9.4621
       155        1.8607           -0.3472181              -9.4483
       156        1.2417           -0.3444018              -9.3716
       157        0.9813           -0.2911157              -7.9217 (HOMO)
       158        0.0187           -0.2835875              -7.7168 (LUMO)
       159                         -0.2495829              -6.7915
       160                         -0.2439984              -6.6395
       161                         -0.2438910              -6.6366
       162                         -0.2438697              -6.6360
       163                         -0.2378785              -6.4730
       164                         -0.2347231              -6.3871
       165                         -0.2346628              -6.3855
       166                         -0.2339688              -6.3666
       167                         -0.2306225              -6.2756
       168                         -0.2286024              -6.2206
       ...                                ...                  ...
       300                          0.6765968              18.4111
      -------------------------------------------------------------
                  HL-Gap            0.0075282 Eh            0.2049 eV

     #   Z          covCN         q      C6AA      α(0)
     1   6 C        2.919    -0.038    28.950     8.823
     2   6 C        2.918    -0.036    28.904     8.816
     3   6 C        2.923    -0.057    29.427     8.896
     4   6 C        2.923     0.044    27.005     8.522
     5   6 C        2.882     0.124    25.273     8.242
     6   6 C        2.918    -0.056    29.403     8.892
     7   8 O        1.708    -0.260    18.305     5.777
     8   6 C        2.882     0.124    25.273     8.242
     9   6 C        2.918    -0.056    29.403     8.892
    10   6 C        2.919    -0.038    28.950     8.823
    11   6 C        2.918    -0.036    28.904     8.816
    12   6 C        2.923    -0.058    29.432     8.897
    13   6 C        2.923     0.044    27.004     8.522
    14   7 N        2.751    -0.058    22.355     7.022
    15   6 C        2.922     0.055    26.774     8.485
    16   6 C        2.918    -0.039    28.971     8.826
    17   6 C        2.923    -0.035    28.874     8.812
    18   6 C        2.978    -0.007    28.200     8.711
    19   6 C        2.894     0.154    24.657     8.141
    20   7 N        1.930    -0.186    25.830     7.536
    21   7 N        1.943    -0.085    23.622     7.207
    22   6 C        2.917     0.054    26.786     8.487
    23   6 C        2.977    -0.000    28.027     8.684
    24   6 C        2.924    -0.033    28.811     8.802
    25   6 C        2.918    -0.040    28.984     8.828
    26   6 C        2.921     0.058    26.708     8.475
    27   7 N        2.751    -0.061    22.416     7.032
    28   6 C        2.922     0.044    27.022     8.525
    29   6 C        2.923    -0.058    29.445     8.899
    30   6 C        2.919    -0.037    28.916     8.818
    31   6 C        2.919    -0.039    28.958     8.825
    32   6 C        2.919    -0.057    29.408     8.893
    33   6 C        2.883     0.124    25.281     8.243
    34   8 O        1.708    -0.262    18.346     5.783
    35   6 C        2.883     0.124    25.278     8.243
    36   6 C        2.919    -0.057    29.406     8.892
    37   6 C        2.919    -0.039    28.958     8.825
    38   6 C        2.918    -0.037    28.912     8.817
    39   6 C        2.923    -0.058    29.450     8.899
    40   6 C        2.922     0.044    27.024     8.525
    41   6 C        2.919    -0.040    28.991     8.830
    42   6 C        2.922    -0.034    28.850     8.808
    43   6 C        2.942     0.069    26.457     8.436
    44   6 C        2.975    -0.006    28.160     8.705
    45   6 C        2.921    -0.040    29.003     8.831
    46   6 C        2.917    -0.041    29.021     8.834
    47   6 C        2.921     0.051    26.864     8.500
    48   7 N        2.751    -0.060    22.404     7.030
    49   6 C        2.923     0.044    27.009     8.523
    50   6 C        2.923    -0.058    29.446     8.899
    51   6 C        2.918    -0.037    28.913     8.818
    52   6 C        2.919    -0.039    28.962     8.825
    53   6 C        2.919    -0.057    29.411     8.893
    54   6 C        2.883     0.124    25.283     8.243
    55   8 O        1.708    -0.262    18.344     5.783
    56   6 C        2.883     0.124    25.285     8.244
    57   6 C        2.919    -0.057    29.413     8.894
    58   6 C        2.919    -0.039    28.964     8.825
    59   6 C        2.918    -0.037    28.919     8.819
    60   6 C        2.923    -0.058    29.441     8.898
    61   6 C        2.923     0.044    27.007     8.522
    62   6 C        2.917    -0.042    29.031     8.836
    63   6 C        2.924    -0.035    28.871     8.812
    64   7 N        1.850    -0.229    26.855     7.681
    65   6 C        2.923    -0.034    28.850     8.808
    66   6 C        2.917    -0.040    29.001     8.831
    67   1 H        0.926     0.047     2.362     2.403
    68   1 H        0.926     0.045     2.382     2.413
    69   1 H        0.926     0.043     2.411     2.428
    70   1 H        0.926     0.052     2.290     2.367
    71   1 H        0.926     0.052     2.291     2.367
    72   1 H        0.926     0.047     2.362     2.403
    73   1 H        0.926     0.045     2.381     2.413
    74   1 H        0.926     0.043     2.405     2.425
    75   1 H        0.926     0.043     2.406     2.425
    76   1 H        0.926     0.053     2.287     2.365
    77   1 H        0.926     0.046     2.365     2.405
    78   1 H        0.926     0.045     2.382     2.414
    79   1 H        0.926     0.043     2.410     2.428
    80   1 H        0.926     0.045     2.388     2.416
    81   1 H        0.926     0.046     2.372     2.408
    82   1 H        0.926     0.052     2.301     2.372
    83   1 H        0.926     0.052     2.301     2.372
    84   1 H        0.926     0.046     2.370     2.408
    85   1 H        0.926     0.044     2.396     2.420
    86   1 H        0.926     0.042     2.417     2.431
    87   1 H        0.926     0.044     2.399     2.422
    88   1 H        0.926     0.034     2.529     2.487
    89   1 H        0.926     0.029     2.598     2.521
    90   1 H        0.926     0.038     2.473     2.459
    91   1 H        0.926     0.043     2.414     2.430
    92   1 H        0.926     0.044     2.393     2.419
    93   1 H        0.926     0.046     2.371     2.408
    94   1 H        0.926     0.051     2.304     2.374
    95   1 H        0.926     0.051     2.304     2.374
    96   1 H        0.926     0.046     2.374     2.409
    97   1 H        0.926     0.044     2.391     2.418
    98   1 H        0.926     0.043     2.412     2.429
    99   1 H        0.926     0.040     2.455     2.450
   100   1 H        0.926     0.042     2.421     2.433
   101   1 H        0.926     0.048     2.344     2.394
   102   1 H        0.926     0.044     2.395     2.420

molecular dipole:
                 x           y           z       tot (Debye)
 q only:       -0.105       0.165      -0.318
   full:       -0.307       0.237      -0.381       1.382

 projected vibrational frequencies (cm⁻¹)
eigval :       -0.00    -0.00    -0.00    -0.00     0.00     0.00
eigval :        5.54     6.69    12.62    13.91    15.68    20.01
eigval :       23.94    27.27    35.52    40.87    42.28    45.65
eigval :       52.59    54.78    61.83    63.56    72.88    79.63
eigval :       89.47    96.61   107.92   111.94   114.52   120.01
eigval :      123.42   131.65   159.20   170.22   184.74   192.19
eigval :      199.50   202.32   231.82   239.30   247.43   249.61
eigval :      252.17   254.08   263.45   272.00   274.90   279.05
eigval :      288.37   320.96   340.04   344.91   350.62   363.68
eigval :      370.05   375.53   378.65   380.47   385.36   390.48
eigval :      394.12   396.78   404.51   410.11   418.67   424.25
eigval :      425.69   429.06   430.22   431.08   433.19   448.18
eigval :      450.06   452.60   463.65   481.35   483.70   500.68
eigval :      506.86   507.14   508.40   523.04   523.89   524.73
eigval :      533.48   539.30   546.84   557.06   567.94   578.49
eigval :      578.77   585.67   588.24   590.73   601.01   606.29
eigval :      607.95   612.40   628.66   632.94   658.45   661.56
eigval :      662.07   662.72   663.54   664.47   664.72   666.12
eigval :      670.16   680.51   684.52   686.80   691.58   717.39
eigval :      727.43   774.29   776.46   776.62   777.66   778.24
eigval :      782.10   789.83   798.11   799.32   807.48   811.50
eigval :      813.74   835.69   852.98   853.01   853.33   856.22
eigval :      858.98   861.20   862.91   864.38   864.67   865.08
eigval :      867.28   869.03   895.43   895.96   897.40   897.62
eigval :      899.27   900.38   906.04   909.27   909.44   910.49
eigval :      912.08   913.02   914.10   914.64   915.23   915.99
eigval :      916.81   917.26   918.44   920.70   921.16   921.60
eigval :      924.67   929.42   964.44   975.62   997.18  1004.08
eigval :     1021.99  1055.29  1060.96  1085.88  1087.10  1087.13
eigval :     1087.73  1088.92  1089.01  1106.86  1107.07  1107.32
eigval :     1115.91  1116.19  1117.96  1122.28  1130.83  1132.85
eigval :     1165.44  1166.58  1168.51  1171.59  1171.87  1172.71
eigval :     1172.99  1178.67  1178.97  1181.85  1184.69  1190.20
eigval :     1199.06  1199.10  1200.04  1208.88  1212.70  1216.09
eigval :     1232.47  1238.14  1239.13  1239.35  1242.11  1255.04
eigval :     1255.63  1255.80  1257.20  1263.16  1264.09  1269.87
eigval :     1301.02  1305.33  1306.06  1306.71  1306.94  1310.00
eigval :     1313.97  1316.83  1319.11  1329.05  1330.43  1331.10
eigval :     1341.35  1342.12  1347.22  1362.30  1401.57  1404.26
eigval :     1409.86  1414.49  1419.79  1420.41  1420.68  1426.23
eigval :     1439.63  1440.04  1440.65  1461.24  1464.15  1465.54
eigval :     1467.50  1473.19  1479.01  1481.11  1485.37  1494.52
eigval :     1512.16  1525.86  1531.82  1561.49  1561.52  1562.72
eigval :     1569.59  1571.35  1572.15  1572.73  1573.04  1577.83
eigval :     1578.85  1581.42  1583.37  1591.21  1592.26  1595.31
eigval :     3077.12  3079.72  3080.56  3081.02  3082.59  3082.84
eigval :     3088.54  3089.26  3089.99  3090.05  3090.22  3090.68
eigval :     3092.16  3095.17  3096.22  3097.27  3097.88  3098.07
eigval :     3098.16  3098.48  3098.75  3099.02  3099.56  3101.56
eigval :     3105.82  3106.26  3106.28  3106.65  3108.26  3108.78
eigval :     3109.59  3110.00  3110.40  3110.82  3114.09  3115.61

   temp. (K)  partition function   enthalpy   heat capacity  entropy
                                   cal/mol     cal/K/mol   cal/K/mol   J/K/mol
 298.15  VIB  0.229E+26            30769.952    193.022    193.063
         ROT  0.323E+09              888.752      2.981     41.920
         INT  0.740E+34            31658.705    196.003    234.983
         TR   0.241E+29             1481.254      4.968     46.086
         TOT                       33139.9586   200.9712   281.0696  1175.9954

       T/K    H(0)-H(T)+PV         H(T)/Eh          T*S/Eh         G(T)/Eh
   ------------------------------------------------------------------------
    298.15    0.528119E-01    0.809992E+00    0.133545E+00    0.676447E+00
   ------------------------------------------------------------------------

         :::::::::::::::::::::::::::::::::::::::::::::::::::::
         ::                  THERMODYNAMIC                  ::
         :::::::::::::::::::::::::::::::::::::::::::::::::::::
         :: total free energy        -169.554414369677 Eh   ::
         ::.................................................::
         :: total energy             -170.230860995030 Eh   ::
         :: zero point energy           0.757179997228 Eh   ::
         :: G(RRHO) w/o ZPVE           -0.080733371875 Eh   ::
         :: G(RRHO) contrib.            0.676446625353 Eh   ::
         :::::::::::::::::::::::::::::::::::::::::::::::::::::

           -------------------------------------------------
          | TOTAL ENERGY             -170.230860995030 Eh   |
          | TOTAL ENTHALPY           -169.420869112083 Eh   |
          | TOTAL FREE ENERGY        -169.554414369677 Eh   |
          | GRADIENT NORM               0.000055836981 Eh/α |
          | HOMO-LUMO GAP               0.204853474616 eV   |
           -------------------------------------------------

 * finished run on 2025/08/25 at 22:00:15.763
