   * xtb version 6.7.1 (edcfbbe) compiled by 'albert@albert-system' on 2024-07-22

   ID    Z sym.   atoms
    1    6 C      1-6, 8-13, 15-19, 22-26, 28-33, 35-47, 49-54, 56-63, 65, 66
    2    8 O      7, 34, 55
    3    7 N      14, 20, 21, 27, 48, 64
    4    1 H      67-102

          program call               : xtb data2507/toluene/TPXZ-as-TAZ/TPXZ-as-TAZ_toluene_S0_crest.xyz --gfn 2 --gbsa toluene --ohess vtight --parallel 40 --molden --ceasefiles --namespace data2507/toluene/TPXZ-as-TAZ/TPXZ-as-TAZ_toluene_S0_finalOpt
      * Solvation model:               GBSA
        Solvent                        toluene
        Solvent mass                       9.2140E+01 g/mol
          :  Hamiltonian                  GFN2-xTB          :
 * total energy  :  -170.2776065 Eh     change       -0.3780229E-08 Eh
 * total energy  :  -170.2776868 Eh     change       -0.8028312E-04 Eh
 * total energy  :  -170.2777527 Eh     change       -0.6591178E-04 Eh
 * total energy  :  -170.2777942 Eh     change       -0.4146721E-04 Eh
 * total energy  :  -170.2778334 Eh     change       -0.3918621E-04 Eh
 * total energy  :  -170.2778843 Eh     change       -0.5093564E-04 Eh
 * total energy  :  -170.2779094 Eh     change       -0.2505645E-04 Eh
 * total energy  :  -170.2779291 Eh     change       -0.1975903E-04 Eh
 * total energy  :  -170.2779582 Eh     change       -0.2909369E-04 Eh
 * total energy  :  -170.2779801 Eh     change       -0.2188639E-04 Eh
 * total energy  :  -170.2781917 Eh     change       -0.1895327E-05 Eh
 * total energy  :  -170.2781929 Eh     change       -0.1185034E-05 Eh
 * total energy  :  -170.2781940 Eh     change       -0.1138966E-05 Eh
 * total energy  :  -170.2781953 Eh     change       -0.1331765E-05 Eh
 * total energy  :  -170.2781968 Eh     change       -0.1435096E-05 Eh
 * total energy  :  -170.2781979 Eh     change       -0.1161465E-05 Eh
 * total energy  :  -170.2781987 Eh     change       -0.7865814E-06 Eh
 * total energy  :  -170.2781993 Eh     change       -0.5746938E-06 Eh
 * total energy  :  -170.2781993 Eh     change       -0.1007555E-07 Eh
   *** GEOMETRY OPTIMIZATION CONVERGED AFTER 44 ITERATIONS ***

 final structure:
================
102
 xtb: 6.7.1 (edcfbbe)
C           10.92149206788497       -3.02712628214134       -1.81611471884343
C            9.57421104566090       -3.24759429333478       -1.61105274759546
C            8.77555190206250       -2.25511264638047       -1.06324633673843
C            9.31361992053776       -1.02655502881411       -0.69824125528409
C           10.67423911225242       -0.80073101098193       -0.94657703911509
C           11.46757588621014       -1.79415205936842       -1.49088938183625
O           11.28279999770939        0.40452379560870       -0.68598407915674
C           10.50504328982902        1.40206722134648       -0.14676153243617
C           11.13330841298491        2.60368461153447        0.12536958756023
C           10.42688980664716        3.64819860338681        0.70341704359433
C            9.09586005203717        3.47142021784596        1.02418257020103
C            8.46152533077331        2.26896114638233        0.75105869506564
C            9.14480096633629        1.22433422643282        0.13948409192003
N            8.53663800325302       -0.00268506163512       -0.14643204652745
C            7.16924724360062       -0.20447059737338        0.12622068114397
C            6.77012800191286       -1.18525107818118        1.03465636734854
C            5.43214646461530       -1.37963328245931        1.30325311680847
C            4.46574664723814       -0.59357476508639        0.67206137051840
C            3.05202235151053       -0.79482300874775        0.95697482472987
N            2.70718024375304       -1.70590409267960        1.86528542485061
N            1.45934590121599       -2.05208338300262        1.97137348287102
C            0.52990124924337       -1.43623076509123        1.26953046741101
C           -0.87132353504367       -1.86609733497788        1.24288866168887
C           -1.66163518594970       -1.89037334732191        2.38700636648586
C           -3.03221152801127       -2.04249403159739        2.27978027860141
C           -3.62691963021511       -2.19304050483835        1.03052074119095
N           -5.03418852030980       -2.19906450282062        0.89963224666496
C           -5.68511958860897       -3.27618928779560        0.29343405893031
C           -5.04089550176677       -4.48422831861754        0.05591794364655
C           -5.71316494514054       -5.54318609079574       -0.53573273114496
C           -7.04125444250398       -5.41493751378689       -0.89025302826462
C           -7.70667295825954       -4.22471454755560       -0.63231047780557
C           -7.04145199882464       -3.16788755277932       -0.03885143105012
O           -7.77447905838600       -2.03228062452761        0.21640571187469
C           -7.11101567861686       -0.96559876234437        0.77244700042103
C           -7.84711131606960        0.18584556772457        0.98065132409989
C           -7.24660966054345        1.31743644418702        1.51184027595283
C           -5.90227031737979        1.28777332329957        1.81997336003259
C           -5.16151293172069        0.13283627845660        1.61825680297072
C           -5.75173770916214       -1.01575221066684        1.10772254438122
C           -2.82280982044793       -2.29080528621901       -0.10216395431480
C           -1.46097536749820       -2.11266992764406        0.00305589448414
C            0.89017673341603       -0.25953868790375        0.54656702387663
C           -0.19468622219198        0.63118862138572        0.11206366194439
C           -1.05258420443736        1.14518510555208        1.08391841549999
C           -2.21498787589524        1.78894772649942        0.72079370087064
C           -2.56006029160124        1.89787997836323       -0.62404060767943
N           -3.82761009391088        2.40566781049191       -0.98710650922684
C           -4.80055427306791        1.53925424480946       -1.49832484469855
C           -4.51819053373557        0.22464513064501       -1.84464124233722
C           -5.50297158129336       -0.60631825047680       -2.35747879161825
C           -6.78935519597635       -0.13912144230906       -2.53086080829666
C           -7.09372280509972        1.16463180902389       -2.16907261778922
C           -6.11655028581999        1.99427035981309       -1.65148929878151
O           -6.50688915017344        3.26128629135442       -1.29161242430929
C           -5.55061589308514        4.08555108546333       -0.74569514331445
C           -5.95499603870519        5.35205936013397       -0.36591501361528
C           -5.03891338758504        6.25081667645020        0.16224320538152
C           -3.71619489865143        5.87743515543699        0.29247341059439
C           -3.30712253240736        4.60647191782650       -0.08258440613517
C           -4.21780972762112        3.68587394269046       -0.58642468922894
C           -1.66468014385963        1.46369258683217       -1.59666031149430
C           -0.48312215743062        0.84375740093650       -1.23103963140017
N            2.15974982699981       -0.00195759857715        0.34246388074760
C            4.86758446205797        0.38623151209603       -0.23783918519140
C            6.20532548577887        0.57834039351994       -0.50906131204196
H           11.54886339256011       -3.79724483044747       -2.23651060655027
H            9.12873764367390       -4.19338574453888       -1.87875873349474
H            7.72144651527698       -2.43679549242710       -0.92582228966798
H           12.51142753045968       -1.57883247410833       -1.65717433704210
H           12.17989977310834        2.69854645464172       -0.11821049314159
H           10.92453500405600        4.58281459286478        0.90872228374722
H            8.53704019807775        4.26601123026537        1.49434347324835
H            7.42640417666226        2.14037170027615        1.02485028899307
H            7.51861031001725       -1.78445626268331        1.53147282915797
H            5.11317806352600       -2.13004167724270        2.00941968099687
H           -1.20308262882210       -1.74805982732967        3.35390731856983
H           -3.65208399644305       -2.01746771488926        3.16353428157409
H           -4.00697223953431       -4.59809869850277        0.34261424050578
H           -5.18750091636066       -6.46900277836206       -0.71244555296376
H           -7.56875515151394       -6.23279865737382       -1.35527765973447
H           -8.74861485741860       -4.09791763571010       -0.88118081317954
H           -8.89141707615899        0.17853055232917        0.71137666164267
H           -7.82889301745626        2.21168317395220        1.66889063410009
H           -5.41909213630760        2.16641893185181        2.22119117469526
H           -4.10923795917483        0.12459656369887        1.85179160430622
H           -3.27689227559758       -2.47065137727502       -1.06425856706303
H           -0.84585282591598       -2.14419856590206       -0.88465782689593
H           -0.81088375902730        1.02172658976534        2.12963817762738
H           -2.88011062365347        2.17997395206549        1.47492185191332
H           -3.51933203133133       -0.15438735905095       -1.70158619671089
H           -5.25601450382200       -1.62408835476052       -2.62129776031043
H           -7.55919759855265       -0.77910105554586       -2.93223959512713
H           -8.09265824519639        1.55749644855269       -2.27343363621238
H           -6.99222513524649        5.61798107201672       -0.49618579931076
H           -5.36464048148501        7.23608381332813        0.45641789137112
H           -2.98874276708063        6.57161390478200        0.68435503443188
H           -2.26894621655744        4.32777456666468        0.01055018686436
H           -1.90984959697553        1.59145794416806       -2.64035429111089
H            0.19896442477224        0.48571370021154       -1.98770414997594
H            4.11591440266036        0.98601489848536       -0.72713546177492
H            6.51544959398863        1.33067394965927       -1.21905873413781

          :  Hamiltonian                  GFN2-xTB          :
         :: gradient norm              0.000072942231 Eh/a0 ::
         :: HOMO-LUMO gap              1.256107269311 eV    ::
         :: SCC energy              -173.195285402491 Eh    ::
         :: -> dispersion             -0.165269997581 Eh    ::
         :: -> Gsolv                  -0.061644561618 Eh    ::
         :: repulsion energy           2.917086105929 Eh    ::

    * Orbital Energies and Occupations

         #    Occupation            Energy/Eh            Energy/eV
      -------------------------------------------------------------
         1        2.0000           -0.7316533             -19.9093
       ...           ...                  ...                  ...
       144        2.0000           -0.4179065             -11.3718
       145        2.0000           -0.4177620             -11.3679
       146        2.0000           -0.4168743             -11.3437
       147        2.0000           -0.4145714             -11.2811
       148        2.0000           -0.4131958             -11.2436
       149        2.0000           -0.4090482             -11.1308
       150        2.0000           -0.3945724             -10.7369
       151        2.0000           -0.3924667             -10.6796
       152        2.0000           -0.3921702             -10.6715
       153        2.0000           -0.3603282              -9.8050
       154        2.0000           -0.3473041              -9.4506
       155        2.0000           -0.3464003              -9.4260
       156        2.0000           -0.3462411              -9.4217 (HOMO)
       157                         -0.3000800              -8.1656 (LUMO)
       158                         -0.2948410              -8.0230
       159                         -0.2562142              -6.9719
       160                         -0.2509067              -6.8275
       161                         -0.2472086              -6.7269
       162                         -0.2448016              -6.6614
       163                         -0.2425784              -6.6009
       164                         -0.2417830              -6.5792
       165                         -0.2402302              -6.5370
       166                         -0.2397712              -6.5245
       167                         -0.2338548              -6.3635
       ...                                ...                  ...
       300                          0.6711278              18.2623
      -------------------------------------------------------------
                  HL-Gap            0.0461611 Eh            1.2561 eV

     #   Z          covCN         q      C6AA      α(0)
     1   6 C        2.919    -0.040    29.000     8.831
     2   6 C        2.919    -0.039    28.962     8.825
     3   6 C        2.924    -0.060    29.497     8.907
     4   6 C        2.921     0.041    27.070     8.532
     5   6 C        2.883     0.123    25.299     8.246
     6   6 C        2.919    -0.057    29.428     8.896
     7   8 O        1.708    -0.270    18.471     5.803
     8   6 C        2.883     0.123    25.298     8.246
     9   6 C        2.919    -0.057    29.429     8.896
    10   6 C        2.919    -0.040    29.000     8.831
    11   6 C        2.919    -0.039    28.962     8.825
    12   6 C        2.924    -0.060    29.498     8.907
    13   6 C        2.921     0.041    27.070     8.532
    14   7 N        2.750    -0.068    22.556     7.054
    15   6 C        2.920     0.071    26.414     8.428
    16   6 C        2.920    -0.038    28.954     8.824
    17   6 C        2.922    -0.027    28.687     8.783
    18   6 C        2.982    -0.008    28.203     8.711
    19   6 C        2.926     0.177    24.206     8.068
    20   7 N        1.936    -0.177    25.635     7.508
    21   7 N        1.941    -0.127    24.526     7.344
    22   6 C        2.931     0.076    26.308     8.412
    23   6 C        2.978    -0.002    28.078     8.692
    24   6 C        2.921    -0.028    28.698     8.785
    25   6 C        2.921    -0.039    28.966     8.826
    26   6 C        2.922     0.067    26.507     8.443
    27   7 N        2.750    -0.076    22.708     7.077
    28   6 C        2.922     0.043    27.045     8.528
    29   6 C        2.924    -0.060    29.489     8.905
    30   6 C        2.919    -0.039    28.973     8.827
    31   6 C        2.919    -0.041    29.014     8.833
    32   6 C        2.919    -0.058    29.429     8.896
    33   6 C        2.883     0.123    25.300     8.246
    34   8 O        1.708    -0.269    18.452     5.800
    35   6 C        2.884     0.124    25.287     8.244
    36   6 C        2.920    -0.058    29.438     8.897
    37   6 C        2.919    -0.040    28.996     8.830
    38   6 C        2.919    -0.039    28.979     8.828
    39   6 C        2.924    -0.064    29.596     8.922
    40   6 C        2.923     0.042    27.053     8.530
    41   6 C        2.921    -0.040    28.985     8.829
    42   6 C        2.927    -0.033    28.814     8.803
    43   6 C        2.975     0.111    25.556     8.292
    44   6 C        2.979    -0.004    28.114     8.698
    45   6 C        2.927    -0.031    28.773     8.797
    46   6 C        2.921    -0.039    28.963     8.825
    47   6 C        2.922     0.068    26.484     8.439
    48   7 N        2.751    -0.075    22.704     7.077
    49   6 C        2.923     0.042    27.057     8.530
    50   6 C        2.924    -0.064    29.593     8.921
    51   6 C        2.919    -0.039    28.974     8.827
    52   6 C        2.919    -0.040    28.990     8.829
    53   6 C        2.920    -0.058    29.434     8.897
    54   6 C        2.884     0.124    25.285     8.244
    55   8 O        1.708    -0.268    18.446     5.799
    56   6 C        2.883     0.123    25.297     8.246
    57   6 C        2.919    -0.057    29.426     8.896
    58   6 C        2.919    -0.041    29.010     8.832
    59   6 C        2.919    -0.039    28.972     8.827
    60   6 C        2.924    -0.060    29.489     8.905
    61   6 C        2.923     0.042    27.050     8.529
    62   6 C        2.921    -0.039    28.970     8.826
    63   6 C        2.921    -0.027    28.669     8.781
    64   7 N        1.845    -0.257    27.533     7.776
    65   6 C        2.922    -0.027    28.666     8.780
    66   6 C        2.920    -0.039    28.981     8.828
    67   1 H        0.926     0.043     2.405     2.425
    68   1 H        0.926     0.042     2.417     2.431
    69   1 H        0.926     0.040     2.445     2.445
    70   1 H        0.926     0.049     2.331     2.388
    71   1 H        0.926     0.049     2.331     2.387
    72   1 H        0.926     0.043     2.404     2.425
    73   1 H        0.926     0.042     2.417     2.431
    74   1 H        0.926     0.040     2.443     2.444
    75   1 H        0.926     0.054     2.272     2.357
    76   1 H        0.926     0.063     2.160     2.298
    77   1 H        0.926     0.050     2.319     2.382
    78   1 H        0.926     0.055     2.257     2.349
    79   1 H        0.926     0.039     2.461     2.453
    80   1 H        0.926     0.042     2.416     2.431
    81   1 H        0.926     0.043     2.404     2.424
    82   1 H        0.926     0.049     2.335     2.389
    83   1 H        0.926     0.049     2.332     2.388
    84   1 H        0.926     0.041     2.436     2.441
    85   1 H        0.926     0.033     2.537     2.491
    86   1 H        0.926     0.037     2.490     2.468
    87   1 H        0.926     0.051     2.304     2.374
    88   1 H        0.926     0.036     2.509     2.477
    89   1 H        0.926     0.037     2.495     2.470
    90   1 H        0.926     0.053     2.288     2.365
    91   1 H        0.926     0.037     2.488     2.467
    92   1 H        0.926     0.034     2.535     2.490
    93   1 H        0.926     0.041     2.434     2.439
    94   1 H        0.926     0.049     2.328     2.386
    95   1 H        0.926     0.049     2.331     2.388
    96   1 H        0.926     0.044     2.400     2.423
    97   1 H        0.926     0.043     2.413     2.429
    98   1 H        0.926     0.039     2.465     2.455
    99   1 H        0.926     0.056     2.243     2.342
   100   1 H        0.926     0.049     2.335     2.390
   101   1 H        0.926     0.061     2.193     2.316
   102   1 H        0.926     0.053     2.281     2.362

molecular dipole:
                 x           y           z       tot (Debye)
 q only:        0.527       0.137      -0.189
   full:        0.262       0.266      -0.355       1.310

 projected vibrational frequencies (cm⁻¹)
eigval :       -0.00    -0.00    -0.00     0.00     0.00     0.00
eigval :        7.65     9.71    10.42    15.05    21.82    22.74
eigval :       29.11    35.28    37.09    40.40    47.06    50.68
eigval :       56.47    60.31    63.84    65.08    80.10    86.95
eigval :       89.16    97.46   105.39   107.90   116.25   119.66
eigval :      124.88   130.89   151.75   181.88   187.74   189.95
eigval :      195.69   203.24   228.00   239.53   241.71   251.62
eigval :      253.49   255.19   261.63   272.93   275.48   277.45
eigval :      285.90   308.25   339.32   352.08   359.56   366.91
eigval :      370.11   375.34   375.79   383.44   389.43   391.13
eigval :      398.70   403.27   405.32   416.58   421.76   427.00
eigval :      429.80   430.70   431.28   432.07   444.99   449.17
eigval :      450.09   454.05   475.65   482.59   493.81   504.45
eigval :      509.20   509.62   510.38   522.37   522.62   523.72
eigval :      530.79   546.78   554.66   574.94   577.27   580.51
eigval :      586.55   588.66   595.22   599.39   605.95   609.29
eigval :      612.57   632.11   639.85   652.42   658.39   658.79
eigval :      659.66   660.08   661.23   661.69   665.78   675.11
eigval :      690.78   692.36   697.60   705.58   725.16   737.79
eigval :      771.07   775.70   777.41   778.48   779.03   780.11
eigval :      782.10   794.48   800.33   802.19   817.65   818.92
eigval :      827.57   853.46   853.48   853.68   854.78   857.98
eigval :      860.49   862.59   865.47   866.97   867.31   873.40
eigval :      874.03   876.04   893.75   896.53   896.81   897.96
eigval :      898.05   899.19   911.26   912.56   913.23   913.61
eigval :      913.88   914.52   915.25   915.52   915.72   916.27
eigval :      917.85   922.15   923.68   927.84   928.40   932.28
eigval :      933.18   933.82   999.52  1003.53  1015.00  1053.04
eigval :     1074.25  1087.80  1087.93  1089.29  1091.55  1093.42
eigval :     1094.04  1106.26  1106.52  1106.57  1117.36  1117.99
eigval :     1118.91  1124.76  1128.36  1130.51  1147.88  1165.77
eigval :     1168.83  1169.04  1170.04  1173.36  1173.91  1174.36
eigval :     1177.93  1180.72  1181.76  1185.30  1188.62  1190.22
eigval :     1198.43  1199.63  1200.59  1216.09  1219.08  1220.90
eigval :     1240.51  1241.61  1242.30  1242.85  1256.42  1259.41
eigval :     1259.99  1260.90  1263.27  1264.25  1299.41  1300.87
eigval :     1302.84  1304.10  1305.59  1306.52  1308.96  1311.87
eigval :     1317.43  1328.94  1334.14  1334.68  1335.01  1350.18
eigval :     1352.31  1354.84  1370.56  1375.55  1397.49  1398.31
eigval :     1406.77  1421.77  1422.58  1423.06  1440.11  1440.82
eigval :     1442.13  1443.95  1474.84  1476.95  1478.64  1482.10
eigval :     1482.34  1488.10  1501.31  1503.01  1504.32  1514.28
eigval :     1555.38  1556.17  1556.32  1566.42  1567.56  1567.66
eigval :     1578.59  1579.91  1580.14  1581.20  1586.45  1587.03
eigval :     1588.64  1591.11  1591.31  1601.16  1603.22  1603.50
eigval :     3077.38  3078.49  3079.39  3079.82  3085.44  3086.82
eigval :     3086.99  3087.26  3087.71  3088.14  3088.55  3090.54
eigval :     3094.76  3095.40  3095.93  3096.57  3096.78  3097.19
eigval :     3097.33  3097.42  3101.48  3101.68  3103.07  3103.76
eigval :     3104.27  3105.16  3105.44  3108.16  3108.50  3109.15
eigval :     3109.23  3109.42  3110.01  3110.36  3113.49  3114.24

   temp. (K)  partition function   enthalpy   heat capacity  entropy
                                   cal/mol     cal/K/mol   cal/K/mol   J/K/mol
 298.15  VIB  0.281E+25            30496.156    192.075    190.650
         ROT  0.244E+09              888.752      2.981     41.358
         INT  0.686E+33            31384.909    195.056    232.009
         TR   0.241E+29             1481.254      4.968     46.086
         TOT                       32866.1624   200.0238   278.0950  1163.5494

       T/K    H(0)-H(T)+PV         H(T)/Eh          T*S/Eh         G(T)/Eh
   ------------------------------------------------------------------------
    298.15    0.523756E-01    0.813544E+00    0.132132E+00    0.681412E+00
   ------------------------------------------------------------------------

         :::::::::::::::::::::::::::::::::::::::::::::::::::::
         ::                  THERMODYNAMIC                  ::
         :::::::::::::::::::::::::::::::::::::::::::::::::::::
         :: total free energy        -169.596786953794 Eh   ::
         ::.................................................::
         :: total energy             -170.278199297802 Eh   ::
         :: zero point energy           0.761168673766 Eh   ::
         :: G(RRHO) w/o ZPVE           -0.079756329758 Eh   ::
         :: G(RRHO) contrib.            0.681412344008 Eh   ::
         :::::::::::::::::::::::::::::::::::::::::::::::::::::

           -------------------------------------------------
          | TOTAL ENERGY             -170.278199297802 Eh   |
          | TOTAL ENTHALPY           -169.464655060332 Eh   |
          | TOTAL FREE ENERGY        -169.596786953794 Eh   |
          | GRADIENT NORM               0.000072933231 Eh/α |
          | HOMO-LUMO GAP               1.256107210607 eV   |
           -------------------------------------------------

 * finished run on 2025/08/25 at 21:59:30.499
