   * xtb version 6.7.1 (edcfbbe) compiled by 'albert@albert-system' on 2024-07-22

   ID    Z sym.   atoms
    1    6 C      1-29, 31-35, 37-59
    2    7 N      30, 36
    3    1 H      60-107

          program call               : xtb data2507/toluene/mCP-Ph/mCP-Ph_toluene_S0_crest.xyz --gfn 2 --gbsa toluene --ohess vtight --parallel 40 --molden --ceasefiles --namespace data2507/toluene/mCP-Ph/mCP-Ph_toluene_S0_finalOpt
      * Solvation model:               GBSA
        Solvent                        toluene
        Solvent mass                       9.2140E+01 g/mol
          :  Hamiltonian                  GFN2-xTB          :
 * total energy  :  -152.5624294 Eh     change       -0.2595044E-08 Eh
 * total energy  :  -152.5624924 Eh     change       -0.6298560E-04 Eh
 * total energy  :  -152.5625376 Eh     change       -0.4524671E-04 Eh
 * total energy  :  -152.5625614 Eh     change       -0.2383123E-04 Eh
 * total energy  :  -152.5626081 Eh     change       -0.4666188E-04 Eh
 * total energy  :  -152.5626402 Eh     change       -0.3210428E-04 Eh
 * total energy  :  -152.5626695 Eh     change       -0.2927952E-04 Eh
 * total energy  :  -152.5627042 Eh     change       -0.3466584E-04 Eh
 * total energy  :  -152.5627377 Eh     change       -0.3354387E-04 Eh
 * total energy  :  -152.5627680 Eh     change       -0.3030060E-04 Eh
 * total energy  :  -152.5630285 Eh     change       -0.1361441E-05 Eh
 * total energy  :  -152.5630295 Eh     change       -0.1003577E-05 Eh
 * total energy  :  -152.5630303 Eh     change       -0.7640008E-06 Eh
 * total energy  :  -152.5630310 Eh     change       -0.6863094E-06 Eh
 * total energy  :  -152.5630315 Eh     change       -0.5567266E-06 Eh
 * total energy  :  -152.5630321 Eh     change       -0.5884150E-06 Eh
 * total energy  :  -152.5630327 Eh     change       -0.6226988E-06 Eh
 * total energy  :  -152.5630334 Eh     change       -0.6344050E-06 Eh
 * total energy  :  -152.5630334 Eh     change       -0.6699423E-08 Eh
   *** GEOMETRY OPTIMIZATION CONVERGED AFTER 44 ITERATIONS ***

 final structure:
================
107
 xtb: 6.7.1 (edcfbbe)
C           -1.21439198617612        6.25530663242395       -1.56423924513037
C           -0.61888216814411        4.85192261695947       -1.75350813272935
C            0.46669604495453        4.64442286886155       -0.69266338839913
C            0.04487446248284        4.75104949202257       -3.13513688721346
C           -1.73767150367803        3.82442154635307       -1.65601038840923
C           -2.77549146515397        3.85257946797649       -2.58809205018565
C           -3.82121407543469        2.94751325165317       -2.55494296504121
C           -3.84168440083405        1.98517786750220       -1.55931845461910
C           -2.81485517459960        1.95239181483709       -0.60833952443830
C           -1.77322936866843        2.85373203611274       -0.65674964491103
C           -3.03708122105678        0.82491312009145        0.38465961944407
C           -3.31428603220645        1.31185804092251        1.79428815455829
C           -3.80197849090164        2.59187502480359        2.02558771245091
C           -4.11714605040113        3.00415641454742        3.30880372679357
C           -3.95822559637235        2.14021831091348        4.37861150885024
C           -3.48262032319937        0.85895260914804        4.15567579895347
C           -3.16580244599563        0.44751078898696        2.87364217031003
C           -1.84962856127196       -0.11610735993807        0.32113336246781
C           -0.68990182322226        0.19893342763388        1.03898752813734
C            0.44620093420188       -0.58170368545938        0.97504245690378
C            0.42143129726759       -1.70704571094202        0.16501423545816
C           -0.74914809682166       -2.05538947221686       -0.54378736697599
C           -1.87646216742355       -1.24778491939850       -0.47556168902691
C           -0.46403333250591       -3.29113835689547       -1.21817331293893
C           -1.20347535286944       -4.11224957987278       -2.05972938459040
C           -0.60886379991553       -5.25332081919355       -2.56065154433311
C            0.70997090653641       -5.57221955927112       -2.24261012158520
C            1.46553198430339       -4.77105624799646       -1.40745787025113
C            0.86612007898442       -3.63506103300281       -0.88206509770743
N            1.39143654050613       -2.66661229713373       -0.04801117489380
C            2.69795594201507       -2.64293777662188        0.46180312006223
C            3.20997354758314       -3.75171019917699        1.13051187361003
C            4.50633209202881       -3.72429480926812        1.61227881693531
C            5.29789309970884       -2.60296570689483        1.44200193150732
C            4.79217026869040       -1.49333547643815        0.76863916442550
N            5.60186731706337       -0.36657092932324        0.56378257309539
C            5.26692656270261        0.94297591694352        0.84893247924819
C            4.12197935950365        1.45468732836428        1.44205762825537
C            4.05166105044107        2.81931459991936        1.64692676021614
C            5.09762756475424        3.66356184237597        1.28003598883924
C            6.25061057548162        3.15874688109901        0.71213587964809
C            6.34386410953161        1.78937017263751        0.49755109397602
C            7.37413694484446        0.94007932147407       -0.03222524259389
C            8.64041908278297        1.18302701962758       -0.54932636765953
C            9.38614417658107        0.11387835040961       -1.00472855214241
C            8.87719133643794       -1.18273990779127       -0.96382202233611
C            7.62067141258338       -1.44931585341896       -0.45386371667629
C            6.87640572737392       -0.38206032064762        0.02913136621102
C            3.49089002816934       -1.51515968548396        0.27949456487961
C           -4.32539234683129        0.21796001129246       -0.14126465932455
C           -5.03275265558472       -0.84932474218311        0.36004648718568
C           -6.21557872298323       -1.26181204259439       -0.25878888925804
C           -6.96219525397064       -2.45874402551004        0.31198307156521
C           -6.04525893606255       -3.69022943246449        0.25312615195440
C           -7.34383766555422       -2.16242479576063        1.77013452537668
C           -8.24570778057370       -2.78358244227290       -0.45845004497827
C           -6.65459569039407       -0.55965462593226       -1.37731304787393
C           -5.95409933302818        0.52414080295244       -1.88505897425794
C           -4.78165466172400        0.91790289533425       -1.26618829234721
H           -1.95568362885467        6.47642804714495       -2.32759441279126
H           -1.69468016553625        6.33250991630902       -0.59043836116581
H           -0.42912745026565        7.00630287571863       -1.62245490650350
H            1.24757051783808        5.39153186465879       -0.82154549607045
H            0.06153995170882        4.75400698579351        0.31093095806353
H            0.92353077521520        3.66178250704445       -0.78950874035364
H            0.43668508528983        3.74763015506625       -3.29125236993276
H            0.86888961448332        5.45819857383242       -3.20592182945233
H           -0.65864347731990        4.97037905741304       -3.93353671865634
H           -2.77351006856405        4.60053561170495       -3.36701638871122
H           -4.60746012772750        2.99501143828809       -3.29457310521343
H           -0.99658462191851        2.79678314434181        0.08692168667447
H           -3.93584358374839        3.27188655146843        1.19663169083618
H           -4.49165873387384        4.00479684324034        3.47177254443733
H           -4.20538083851731        2.46229707443159        5.37984238620396
H           -3.35886669527062        0.17521676162877        4.98359107880594
H           -2.78887978976435       -0.55220537977895        2.71024044263424
H           -0.68939623768043        1.06983814993990        1.67790892757300
H            1.32037986837756       -0.32813946766376        1.55453852086311
H           -2.76311849550831       -1.50974003549655       -1.03233090820243
H           -2.22065502268722       -3.85603572610804       -2.31656424816219
H           -1.16706781465097       -5.90702799598113       -3.21476950000078
H            1.15263630170592       -6.46459982520122       -2.66079397546582
H            2.49117334535468       -5.01975957637992       -1.18035540147029
H            2.58685960048059       -4.62025501946673        1.27845225607767
H            4.89986197592824       -4.58153913012914        2.13748131977624
H            6.30182483472244       -2.57486397070333        1.83666047531593
H            3.31480495453801        0.80767498700462        1.74808573003603
H            3.16867693413507        3.23988678827578        2.10561818672444
H            5.00451552895755        4.72562243090323        1.45361293879970
H            7.06859230149101        3.81065633878793        0.44370890516192
H            9.02785826570498        2.18993687042028       -0.59629415686264
H           10.37404577638931        0.28086214646779       -1.40845782353088
H            9.47692755638228       -1.99754672540432       -1.34276292157797
H            7.23007414788179       -2.45566217044346       -0.44339601671086
H            3.10441014873356       -0.66858282551071       -0.26792806613863
H           -4.66008999407009       -1.36781334620050        1.23015686396233
H           -6.56108423941182       -4.56136041901309        0.65202078793260
H           -5.76222342957840       -3.89917318631828       -0.77704757174964
H           -5.13746723141489       -3.53785454967583        0.83071030108325
H           -6.46479863396303       -1.98777416588016        2.38457348973864
H           -7.89309884739056       -3.00210537898718        2.19130257098475
H           -7.97419739934533       -1.27645474902760        1.82089250866715
H           -8.94201067878485       -1.94835361601800       -0.42932023413157
H           -8.73330386258085       -3.64307073884624       -0.00225912288104
H           -8.02924786347495       -3.03269952015883       -1.49496007781695
H           -7.56395582458686       -0.85077312976097       -1.87762285620102
H           -6.32398415098603        1.04889586008575       -2.75424414677864

          :  Hamiltonian                  GFN2-xTB          :
         :: gradient norm              0.000060254044 Eh/a0 ::
         :: HOMO-LUMO gap              3.063258748202 eV    ::
         :: SCC energy              -155.379863949581 Eh    ::
         :: -> dispersion             -0.150339319263 Eh    ::
         :: -> Gsolv                  -0.058651090312 Eh    ::
         :: repulsion energy           2.816830570893 Eh    ::

    * Orbital Energies and Occupations

         #    Occupation            Energy/Eh            Energy/eV
      -------------------------------------------------------------
         1        2.0000           -0.6773355             -18.4312
       ...           ...                  ...                  ...
       131        2.0000           -0.4069536             -11.0738
       132        2.0000           -0.4064370             -11.0597
       133        2.0000           -0.4058207             -11.0429
       134        2.0000           -0.4025812             -10.9548
       135        2.0000           -0.4014030             -10.9227
       136        2.0000           -0.3954145             -10.7598
       137        2.0000           -0.3904417             -10.6245
       138        2.0000           -0.3875776             -10.5465
       139        2.0000           -0.3791788             -10.3180
       140        2.0000           -0.3775940             -10.2749
       141        2.0000           -0.3679251             -10.0118
       142        2.0000           -0.3646247              -9.9219
       143        2.0000           -0.3607986              -9.8178 (HOMO)
       144                         -0.2482259              -6.7546 (LUMO)
       145                         -0.2463722              -6.7041
       146                         -0.2445356              -6.6542
       147                         -0.2384370              -6.4882
       148                         -0.2382096              -6.4820
       149                         -0.2246467              -6.1129
       150                         -0.2230399              -6.0692
       151                         -0.2225531              -6.0560
       152                         -0.2199742              -5.9858
       153                         -0.2151573              -5.8547
       154                         -0.2096257              -5.7042
       ...                                ...                  ...
       284                          0.7441329              20.2489
      -------------------------------------------------------------
                  HL-Gap            0.1125727 Eh            3.0633 eV

     #   Z          covCN         q      C6AA      α(0)
     1   6 C        3.761    -0.104    22.527     6.766
     2   6 C        3.902     0.025    20.097     6.372
     3   6 C        3.761    -0.104    22.542     6.768
     4   6 C        3.761    -0.104    22.534     6.767
     5   6 C        2.974     0.005    27.912     8.666
     6   6 C        2.928    -0.041    29.011     8.833
     7   6 C        2.913    -0.039    28.979     8.827
     8   6 C        3.036    -0.006    28.134     8.700
     9   6 C        3.054    -0.000    27.986     8.676
    10   6 C        2.920    -0.046    29.134     8.851
    11   6 C        3.947     0.008    20.376     6.414
    12   6 C        2.980     0.017    27.614     8.620
    13   6 C        2.923    -0.036    28.898     8.816
    14   6 C        2.919    -0.031    28.785     8.798
    15   6 C        2.919    -0.034    28.854     8.809
    16   6 C        2.919    -0.032    28.793     8.799
    17   6 C        2.924    -0.034    28.855     8.809
    18   6 C        2.977     0.006    27.888     8.662
    19   6 C        2.928    -0.038    28.939     8.822
    20   6 C        2.909    -0.052    29.291     8.874
    21   6 C        3.077     0.045    26.917     8.506
    22   6 C        3.066    -0.019    28.418     8.741
    23   6 C        2.916    -0.041    29.013     8.833
    24   6 C        3.069    -0.018    28.381     8.735
    25   6 C        2.912    -0.034    28.849     8.808
    26   6 C        2.920    -0.042    29.054     8.839
    27   6 C        2.924    -0.035    28.871     8.811
    28   6 C        2.909    -0.052    29.299     8.876
    29   6 C        3.076     0.047    26.864     8.498
    30   7 N        2.802    -0.046    22.130     6.987
    31   6 C        2.912     0.067    26.501     8.441
    32   6 C        2.921    -0.047    29.167     8.856
    33   6 C        2.919    -0.027    28.670     8.781
    34   6 C        2.921    -0.047    29.169     8.857
    35   6 C        2.911     0.067    26.503     8.442
    36   7 N        2.802    -0.046    22.118     6.985
    37   6 C        3.074     0.047    26.866     8.498
    38   6 C        2.910    -0.051    29.261     8.870
    39   6 C        2.923    -0.034    28.852     8.809
    40   6 C        2.920    -0.042    29.044     8.838
    41   6 C        2.912    -0.035    28.859     8.809
    42   6 C        3.067    -0.018    28.394     8.738
    43   6 C        3.067    -0.018    28.390     8.737
    44   6 C        2.912    -0.035    28.863     8.810
    45   6 C        2.919    -0.042    29.052     8.839
    46   6 C        2.924    -0.035    28.867     8.811
    47   6 C        2.910    -0.052    29.293     8.875
    48   6 C        3.074     0.047    26.868     8.499
    49   6 C        2.925    -0.056    29.388     8.890
    50   6 C        3.057     0.000    27.971     8.673
    51   6 C        2.922    -0.041    29.015     8.833
    52   6 C        2.974     0.005    27.914     8.666
    53   6 C        3.903     0.025    20.094     6.372
    54   6 C        3.761    -0.103    22.506     6.763
    55   6 C        3.761    -0.104    22.525     6.766
    56   6 C        3.761    -0.106    22.579     6.774
    57   6 C        2.925    -0.045    29.120     8.850
    58   6 C        2.914    -0.040    28.982     8.828
    59   6 C        3.034    -0.006    28.131     8.700
    60   1 H        0.925     0.036     2.503     2.474
    61   1 H        0.925     0.032     2.554     2.499
    62   1 H        0.925     0.039     2.465     2.455
    63   1 H        0.925     0.037     2.490     2.467
    64   1 H        0.925     0.035     2.515     2.480
    65   1 H        0.925     0.035     2.522     2.484
    66   1 H        0.925     0.032     2.565     2.505
    67   1 H        0.925     0.038     2.471     2.458
    68   1 H        0.925     0.036     2.499     2.472
    69   1 H        0.926     0.029     2.607     2.525
    70   1 H        0.926     0.026     2.649     2.545
    71   1 H        0.926     0.037     2.496     2.470
    72   1 H        0.926     0.028     2.616     2.530
    73   1 H        0.926     0.029     2.602     2.523
    74   1 H        0.926     0.029     2.594     2.518
    75   1 H        0.926     0.030     2.589     2.516
    76   1 H        0.926     0.029     2.602     2.522
    77   1 H        0.926     0.032     2.562     2.503
    78   1 H        0.926     0.027     2.629     2.536
    79   1 H        0.926     0.031     2.572     2.508
    80   1 H        0.926     0.030     2.586     2.515
    81   1 H        0.926     0.028     2.616     2.529
    82   1 H        0.926     0.030     2.581     2.512
    83   1 H        0.926     0.030     2.582     2.513
    84   1 H        0.926     0.048     2.341     2.393
    85   1 H        0.926     0.049     2.336     2.390
    86   1 H        0.926     0.048     2.340     2.392
    87   1 H        0.926     0.027     2.629     2.535
    88   1 H        0.926     0.032     2.565     2.504
    89   1 H        0.926     0.029     2.603     2.523
    90   1 H        0.926     0.031     2.578     2.511
    91   1 H        0.926     0.031     2.576     2.510
    92   1 H        0.926     0.028     2.611     2.527
    93   1 H        0.926     0.031     2.578     2.511
    94   1 H        0.926     0.031     2.576     2.510
    95   1 H        0.926     0.049     2.336     2.390
    96   1 H        0.926     0.028     2.608     2.525
    97   1 H        0.925     0.038     2.473     2.459
    98   1 H        0.925     0.032     2.564     2.504
    99   1 H        0.925     0.036     2.502     2.474
   100   1 H        0.925     0.036     2.506     2.476
   101   1 H        0.925     0.039     2.468     2.457
   102   1 H        0.925     0.031     2.565     2.505
   103   1 H        0.925     0.035     2.512     2.479
   104   1 H        0.925     0.037     2.483     2.464
   105   1 H        0.925     0.036     2.508     2.477
   106   1 H        0.926     0.036     2.504     2.475
   107   1 H        0.926     0.026     2.645     2.543

molecular dipole:
                 x           y           z       tot (Debye)
 q only:        0.331      -0.531       0.414
   full:        0.327      -0.547       0.407       1.923

 projected vibrational frequencies (cm⁻¹)
eigval :       -0.00    -0.00    -0.00     0.00     0.00     0.00
eigval :       -6.95     9.88    19.45    20.79    22.09    27.88
eigval :       29.42    33.27    36.48    39.73    49.22    53.30
eigval :       55.64    64.96    77.90    78.26    92.38    96.21
eigval :      104.72   122.35   134.91   137.23   145.01   152.32
eigval :      156.72   177.10   179.67   184.41   191.38   194.50
eigval :      203.09   215.97   220.92   229.96   230.93   241.50
eigval :      243.33   249.82   254.86   269.51   272.99   275.16
eigval :      280.75   303.42   307.36   317.18   319.67   325.82
eigval :      330.22   337.91   344.90   351.86   358.68   367.99
eigval :      376.75   381.53   386.54   395.00   397.66   420.54
eigval :      421.43   423.21   426.83   431.45   431.90   437.10
eigval :      444.20   447.98   454.27   464.13   480.07   487.27
eigval :      514.56   520.01   527.63   528.92   531.96   541.23
eigval :      542.53   553.03   565.23   575.26   584.98   590.03
eigval :      593.03   597.92   610.91   614.33   622.06   628.27
eigval :      632.91   647.16   651.31   669.38   671.15   674.08
eigval :      678.97   688.00   696.14   707.87   709.27   715.60
eigval :      720.58   728.74   749.26   760.31   762.23   768.40
eigval :      774.52   780.01   780.61   803.61   806.54   819.38
eigval :      821.58   830.94   865.29   869.69   870.10   872.64
eigval :      874.06   879.36   879.63   887.05   890.26   893.37
eigval :      895.25   898.51   899.73   902.59   904.41   905.00
eigval :      907.38   908.29   911.30   914.88   918.24   920.19
eigval :      923.29   925.87   931.34   932.33   933.83   937.99
eigval :      959.01   959.73   960.81   961.03   962.84   964.60
eigval :      966.54   972.63   996.78   997.53  1008.33  1014.57
eigval :     1016.70  1032.08  1033.22  1034.00  1035.19  1037.40
eigval :     1068.25  1069.68  1072.55  1087.36  1108.72  1110.79
eigval :     1119.14  1124.23  1126.06  1126.67  1138.56  1148.05
eigval :     1153.55  1166.52  1174.78  1175.94  1177.94  1179.43
eigval :     1181.69  1182.10  1185.86  1194.59  1199.36  1203.99
eigval :     1210.09  1224.72  1225.76  1230.15  1231.13  1232.37
eigval :     1233.03  1234.50  1238.05  1241.85  1249.61  1253.26
eigval :     1256.36  1281.34  1283.25  1287.89  1288.98  1298.86
eigval :     1300.26  1303.76  1308.36  1314.62  1317.85  1324.82
eigval :     1343.65  1350.50  1356.20  1358.52  1361.39  1370.59
eigval :     1373.54  1400.62  1402.09  1402.99  1403.24  1414.77
eigval :     1417.65  1419.76  1422.97  1426.82  1426.98  1427.23
eigval :     1431.63  1435.11  1452.58  1459.61  1470.01  1474.40
eigval :     1475.60  1476.79  1477.74  1485.54  1486.89  1488.27
eigval :     1490.10  1491.97  1492.77  1499.08  1499.39  1502.18
eigval :     1503.94  1510.12  1512.42  1517.87  1518.57  1567.02
eigval :     1570.67  1574.96  1576.25  1581.06  1584.86  1586.90
eigval :     1587.86  1591.33  1597.87  1598.59  1599.26  1603.83
eigval :     1609.48  1613.32  1615.03  3018.18  3018.50  3018.65
eigval :     3019.49  3022.16  3022.28  3023.67  3024.51  3026.33
eigval :     3026.49  3029.28  3030.07  3034.59  3035.35  3041.78
eigval :     3043.04  3046.46  3046.72  3064.65  3067.24  3068.50
eigval :     3071.44  3071.65  3071.91  3072.84  3074.67  3076.96
eigval :     3077.08  3078.64  3078.88  3080.50  3083.47  3084.84
eigval :     3085.29  3086.07  3087.66  3087.78  3088.26  3090.86
eigval :     3092.09  3092.51  3095.41  3096.04  3097.32  3098.60
eigval :     3104.22  3110.15  3123.50

   temp. (K)  partition function   enthalpy   heat capacity  entropy
                                   cal/mol     cal/K/mol   cal/K/mol   J/K/mol
 298.15  VIB  0.174E+24            29967.552    188.472    185.199
         ROT  0.140E+09              888.752      2.981     40.249
         INT  0.242E+32            30856.304    191.453    225.448
         TR   0.203E+29             1481.254      4.968     45.747
         TOT                       32337.5581   196.4208   271.1949  1134.6797

       T/K    H(0)-H(T)+PV         H(T)/Eh          T*S/Eh         G(T)/Eh
   ------------------------------------------------------------------------
    298.15    0.515332E-01    0.915722E+00    0.128853E+00    0.786868E+00
   ------------------------------------------------------------------------

         :::::::::::::::::::::::::::::::::::::::::::::::::::::
         ::                  THERMODYNAMIC                  ::
         :::::::::::::::::::::::::::::::::::::::::::::::::::::
         :: total free energy        -151.776165346654 Eh   ::
         ::.................................................::
         :: total energy             -152.563033378386 Eh   ::
         :: zero point energy           0.864188323005 Eh   ::
         :: G(RRHO) w/o ZPVE           -0.077320291272 Eh   ::
         :: G(RRHO) contrib.            0.786868031732 Eh   ::
         :::::::::::::::::::::::::::::::::::::::::::::::::::::

           -------------------------------------------------
          | TOTAL ENERGY             -152.563033378386 Eh   |
          | TOTAL ENTHALPY           -151.647311876289 Eh   |
          | TOTAL FREE ENERGY        -151.776165346654 Eh   |
          | GRADIENT NORM               0.000060261369 Eh/α |
          | HOMO-LUMO GAP               3.063258734022 eV   |
           -------------------------------------------------

 * finished run on 2025/08/24 at 23:07:10.677
