   * xtb version 6.7.1 (edcfbbe) compiled by 'albert@albert-system' on 2024-07-22

   ID    Z sym.   atoms
    1    6 C      1-29, 31-35, 37-59
    2    7 N      30, 36
    3    1 H      60-107

          program call               : xtb data2507/toluene/mCP-Ph/mCP-Ph_toluene_T1_crest.xyz --gfn 2 --uhf 2 --gbsa toluene --ohess vtight --parallel 40 --molden --ceasefiles --namespace data2507/toluene/mCP-Ph/mCP-Ph_toluene_T1_finalOpt
      * Solvation model:               GBSA
        Solvent                        toluene
        Solvent mass                       9.2140E+01 g/mol
          :  Hamiltonian                  GFN2-xTB          :
 * total energy  :  -152.4517369 Eh     change       -0.1760489E-07 Eh
 * total energy  :  -152.4518221 Eh     change       -0.8512464E-04 Eh
 * total energy  :  -152.4519008 Eh     change       -0.7874068E-04 Eh
 * total energy  :  -152.4519536 Eh     change       -0.5275935E-04 Eh
 * total energy  :  -152.4520028 Eh     change       -0.4922039E-04 Eh
 * total energy  :  -152.4521050 Eh     change       -0.1021821E-03 Eh
 * total energy  :  -152.4521664 Eh     change       -0.6142454E-04 Eh
 * total energy  :  -152.4522502 Eh     change       -0.8382054E-04 Eh
 * total energy  :  -152.4523886 Eh     change       -0.1384330E-03 Eh
 * total energy  :  -152.4526074 Eh     change       -0.2187228E-03 Eh
 * total energy  :  -152.4538592 Eh     change       -0.1893765E-05 Eh
 * total energy  :  -152.4538609 Eh     change       -0.1655094E-05 Eh
 * total energy  :  -152.4538624 Eh     change       -0.1452704E-05 Eh
 * total energy  :  -152.4538637 Eh     change       -0.1345105E-05 Eh
 * total energy  :  -152.4538651 Eh     change       -0.1394664E-05 Eh
 * total energy  :  -152.4538667 Eh     change       -0.1619538E-05 Eh
 * total energy  :  -152.4538686 Eh     change       -0.1896856E-05 Eh
 * total energy  :  -152.4538707 Eh     change       -0.2053366E-05 Eh
 * total energy  :  -152.4538707 Eh     change       -0.7054609E-08 Eh
   *** GEOMETRY OPTIMIZATION CONVERGED AFTER 122 ITERATIONS ***

 final structure:
================
107
 xtb: 6.7.1 (edcfbbe)
C            1.41751170824998        3.22148800601677       -2.08703715746685
C            0.25287571334795        4.22778953530383       -2.12720662123101
C            0.40571385312662        5.08235554792484       -3.38911534437936
C            0.34429415828100        5.16009174947956       -0.90583635557678
C           -1.05302253212752        3.46677743355233       -2.07941018545805
C           -2.02684963583750        3.52700461383651       -3.10961434087035
C           -3.19233077285705        2.82297918754023       -3.06275951982065
C           -3.46321876798422        1.98016763112750       -1.93765353615643
C           -2.47791865421615        1.93755837880672       -0.87304547869399
C           -1.32287162165573        2.64250199422435       -0.95739661951133
C           -2.94048824157194        0.99006536424634        0.21946402808076
C           -3.26056009265476        1.67976313934299        1.53174656265063
C           -3.57490979502142        3.03259548773727        1.56489025047401
C           -3.93597651045644        3.64267625355132        2.75349330924724
C           -3.99901301392317        2.90649452399424        3.92429341359190
C           -3.69809068466553        1.55440886931155        3.89814785717161
C           -3.33360140774996        0.94576429947922        2.71115828994806
C           -1.86994123538294       -0.07314142044591        0.35407272261699
C           -0.74558767182545        0.18949474351673        1.14682966720878
C            0.32737409517005       -0.67488058457001        1.20191185724112
C            0.27368779436198       -1.83167092287209        0.43752809577854
C           -0.87744609941068       -2.14262525913974       -0.32006121101373
C           -1.93882025352878       -1.25015041197035       -0.37468630719663
C           -0.63535721910524       -3.42919475096082       -0.91330965845780
C           -1.38166318006547       -4.25027696621041       -1.74816564649166
C           -0.83271623634525       -5.44918962509033       -2.16035913256518
C            0.44963359345297       -5.82362037696667       -1.76481549931445
C            1.21183724364063       -5.02279899800381       -0.93433428530544
C            0.65546456393846       -3.83030911773438       -0.49470703370399
N            1.19480526674728       -2.85231893841385        0.32016675220572
C            2.49832727537574       -2.83270505928697        0.83707499019949
C            2.99175089478180       -3.91725935052541        1.55766455925673
C            4.28700085943274       -3.88453970415398        2.04307696254632
C            5.09463225320905       -2.78238461719542        1.82805527668486
C            4.60647068421000       -1.69595664307221        1.10450336713151
N            5.42671742834784       -0.58552561869609        0.85787009091387
C            5.09591802496606        0.73768798199605        1.07904563753234
C            3.94924385451060        1.28218350541057        1.63832139081128
C            3.88243842622934        2.65558137433162        1.77570933811144
C            4.93407606745908        3.47733037948268        1.37591822894809
C            6.09025581387989        2.94080763578335        0.84466949123892
C            6.17988903340844        1.56212166130619        0.69802636596007
C            7.21105573813723        0.68445761596877        0.21897395736332
C            8.48377259141067        0.89747917968576       -0.29561568192266
C            9.22836101332332       -0.19498029007278       -0.69398556774934
C            8.71199907345425       -1.48592093712564       -0.60013389047864
C            7.44882910844692       -1.72283646980319       -0.09141111769871
C            6.70583148226843       -0.63128231771293        0.33566920602463
C            3.30841091818104       -1.72513573018025        0.60822320770400
C           -4.25238486172540        0.49012073158688       -0.35456180925958
C           -5.13034929007108       -0.39810212281381        0.17303182944390
C           -6.33441569917196       -0.72046183202759       -0.50514932868657
C           -7.27824877729087       -1.72469637167151        0.11669763241498
C           -7.70098731758819       -1.22778322114654        1.51086498905939
C           -8.54775915205594       -1.94925572335666       -0.71079198949270
C           -6.55191786911959       -3.07515611856206        0.25438205158166
C           -6.59235139114025       -0.07967580966667       -1.74423077614473
C           -5.73342388151031        0.81922224629433       -2.30112814989509
C           -4.51388012175308        1.14167222534743       -1.62481560376769
H            1.37668300019299        2.60397108109514       -1.19437933660417
H            1.37655259836524        2.56597306389865       -2.95500013557817
H            2.36937723338433        3.74869513335605       -2.09401673764287
H            1.36288912801218        5.59957588466754       -3.36127783065007
H            0.38433137489773        4.46575519430218       -4.28501833540898
H           -0.37982489144973        5.83217970300336       -3.45275975489373
H           -0.47858976137118        5.87241297366117       -0.91446605837805
H            1.28158521535593        5.71218616712028       -0.92892140599550
H            0.30117138700170        4.60090160953551        0.02450841187723
H           -1.84086450029505        4.15019006671808       -3.97000808820278
H           -3.90916285197741        2.87957716895418       -3.86829991645292
H           -0.60175715201606        2.58220575953997       -0.15665300844086
H           -3.53340220914553        3.61167168977439        0.65322602003952
H           -4.17162332167266        4.69746337857304        2.76337462197508
H           -4.28300502696024        3.38230190031161        4.85182858366998
H           -3.74635938067013        0.97181415265272        4.80735602480958
H           -3.09136725570410       -0.10766250294178        2.69990789931449
H           -0.72366596940906        1.09261846595742        1.73932199587587
H            1.17676027009643       -0.46048056963773        1.83184800135312
H           -2.80744712053169       -1.47067516219394       -0.97685065820837
H           -2.36925318561817       -3.95158101417495       -2.06686204457643
H           -1.39857017311730       -6.10462218535505       -2.80608119581999
H            0.85873637276221       -6.75946994976099       -2.11664388170283
H            2.21053727503925       -5.31522830230376       -0.64789467007820
H            2.35595486327434       -4.76859617566462        1.74523200065925
H            4.66707616461021       -4.72244254978874        2.60788017531040
H            6.09645766671305       -2.75013596990326        2.22762503119177
H            3.13688641877341        0.65429297829621        1.96893112283307
H            2.99692732805679        3.10088800852293        2.20564897459020
H            4.84338249370262        4.54704616816303        1.49586502010913
H            6.91328346058823        3.57598486736645        0.55266326507035
H            8.87732369033330        1.89921265761934       -0.38399396145471
H           10.22134275579440       -0.05124388658714       -1.09417409245031
H            9.31127460447090       -2.31988944851045       -0.93555521750428
H            7.05240167753662       -2.72560729669456       -0.03989875345707
H            2.93651017878163       -0.90036077959293        0.01891759809772
H           -4.90853946078329       -0.86728195543139        1.11970074968279
H           -8.39349679256006       -1.93442049307556        1.96378172022268
H           -6.84547128742410       -1.11726928574717        2.17133981814670
H           -8.19463833344282       -0.26114034065772        1.43027450836488
H           -9.11275450596416       -1.02593423766531       -0.81872944383203
H           -9.18359466392039       -2.67526372081438       -0.20763117482895
H           -8.30988775639543       -2.33992369712171       -1.69775074310673
H           -6.24545225374671       -3.43771304855118       -0.72510999443255
H           -7.21532189603622       -3.81125850934129        0.70376357024257
H           -5.66595149924846       -2.98718788419429        0.87734812666618
H           -7.50497361969428       -0.30767619491957       -2.27158906272127
H           -5.95933702407846        1.29444715657454       -3.24404563086055

          :  Hamiltonian                  GFN2-xTB          :
         :: gradient norm              0.000066533546 Eh/a0 ::
         :: HOMO-LUMO gap              0.216986755433 eV    ::
         :: SCC energy              -155.250214625075 Eh    ::
         :: -> dispersion             -0.150749378749 Eh    ::
         :: -> Gsolv                  -0.058841328593 Eh    ::
         :: repulsion energy           2.796343956402 Eh    ::

    * Orbital Energies and Occupations

         #    Occupation            Energy/Eh            Energy/eV
      -------------------------------------------------------------
         1        2.0000           -0.6789123             -18.4741
       ...           ...                  ...                  ...
       132        2.0000           -0.4041358             -10.9971
       133        2.0000           -0.4035512             -10.9812
       134        2.0000           -0.4021771             -10.9438
       135        2.0000           -0.4006897             -10.9033
       136        2.0000           -0.3955271             -10.7628
       137        2.0000           -0.3911783             -10.6445
       138        2.0000           -0.3873236             -10.5396
       139        2.0000           -0.3793199             -10.3218
       140        2.0000           -0.3789451             -10.3116
       141        1.9993           -0.3652744              -9.9396
       142        1.9847           -0.3623213              -9.8593
       143        1.0160           -0.3544478              -9.6450
       144        0.9843           -0.2570291              -6.9941 (HOMO)
       145        0.0140           -0.2490551              -6.7771 (LUMO)
       146        0.0017           -0.2470347              -6.7222
       147        0.0000           -0.2391324              -6.5071
       148        0.0000           -0.2387908              -6.4978
       149                         -0.2242386              -6.1018
       150                         -0.2227329              -6.0609
       151                         -0.2219107              -6.0385
       152                         -0.2190914              -5.9618
       153                         -0.2099349              -5.7126
       154                         -0.2041135              -5.5542
       155                         -0.1955336              -5.3207
       ...                                ...                  ...
       284                          0.7455592              20.2877
      -------------------------------------------------------------
                  HL-Gap            0.0079740 Eh            0.2170 eV

     #   Z          covCN         q      C6AA      α(0)
     1   6 C        3.761    -0.101    22.482     6.759
     2   6 C        3.902     0.028    20.047     6.364
     3   6 C        3.761    -0.106    22.574     6.773
     4   6 C        3.761    -0.102    22.498     6.762
     5   6 C        2.971    -0.003    28.102     8.695
     6   6 C        2.912    -0.039    28.979     8.827
     7   6 C        2.903    -0.045    29.125     8.849
     8   6 C        3.021    -0.008    28.186     8.709
     9   6 C        3.048    -0.001    28.003     8.679
    10   6 C        2.909    -0.042    29.054     8.839
    11   6 C        3.938     0.009    20.367     6.413
    12   6 C        2.980     0.014    27.692     8.632
    13   6 C        2.923    -0.036    28.901     8.816
    14   6 C        2.919    -0.031    28.785     8.798
    15   6 C        2.919    -0.035    28.871     8.811
    16   6 C        2.919    -0.032    28.803     8.801
    17   6 C        2.924    -0.035    28.862     8.810
    18   6 C        2.981     0.005    27.895     8.664
    19   6 C        2.927    -0.038    28.936     8.822
    20   6 C        2.909    -0.051    29.256     8.869
    21   6 C        3.079     0.045    26.912     8.505
    22   6 C        3.063    -0.018    28.389     8.737
    23   6 C        2.916    -0.040    28.987     8.829
    24   6 C        3.069    -0.017    28.356     8.732
    25   6 C        2.912    -0.033    28.833     8.805
    26   6 C        2.920    -0.041    29.020     8.834
    27   6 C        2.924    -0.035    28.863     8.810
    28   6 C        2.909    -0.051    29.271     8.871
    29   6 C        3.074     0.047    26.868     8.499
    30   7 N        2.801    -0.041    22.033     6.972
    31   6 C        2.912     0.066    26.518     8.444
    32   6 C        2.920    -0.047    29.167     8.856
    33   6 C        2.919    -0.027    28.665     8.780
    34   6 C        2.921    -0.047    29.166     8.856
    35   6 C        2.911     0.067    26.504     8.442
    36   7 N        2.801    -0.045    22.104     6.983
    37   6 C        3.074     0.047    26.865     8.498
    38   6 C        2.910    -0.051    29.260     8.870
    39   6 C        2.923    -0.034    28.843     8.807
    40   6 C        2.920    -0.042    29.034     8.836
    41   6 C        2.912    -0.035    28.860     8.809
    42   6 C        3.067    -0.018    28.389     8.737
    43   6 C        3.067    -0.018    28.389     8.737
    44   6 C        2.912    -0.035    28.864     8.810
    45   6 C        2.919    -0.042    29.048     8.838
    46   6 C        2.924    -0.035    28.870     8.811
    47   6 C        2.910    -0.052    29.291     8.875
    48   6 C        3.074     0.047    26.870     8.499
    49   6 C        2.926    -0.056    29.386     8.890
    50   6 C        3.047    -0.001    28.004     8.679
    51   6 C        2.909    -0.042    29.037     8.836
    52   6 C        2.971    -0.003    28.101     8.695
    53   6 C        3.902     0.028    20.047     6.365
    54   6 C        3.761    -0.103    22.511     6.764
    55   6 C        3.761    -0.106    22.574     6.773
    56   6 C        3.761    -0.102    22.496     6.761
    57   6 C        2.912    -0.040    28.990     8.829
    58   6 C        2.903    -0.045    29.117     8.848
    59   6 C        3.022    -0.008    28.199     8.711
    60   1 H        0.925     0.035     2.511     2.478
    61   1 H        0.925     0.032     2.563     2.504
    62   1 H        0.925     0.039     2.457     2.451
    63   1 H        0.925     0.038     2.482     2.464
    64   1 H        0.925     0.035     2.511     2.478
    65   1 H        0.925     0.036     2.503     2.474
    66   1 H        0.925     0.033     2.545     2.495
    67   1 H        0.925     0.040     2.455     2.450
    68   1 H        0.925     0.037     2.491     2.468
    69   1 H        0.926     0.034     2.527     2.486
    70   1 H        0.926     0.023     2.688     2.564
    71   1 H        0.926     0.026     2.643     2.542
    72   1 H        0.926     0.028     2.621     2.532
    73   1 H        0.926     0.028     2.608     2.525
    74   1 H        0.926     0.029     2.602     2.523
    75   1 H        0.926     0.029     2.597     2.520
    76   1 H        0.926     0.028     2.616     2.529
    77   1 H        0.926     0.031     2.570     2.507
    78   1 H        0.926     0.028     2.609     2.526
    79   1 H        0.926     0.031     2.566     2.505
    80   1 H        0.926     0.031     2.566     2.505
    81   1 H        0.926     0.030     2.592     2.517
    82   1 H        0.926     0.032     2.557     2.500
    83   1 H        0.926     0.033     2.548     2.496
    84   1 H        0.926     0.049     2.329     2.386
    85   1 H        0.926     0.049     2.329     2.386
    86   1 H        0.926     0.049     2.335     2.390
    87   1 H        0.926     0.027     2.630     2.536
    88   1 H        0.926     0.030     2.584     2.514
    89   1 H        0.926     0.029     2.604     2.523
    90   1 H        0.926     0.031     2.579     2.511
    91   1 H        0.926     0.031     2.577     2.510
    92   1 H        0.926     0.028     2.611     2.527
    93   1 H        0.926     0.031     2.577     2.511
    94   1 H        0.926     0.031     2.572     2.508
    95   1 H        0.926     0.049     2.330     2.387
    96   1 H        0.926     0.026     2.648     2.545
    97   1 H        0.925     0.040     2.452     2.449
    98   1 H        0.925     0.037     2.493     2.469
    99   1 H        0.925     0.032     2.556     2.500
   100   1 H        0.925     0.036     2.509     2.477
   101   1 H        0.925     0.037     2.483     2.464
   102   1 H        0.925     0.036     2.504     2.475
   103   1 H        0.925     0.033     2.549     2.497
   104   1 H        0.925     0.040     2.453     2.449
   105   1 H        0.925     0.037     2.489     2.467
   106   1 H        0.926     0.034     2.525     2.485
   107   1 H        0.926     0.023     2.689     2.564

molecular dipole:
                 x           y           z       tot (Debye)
 q only:        0.542      -0.810       0.487
   full:        0.549      -0.826       0.488       2.809

 projected vibrational frequencies (cm⁻¹)
eigval :       -0.00    -0.00    -0.00     0.00     0.00     0.00
eigval :        7.04    12.96    16.76    20.55    22.60    25.99
eigval :       32.21    35.11    37.68    40.91    49.88    54.73
eigval :       59.34    67.23    74.83    76.73    90.29    94.67
eigval :      105.02   107.57   126.90   132.27   138.43   145.53
eigval :      156.21   170.42   174.00   176.17   177.62   192.81
eigval :      198.52   214.04   217.88   222.60   226.52   237.58
eigval :      238.79   247.22   257.34   268.75   271.54   273.79
eigval :      278.76   303.04   305.56   306.70   310.82   319.96
eigval :      322.15   325.40   332.69   346.51   347.92   354.95
eigval :      364.33   375.43   379.59   384.69   391.58   395.29
eigval :      403.99   421.28   421.79   425.87   427.98   431.25
eigval :      438.01   445.68   446.55   453.92   474.10   477.21
eigval :      500.22   513.54   515.65   520.27   532.91   534.06
eigval :      540.40   549.06   558.25   562.45   579.89   581.65
eigval :      588.93   589.98   595.28   604.33   610.95   615.03
eigval :      618.15   634.59   649.27   652.83   665.43   670.53
eigval :      673.26   674.06   684.28   690.77   697.04   706.03
eigval :      707.87   712.06   748.56   752.95   759.79   761.87
eigval :      764.78   769.60   771.41   775.99   776.71   792.71
eigval :      802.13   819.90   858.58   861.97   862.16   868.45
eigval :      868.81   871.14   872.63   875.73   879.81   890.10
eigval :      892.74   892.97   894.99   897.21   899.47   902.08
eigval :      902.49   903.57   906.60   907.70   916.70   918.33
eigval :      922.07   923.48   924.15   930.24   931.46   934.10
eigval :      938.37   953.38   953.45   954.86   958.77   959.11
eigval :      961.14   961.96   971.05   992.42   995.52  1008.05
eigval :     1015.76  1026.79  1027.05  1028.67  1032.51  1032.78
eigval :     1068.11  1069.39  1071.86  1079.15  1087.22  1088.93
eigval :     1110.22  1115.76  1118.48  1121.28  1124.80  1131.37
eigval :     1146.29  1151.09  1165.42  1168.77  1173.46  1174.14
eigval :     1177.85  1178.45  1181.64  1183.95  1185.48  1196.41
eigval :     1199.51  1201.83  1207.21  1207.44  1208.30  1225.74
eigval :     1229.46  1230.52  1233.55  1236.23  1244.08  1247.64
eigval :     1253.56  1263.51  1275.80  1279.24  1285.30  1296.49
eigval :     1298.29  1300.47  1300.60  1304.03  1315.20  1317.18
eigval :     1319.17  1340.36  1349.98  1352.40  1355.97  1356.87
eigval :     1359.84  1370.79  1377.93  1394.69  1398.42  1398.79
eigval :     1400.67  1402.25  1416.60  1417.71  1422.38  1424.14
eigval :     1424.66  1426.02  1432.96  1455.55  1466.66  1471.06
eigval :     1471.71  1475.05  1482.07  1483.23  1485.32  1485.70
eigval :     1486.53  1486.75  1491.10  1491.37  1497.88  1498.23
eigval :     1500.38  1500.68  1510.50  1510.58  1517.45  1517.64
eigval :     1540.35  1549.37  1556.17  1562.10  1566.41  1571.75
eigval :     1580.69  1583.41  1586.98  1589.11  1593.03  1595.62
eigval :     1596.74  1599.38  1609.42  3018.24  3018.56  3018.94
eigval :     3019.27  3022.23  3022.68  3024.27  3024.43  3026.23
eigval :     3026.33  3030.03  3030.05  3035.26  3035.68  3043.55
eigval :     3047.13  3047.25  3051.37  3063.41  3065.77  3071.04
eigval :     3071.68  3073.06  3073.14  3073.96  3075.91  3076.48
eigval :     3076.67  3077.03  3078.06  3078.74  3081.82  3084.92
eigval :     3085.02  3086.18  3086.44  3087.02  3087.77  3087.88
eigval :     3091.58  3091.99  3093.71  3096.28  3098.17  3099.71
eigval :     3102.49  3104.16  3105.06

   temp. (K)  partition function   enthalpy   heat capacity  entropy
                                   cal/mol     cal/K/mol   cal/K/mol   J/K/mol
 298.15  VIB  0.278E+24            30414.083    190.955    188.154
         ROT  0.134E+09              888.752      2.981     40.164
         INT  0.372E+32            31302.835    193.936    228.317
         TR   0.203E+29             1481.254      4.968     45.747
         TOT                       32784.0891   198.9045   274.0639  1146.6833

       T/K    H(0)-H(T)+PV         H(T)/Eh          T*S/Eh         G(T)/Eh
   ------------------------------------------------------------------------
    298.15    0.522448E-01    0.911622E+00    0.130217E+00    0.781405E+00
   ------------------------------------------------------------------------

         :::::::::::::::::::::::::::::::::::::::::::::::::::::
         ::                  THERMODYNAMIC                  ::
         :::::::::::::::::::::::::::::::::::::::::::::::::::::
         :: total free energy        -151.672465660373 Eh   ::
         ::.................................................::
         :: total energy             -152.453870671351 Eh   ::
         :: zero point energy           0.859376830860 Eh   ::
         :: G(RRHO) w/o ZPVE           -0.077971819882 Eh   ::
         :: G(RRHO) contrib.            0.781405010978 Eh   ::
         :::::::::::::::::::::::::::::::::::::::::::::::::::::

           -------------------------------------------------
          | TOTAL ENERGY             -152.453870671351 Eh   |
          | TOTAL ENTHALPY           -151.542249069052 Eh   |
          | TOTAL FREE ENERGY        -151.672465660373 Eh   |
          | GRADIENT NORM               0.000066541544 Eh/α |
          | HOMO-LUMO GAP               0.216984465082 eV   |
           -------------------------------------------------

 * finished run on 2025/08/24 at 23:21:27.138
