   * xtb version 6.7.1 (edcfbbe) compiled by 'albert@albert-system' on 2024-07-22

   ID    Z sym.   atoms
    1    6 C      1-29, 31-35, 37-59
    2    7 N      30, 36
    3    1 H      60-107

          program call               : xtb data2507/toluene/mCP-Ph/mCP-Ph_toluene_S0_finalOpt.xtbopt.xyz --gfn 2 --uhf 2 --gbsa toluene --ohess vtight --parallel 40 --molden --ceasefiles --namespace data2507/toluene/mCP-Ph/mCP-Ph_toluene_T1_preOpt
      * Solvation model:               GBSA
        Solvent                        toluene
        Solvent mass                       9.2140E+01 g/mol
          :  Hamiltonian                  GFN2-xTB          :
 * total energy  :  -152.4488800 Eh     change       -0.1824887E-07 Eh
 * total energy  :  -152.4503775 Eh     change       -0.1497488E-02 Eh
 * total energy  :  -152.4508116 Eh     change       -0.4341493E-03 Eh
 * total energy  :  -152.4509367 Eh     change       -0.1250849E-03 Eh
 * total energy  :  -152.4515199 Eh     change       -0.5832165E-03 Eh
 * total energy  :  -152.4365900 Eh     change        0.1492994E-01 Eh
 * total energy  :  -152.4512888 Eh     change       -0.1469880E-01 Eh
 * total energy  :  -152.4519657 Eh     change       -0.6769569E-03 Eh
 * total energy  :  -152.4525576 Eh     change       -0.5918945E-03 Eh
 * total energy  :  -152.4531072 Eh     change       -0.5495376E-03 Eh
 * total energy  :  -152.4539077 Eh     change       -0.1282244E-05 Eh
 * total energy  :  -152.4539085 Eh     change       -0.7806086E-06 Eh
 * total energy  :  -152.4539090 Eh     change       -0.5276748E-06 Eh
 * total energy  :  -152.4539095 Eh     change       -0.4695750E-06 Eh
 * total energy  :  -152.4539100 Eh     change       -0.5663042E-06 Eh
 * total energy  :  -152.4539107 Eh     change       -0.7144594E-06 Eh
 * total energy  :  -152.4539116 Eh     change       -0.8727693E-06 Eh
 * total energy  :  -152.4539126 Eh     change       -0.9616930E-06 Eh
 * total energy  :  -152.4539126 Eh     change       -0.6403894E-08 Eh
   *** GEOMETRY OPTIMIZATION CONVERGED AFTER 44 ITERATIONS ***

 final structure:
================
107
 xtb: 6.7.1 (edcfbbe)
C           -1.17538830338923        6.21054243479857       -1.61151663704772
C           -0.60189406849322        4.79207760912980       -1.78011610342514
C            0.49143148266264        4.59017707253739       -0.72618147900787
C            0.04996517136454        4.66766043991138       -3.16895538022658
C           -1.72321519822681        3.78467678387361       -1.66096957540735
C           -2.79873181190085        3.82613328074598       -2.59436334188150
C           -3.84668037848862        2.96135628817769       -2.55495190717745
C           -3.88978440257356        1.96047586495083       -1.53386563778858
C           -2.80443691868360        1.93123499679491       -0.56844226722686
C           -1.76319398702579        2.80127365220051       -0.64730680771458
C           -3.03649526852982        0.81304927486825        0.43080834070589
C           -3.31450772346420        1.30358285686053        1.83932418166814
C           -3.80058299583130        2.58639131714731        2.06005147379610
C           -4.12979110319606        3.00491858931866        3.33738346235859
C           -3.98880664432000        2.14300631471827        4.41162408305491
C           -3.51475527911208        0.85873761181948        4.19927760952846
C           -3.18256745646658        0.44186140679287        2.92326443104255
C           -1.84866728726391       -0.12510497315822        0.35594052601368
C           -0.69219626439391        0.16758462538299        1.08939373228745
C            0.44512333568704       -0.60841267673283        1.00249592983023
C            0.42470797223321       -1.70557029297521        0.15291814021247
C           -0.74179375321766       -2.03087145115887       -0.57519186496143
C           -1.86896064294212       -1.22712138339410       -0.48452517131457
C           -0.44862416791664       -3.24090943957449       -1.29264153691913
C           -1.17987748184212       -4.03394192627487       -2.16703914258924
C           -0.57766456854731       -5.15516987603630       -2.70426086163588
C            0.73953450204566       -5.48208959636239       -2.38865893351837
C            1.48751314989315       -4.70806030128415       -1.52089237421009
C            0.88086395386565       -3.59275044180656       -0.96129050645809
N            1.39780702006083       -2.65282039955288       -0.09016082502409
C            2.70400255485770       -2.63902368294371        0.42189363621771
C            3.21593363078020       -3.76138021280252        1.06790152116588
C            4.51003839270413       -3.73990771306991        1.55617869321084
C            5.29927162706933       -2.61328767726755        1.41223989096472
C            4.79479634123374       -1.49128398152760        0.75743012955065
N            5.60343514822116       -0.36053623237191        0.57609992783444
C            5.26156848036240        0.94519542736167        0.87245965194101
C            4.10807866923882        1.44794350434138        1.45644135880472
C            4.03191214733237        2.81026288441413        1.67547230946826
C            5.08040418461672        3.66082186463791        1.33135507945190
C            6.24197478701027        3.16471766014354        0.77335670749572
C            6.34124849673889        1.79788657764754        0.54518357061322
C            7.38038077349351        0.95741620140195        0.01901835716681
C            8.65274135528727        1.20987612759731       -0.47848976787466
C            9.40664365871432        0.14845934741962       -0.93857157310563
C            8.89985324284837       -1.14950086302578       -0.92203903706975
C            7.63736198836330       -1.42536654269119       -0.43157143370116
C            6.88499566468853       -0.36653859431262        0.05718053157555
C            3.49472805000510       -1.50613225537599        0.26449053455258
C           -4.32847972114519        0.21008343838420       -0.08920967822211
C           -5.03149777085278       -0.84372791342440        0.39410244961699
C           -6.23931055209814       -1.25716063801227       -0.22517019162539
C           -6.97475735908852       -2.45464204435308        0.33304458903016
C           -6.05515171618616       -3.68709072430571        0.25471537870960
C           -7.34221970203819       -2.18448300232568        1.80304384410879
C           -8.26542392300005       -2.77602652012663       -0.42702524403575
C           -6.69465788426047       -0.52361333825931       -1.35066899973972
C           -6.01767447624568        0.54530297269764       -1.85599587931193
C           -4.79112267148213        0.95650278727662       -1.24373450683503
H           -1.92119792388719        6.42934451771035       -2.37091725955672
H           -1.64341721749059        6.31231472540473       -0.63414061933874
H           -0.37818405930441        6.94667283418120       -1.69234972615769
H            1.27583969489174        5.33092233733558       -0.86926911014534
H            0.09434817839869        4.71256635542789        0.27915740694130
H            0.94128935906713        3.60367102217862       -0.81540331408828
H            0.43859963404547        3.66112303551964       -3.31155163717240
H            0.87387283619167        5.37292297703320       -3.25678571830269
H           -0.66095778120914        4.87483766072256       -3.96391993663604
H           -2.77903371530124        4.57727110594421       -3.37045465887977
H           -4.64212326987564        3.01211719374233       -3.28353983435141
H           -0.97073658437623        2.74286038428572        0.08030921956478
H           -3.92050497132589        3.26152461281726        1.22448301094220
H           -4.50247810699556        4.00749852508781        3.49295054278111
H           -4.24878002456991        2.46882705360601        5.40841447488957
H           -3.40350463139312        0.17834268732055        5.03180641266892
H           -2.80628290113900       -0.55927178152599        2.76646154670973
H           -0.69740089560526        1.01726747170410        1.75631759292533
H            1.31704771214249       -0.37610512610697        1.59431602677501
H           -2.75435863894525       -1.46522124257762       -1.05435637403416
H           -2.19626168462328       -3.77229299052498       -2.42123048664980
H           -1.12964965508612       -5.78657389424985       -3.38495182159447
H            1.18728155852645       -6.35838079238047       -2.83429455772965
H            2.51200733536884       -4.96179661883904       -1.29441746656850
H            2.59422808632331       -4.63427594394283        1.19438610852017
H            4.90361604067789       -4.60648597413414        2.06575511034306
H            6.30081115451618       -2.59064414458742        1.81311973456321
H            3.29782432255878        0.79677901989805        1.74474100708984
H            3.14190443629944        3.22358002913622        2.12705994297400
H            4.98235136204652        4.72076679094420        1.51485274143550
H            7.06194423293687        3.82126755308082        0.52293369577563
H            9.03845614498820        2.21812060712430       -0.50700943982735
H           10.39927958531969        0.32291259611182       -1.32728152401106
H            9.50564153642597       -1.95790205381397       -1.30498997388688
H            7.24884489606337       -2.43249473590097       -0.44109699006300
H            3.10739227196094       -0.65016817794423       -0.26747744405377
H           -4.66264980288009       -1.37903165612077        1.25604974487100
H           -6.56780324494087       -4.56098955944453        0.65145845395688
H           -5.78226927534604       -3.88602119802242       -0.78003726486882
H           -5.14224066560205       -3.53811008896429        0.82481215844132
H           -6.45781962361092       -2.00636723078792        2.40852328708660
H           -7.87413528083411       -3.03873976998302        2.21699221443824
H           -7.98395835120503       -1.30826941650036        1.87399744933957
H           -8.96524142436187       -1.94452777338057       -0.37990083915369
H           -8.74413006195361       -3.64335207866678        0.02370301791066
H           -8.05939412498125       -3.01105102441487       -1.46896582980407
H           -7.61483670196226       -0.81776965294064       -1.83000846188289
H           -6.39189377493125        1.08715932111538       -2.71177367548817

          :  Hamiltonian                  GFN2-xTB          :
         :: gradient norm              0.000060401138 Eh/a0 ::
         :: HOMO-LUMO gap              0.218899861824 eV    ::
         :: SCC energy              -155.250217171382 Eh    ::
         :: -> dispersion             -0.150038758314 Eh    ::
         :: -> Gsolv                  -0.059015170229 Eh    ::
         :: repulsion energy           2.796304585248 Eh    ::

    * Orbital Energies and Occupations

         #    Occupation            Energy/Eh            Energy/eV
      -------------------------------------------------------------
         1        2.0000           -0.6788493             -18.4724
       ...           ...                  ...                  ...
       132        2.0000           -0.4044457             -11.0055
       133        2.0000           -0.4036321             -10.9834
       134        2.0000           -0.4023272             -10.9479
       135        2.0000           -0.4005798             -10.9003
       136        2.0000           -0.3954219             -10.7600
       137        2.0000           -0.3912829             -10.6474
       138        2.0000           -0.3870941             -10.5334
       139        2.0000           -0.3792588             -10.3202
       140        2.0000           -0.3787956             -10.3076
       141        1.9994           -0.3652722              -9.9396
       142        1.9863           -0.3623324              -9.8596
       143        1.0143           -0.3542463              -9.6395
       144        0.9847           -0.2569063              -6.9908 (HOMO)
       145        0.0134           -0.2488620              -6.7719 (LUMO)
       146        0.0019           -0.2470009              -6.7212
       147        0.0000           -0.2392782              -6.5111
       148        0.0000           -0.2388912              -6.5006
       149                         -0.2241246              -6.0987
       150                         -0.2226908              -6.0597
       151                         -0.2217058              -6.0329
       152                         -0.2190009              -5.9593
       153                         -0.2100888              -5.7168
       154                         -0.2041207              -5.5544
       155                         -0.1954533              -5.3186
       ...                                ...                  ...
       284                          0.7447082              20.2645
      -------------------------------------------------------------
                  HL-Gap            0.0080443 Eh            0.2189 eV

     #   Z          covCN         q      C6AA      α(0)
     1   6 C        3.761    -0.103    22.515     6.764
     2   6 C        3.902     0.028    20.050     6.365
     3   6 C        3.761    -0.104    22.540     6.768
     4   6 C        3.761    -0.103    22.518     6.765
     5   6 C        2.971    -0.004    28.110     8.697
     6   6 C        2.914    -0.035    28.879     8.812
     7   6 C        2.902    -0.045    29.114     8.847
     8   6 C        3.023    -0.008    28.185     8.708
     9   6 C        3.046    -0.001    28.010     8.680
    10   6 C        2.907    -0.046    29.146     8.852
    11   6 C        3.938     0.008    20.371     6.414
    12   6 C        2.980     0.014    27.692     8.632
    13   6 C        2.923    -0.036    28.901     8.816
    14   6 C        2.919    -0.032    28.787     8.798
    15   6 C        2.919    -0.035    28.871     8.811
    16   6 C        2.919    -0.032    28.802     8.801
    17   6 C        2.924    -0.035    28.863     8.810
    18   6 C        2.978     0.005    27.898     8.664
    19   6 C        2.927    -0.037    28.928     8.820
    20   6 C        2.909    -0.051    29.260     8.870
    21   6 C        3.077     0.045    26.914     8.506
    22   6 C        3.065    -0.018    28.392     8.738
    23   6 C        2.916    -0.040    28.987     8.829
    24   6 C        3.068    -0.017    28.362     8.733
    25   6 C        2.912    -0.033    28.832     8.805
    26   6 C        2.920    -0.041    29.022     8.834
    27   6 C        2.924    -0.035    28.863     8.810
    28   6 C        2.909    -0.051    29.268     8.871
    29   6 C        3.075     0.047    26.869     8.499
    30   7 N        2.802    -0.041    22.038     6.972
    31   6 C        2.912     0.066    26.518     8.444
    32   6 C        2.921    -0.047    29.158     8.855
    33   6 C        2.919    -0.026    28.662     8.779
    34   6 C        2.921    -0.047    29.162     8.856
    35   6 C        2.911     0.067    26.502     8.442
    36   7 N        2.801    -0.045    22.103     6.982
    37   6 C        3.073     0.047    26.872     8.499
    38   6 C        2.910    -0.051    29.263     8.870
    39   6 C        2.923    -0.034    28.856     8.809
    40   6 C        2.920    -0.042    29.038     8.837
    41   6 C        2.912    -0.035    28.861     8.809
    42   6 C        3.067    -0.018    28.392     8.737
    43   6 C        3.067    -0.018    28.389     8.737
    44   6 C        2.912    -0.035    28.864     8.810
    45   6 C        2.919    -0.042    29.047     8.838
    46   6 C        2.924    -0.035    28.871     8.811
    47   6 C        2.910    -0.052    29.293     8.875
    48   6 C        3.074     0.047    26.874     8.500
    49   6 C        2.925    -0.056    29.382     8.889
    50   6 C        3.048    -0.001    27.999     8.678
    51   6 C        2.909    -0.042    29.035     8.836
    52   6 C        2.971    -0.003    28.103     8.696
    53   6 C        3.902     0.028    20.048     6.365
    54   6 C        3.761    -0.102    22.494     6.761
    55   6 C        3.761    -0.103    22.511     6.764
    56   6 C        3.761    -0.106    22.573     6.773
    57   6 C        2.912    -0.040    28.992     8.829
    58   6 C        2.903    -0.045    29.118     8.848
    59   6 C        3.021    -0.008    28.205     8.712
    60   1 H        0.925     0.037     2.491     2.468
    61   1 H        0.925     0.033     2.544     2.494
    62   1 H        0.925     0.040     2.450     2.448
    63   1 H        0.925     0.037     2.488     2.467
    64   1 H        0.925     0.035     2.511     2.478
    65   1 H        0.925     0.035     2.519     2.482
    66   1 H        0.925     0.032     2.553     2.499
    67   1 H        0.925     0.040     2.451     2.448
    68   1 H        0.925     0.037     2.487     2.466
    69   1 H        0.926     0.027     2.625     2.534
    70   1 H        0.926     0.023     2.693     2.566
    71   1 H        0.926     0.033     2.538     2.491
    72   1 H        0.926     0.027     2.629     2.535
    73   1 H        0.926     0.028     2.613     2.528
    74   1 H        0.926     0.029     2.603     2.523
    75   1 H        0.926     0.029     2.597     2.520
    76   1 H        0.926     0.028     2.616     2.529
    77   1 H        0.926     0.033     2.550     2.497
    78   1 H        0.926     0.028     2.609     2.526
    79   1 H        0.926     0.032     2.562     2.503
    80   1 H        0.926     0.031     2.568     2.506
    81   1 H        0.926     0.030     2.593     2.518
    82   1 H        0.926     0.032     2.559     2.502
    83   1 H        0.926     0.032     2.558     2.501
    84   1 H        0.926     0.049     2.333     2.389
    85   1 H        0.926     0.049     2.327     2.385
    86   1 H        0.926     0.049     2.331     2.388
    87   1 H        0.926     0.027     2.623     2.533
    88   1 H        0.926     0.031     2.566     2.505
    89   1 H        0.926     0.029     2.603     2.523
    90   1 H        0.926     0.031     2.577     2.511
    91   1 H        0.926     0.031     2.576     2.510
    92   1 H        0.926     0.028     2.611     2.527
    93   1 H        0.926     0.031     2.577     2.510
    94   1 H        0.926     0.031     2.571     2.508
    95   1 H        0.926     0.049     2.331     2.387
    96   1 H        0.926     0.025     2.651     2.546
    97   1 H        0.925     0.040     2.455     2.450
    98   1 H        0.925     0.032     2.551     2.498
    99   1 H        0.925     0.037     2.489     2.467
   100   1 H        0.925     0.037     2.495     2.470
   101   1 H        0.925     0.040     2.452     2.449
   102   1 H        0.925     0.032     2.555     2.500
   103   1 H        0.925     0.035     2.510     2.478
   104   1 H        0.925     0.037     2.483     2.464
   105   1 H        0.925     0.036     2.505     2.475
   106   1 H        0.926     0.034     2.527     2.486
   107   1 H        0.926     0.023     2.692     2.566

molecular dipole:
                 x           y           z       tot (Debye)
 q only:        0.612      -0.768       0.385
   full:        0.599      -0.775       0.377       2.669

 projected vibrational frequencies (cm⁻¹)
eigval :       -0.00    -0.00    -0.00     0.00     0.00     0.00
eigval :       10.02    11.48    17.38    19.75    23.45    29.02
eigval :       29.99    33.72    36.78    38.22    47.83    53.24
eigval :       55.10    63.06    70.10    77.61    91.91    95.66
eigval :      105.64   110.55   126.59   136.71   139.42   145.26
eigval :      154.09   175.41   176.31   180.26   184.53   192.75
eigval :      199.63   213.42   219.02   224.65   229.94   239.26
eigval :      240.47   244.04   248.63   259.66   272.34   273.35
eigval :      277.54   297.56   302.19   307.27   316.63   319.22
eigval :      322.48   327.48   335.88   341.23   350.31   356.82
eigval :      367.06   375.43   378.59   384.62   393.71   396.57
eigval :      404.70   422.22   422.53   426.17   426.93   430.96
eigval :      438.35   442.02   446.67   452.95   473.09   478.84
eigval :      500.45   513.63   515.68   520.15   532.26   534.55
eigval :      541.28   548.48   559.17   563.36   579.73   582.30
eigval :      588.73   590.32   595.44   604.68   611.04   616.10
eigval :      618.79   634.99   649.83   653.03   664.94   671.00
eigval :      674.37   675.08   684.00   690.93   697.68   707.83
eigval :      708.70   712.25   748.70   751.13   760.65   761.82
eigval :      767.94   768.34   774.83   775.14   779.95   792.72
eigval :      804.83   820.47   853.25   861.68   864.95   867.32
eigval :      869.61   871.09   873.12   875.54   877.57   890.00
eigval :      892.77   893.97   897.95   899.34   899.62   900.26
eigval :      902.35   904.40   906.83   908.93   916.49   920.94
eigval :      921.78   922.71   924.99   928.11   930.96   933.11
eigval :      937.99   953.34   954.43   955.67   958.66   958.94
eigval :      960.66   963.66   971.41   992.12   995.58  1008.10
eigval :     1015.59  1026.86  1027.07  1028.46  1032.51  1033.64
eigval :     1068.24  1069.27  1071.81  1077.82  1085.75  1088.90
eigval :     1110.14  1117.08  1118.76  1120.09  1125.05  1130.10
eigval :     1146.06  1151.02  1164.20  1167.87  1172.90  1175.10
eigval :     1177.94  1179.29  1179.40  1183.94  1185.84  1196.56
eigval :     1198.15  1202.04  1207.24  1208.66  1208.89  1221.40
eigval :     1226.72  1230.57  1233.40  1235.21  1243.07  1247.64
eigval :     1253.15  1266.22  1276.66  1279.33  1284.23  1296.93
eigval :     1298.69  1300.71  1302.08  1307.49  1315.07  1317.56
eigval :     1319.15  1340.52  1349.74  1351.92  1356.15  1357.37
eigval :     1360.17  1371.37  1377.04  1395.71  1397.87  1398.57
eigval :     1401.72  1402.48  1416.72  1418.28  1422.05  1424.53
eigval :     1424.60  1426.06  1432.19  1456.31  1466.80  1470.38
eigval :     1471.02  1475.51  1482.26  1484.13  1486.17  1486.60
eigval :     1488.36  1490.64  1491.75  1495.41  1497.66  1498.00
eigval :     1500.15  1502.10  1509.60  1511.26  1517.24  1517.47
eigval :     1538.59  1545.76  1556.58  1561.77  1566.01  1572.02
eigval :     1580.83  1583.01  1586.95  1589.05  1594.10  1595.15
eigval :     1596.75  1597.79  1608.51  3018.14  3018.30  3018.71
eigval :     3019.50  3022.43  3022.70  3024.04  3024.68  3026.09
eigval :     3026.62  3029.64  3029.96  3034.78  3035.41  3043.78
eigval :     3044.25  3047.16  3047.64  3062.96  3065.19  3068.75
eigval :     3071.74  3072.60  3072.83  3073.17  3075.00  3076.39
eigval :     3077.13  3078.30  3078.46  3079.04  3081.47  3082.33
eigval :     3085.33  3085.48  3085.75  3086.61  3087.82  3089.52
eigval :     3091.09  3092.53  3093.08  3096.63  3098.17  3099.52
eigval :     3104.46  3104.98  3114.21

   temp. (K)  partition function   enthalpy   heat capacity  entropy
                                   cal/mol     cal/K/mol   cal/K/mol   J/K/mol
 298.15  VIB  0.259E+24            30408.526    190.613    187.745
         ROT  0.139E+09              888.752      2.981     40.249
         INT  0.362E+32            31297.279    193.594    227.993
         TR   0.203E+29             1481.254      4.968     45.747
         TOT                       32778.5327   198.5623   273.7398  1145.3273

       T/K    H(0)-H(T)+PV         H(T)/Eh          T*S/Eh         G(T)/Eh
   ------------------------------------------------------------------------
    298.15    0.522359E-01    0.911671E+00    0.130063E+00    0.781608E+00
   ------------------------------------------------------------------------

         :::::::::::::::::::::::::::::::::::::::::::::::::::::
         ::                  THERMODYNAMIC                  ::
         :::::::::::::::::::::::::::::::::::::::::::::::::::::
         :: total free energy        -151.672304094963 Eh   ::
         ::.................................................::
         :: total energy             -152.453912585217 Eh   ::
         :: zero point energy           0.859435183827 Eh   ::
         :: G(RRHO) w/o ZPVE           -0.077826693573 Eh   ::
         :: G(RRHO) contrib.            0.781608490254 Eh   ::
         :::::::::::::::::::::::::::::::::::::::::::::::::::::

           -------------------------------------------------
          | TOTAL ENERGY             -152.453912585217 Eh   |
          | TOTAL ENTHALPY           -151.542241484596 Eh   |
          | TOTAL FREE ENERGY        -151.672304094963 Eh   |
          | GRADIENT NORM               0.000060387941 Eh/α |
          | HOMO-LUMO GAP               0.218896327237 eV   |
           -------------------------------------------------

 * finished run on 2025/08/24 at 23:07:23.668
