   * xtb version 6.7.1 (edcfbbe) compiled by 'albert@albert-system' on 2024-07-22

   ID    Z sym.   atoms
    1    6 C      1-29, 31-35, 37-59
    2    7 N      30, 36
    3    1 H      60-107

          program call               : xtb data2507/toluene/mCP-Ph/mCP-Ph.xyz --gfn 2 --gbsa toluene --ohess vtight --parallel 40 --molden --ceasefiles --namespace data2507/toluene/mCP-Ph/mCP-Ph_toluene_S0_preOpt
      * Solvation model:               GBSA
        Solvent                        toluene
        Solvent mass                       9.2140E+01 g/mol
          :  Hamiltonian                  GFN2-xTB          :
 * total energy  :  -152.5348825 Eh     change       -0.3559421E-08 Eh
 * total energy  :  -152.5527105 Eh     change       -0.1782791E-01 Eh
 * total energy  :  -152.5583437 Eh     change       -0.5633251E-02 Eh
 * total energy  :  -152.5600305 Eh     change       -0.1686750E-02 Eh
 * total energy  :  -152.5608005 Eh     change       -0.7700021E-03 Eh
 * total energy  :  -152.5610968 Eh     change       -0.2963356E-03 Eh
 * total energy  :  -152.5613064 Eh     change       -0.2096394E-03 Eh
 * total energy  :  -152.5614646 Eh     change       -0.1581386E-03 Eh
 * total energy  :  -152.5615647 Eh     change       -0.1001582E-03 Eh
 * total energy  :  -152.5616116 Eh     change       -0.4682097E-04 Eh
 * total energy  :  -152.5621603 Eh     change       -0.4324633E-06 Eh
 * total energy  :  -152.5621608 Eh     change       -0.4639473E-06 Eh
 * total energy  :  -152.5621612 Eh     change       -0.4149380E-06 Eh
 * total energy  :  -152.5621616 Eh     change       -0.3555094E-06 Eh
 * total energy  :  -152.5621619 Eh     change       -0.3180228E-06 Eh
 * total energy  :  -152.5621622 Eh     change       -0.3087531E-06 Eh
 * total energy  :  -152.5621625 Eh     change       -0.3515899E-06 Eh
 * total energy  :  -152.5621630 Eh     change       -0.4408790E-06 Eh
 * total energy  :  -152.5621630 Eh     change       -0.2418147E-08 Eh
   *** GEOMETRY OPTIMIZATION CONVERGED AFTER 68 ITERATIONS ***

 final structure:
================
107
 xtb: 6.7.1 (edcfbbe)
C           -4.08466747239770        5.49646429188454        1.05085720667738
C           -2.93207812348894        5.41691490989720        0.03836929420128
C           -1.58655320996266        5.52982235580583        0.77133041913099
C           -3.05475686013865        6.60795622722186       -0.91702243144610
C           -2.99374706846794        4.07528378791462       -0.67711768698132
C           -3.13979964312193        3.96010103205007       -2.05625611665661
C           -3.19357678117439        2.72675149546785       -2.68796381933051
C           -3.09697124749245        1.57562751288321       -1.92757820185162
C           -2.94280077256165        1.67646136412116       -0.53803194665144
C           -2.89846573189271        2.90432284958460        0.07920227784250
C           -2.87692995989217        0.29984477873076        0.09818402769395
C           -4.03971295739712        0.18901113350620        1.06471638863388
C           -5.27896657666571       -0.27387499517139        0.64076131091487
C           -6.35266576198496       -0.31301131980438        1.51348181813032
C           -6.20623348701015        0.11934933481902        2.82027352943467
C           -4.97746876050618        0.59355114357269        3.24802721857575
C           -3.90404434345977        0.63095986745475        2.37648894362224
C           -1.54404328616821       -0.01259354302833        0.75153246224507
C           -0.39559161872681        0.70449669982220        0.40625352631349
C            0.84586694508440        0.39799721024030        0.93006999238620
C            0.93966521944228       -0.67205429316859        1.80697441350133
C           -0.21332989504186       -1.40074509938667        2.17613190214918
C           -1.45010830435522       -1.07033798403698        1.64287587602517
C            0.21625466876145       -2.39967120678159        3.11484330062468
C           -0.44295884984553       -3.41083660569791        3.80186092142622
C            0.29146315020076       -4.23510389506106        4.63136471730030
C            1.66845599345800       -4.07000796232013        4.76713132697582
C            2.34610775368713       -3.07074617656317        4.09427425932389
C            1.60986033199490       -2.22351701664089        3.27798334122730
N            2.03478238982816       -1.17574006896479        2.48334829449030
C            3.35105252371632       -0.70360782330735        2.38735170442769
C            4.07467030730259       -0.40730375656088        3.53990794050954
C            5.37490842753034        0.05240785683124        3.43579344646282
C            5.96412853623047        0.22611236725975        2.19656773032608
C            5.24023575309123       -0.05659797946411        1.04080234907317
N            5.82942053900201        0.11675890705897       -0.21986257026092
C            6.49155851596828        1.25012040496783       -0.65140268525943
C            6.67118809669442        2.46791245601445       -0.01013332508378
C            7.35890352319124        3.45837514739879       -0.68545361755663
C            7.85196761860836        3.25396173362039       -1.97273103390498
C            7.65504074685984        2.05318409392902       -2.62543346029767
C            6.96714102859876        1.04184578864549       -1.96668117700482
C            6.57394155196868       -0.28942983533393       -2.33671698714341
C            6.76580593355806       -1.05931164680550       -3.47702221791011
C            6.26407227632804       -2.34550863555587       -3.49964045023518
C            5.59083541746002       -2.87051588309697       -2.39834560252417
C            5.38832799919156       -2.12451844205413       -1.25260894921851
C            5.87090372955817       -0.82332571566061       -1.23183829812739
C            3.93420694660732       -0.52316404830128        1.13799189846014
C           -3.01379310431865       -0.59526481460144       -1.12074482257356
C           -3.01264065706210       -1.96908791500929       -1.17496333997071
C           -3.13373911734174       -2.62488701430439       -2.40264713115828
C           -3.14525183492215       -4.14645433481362       -2.42153391126820
C           -3.26990526333821       -4.72390913340228       -3.83486793060470
C           -1.83649876288923       -4.66624195975067       -1.80743876948252
C           -4.34149219649893       -4.64343047945077       -1.59526819658746
C           -3.24480601266585       -1.85270302539241       -3.55505885658325
C           -3.24069818330365       -0.46655866347954       -3.51254255221089
C           -3.12567233927839        0.16963623499784       -2.28989675217137
H           -4.01477581961221        4.70876915048535        1.79613226848010
H           -4.06591172849924        6.45541804825000        1.56483694892795
H           -5.04090493880341        5.39623677533413        0.54057192551069
H           -1.51839245726783        6.48759021229715        1.28327061374298
H           -1.46851081792865        4.74019843350237        1.50849337622487
H           -0.76442412643166        5.45863396643093        0.06137586668032
H           -2.24216642530686        6.61613403021286       -1.64018822549455
H           -3.00644580786782        7.53433004327368       -0.34774774032692
H           -4.00461157670006        6.58907934763647       -1.44669981016003
H           -3.21716111012685        4.84357504718114       -2.66900890007640
H           -3.31145806537383        2.67251221792814       -3.76072117427874
H           -2.78584573661343        2.95234085440764        1.15146340849428
H           -5.40520556044408       -0.60838487918231       -0.37885189420616
H           -7.30824701242340       -0.68154822740902        1.16848466857949
H           -7.04436825185057        0.08886898948538        3.50136543228610
H           -4.85365594322179        0.93676573843904        4.26545475882928
H           -2.94725753359138        0.99619739310349        2.72180385183187
H           -0.47961297749071        1.52749466051381       -0.28790190954249
H            1.71118242356764        0.98539512240906        0.66253124020352
H           -2.32998769935184       -1.62404693365558        1.93507632570284
H           -1.50781154523443       -3.54754444313227        3.68430496347384
H           -0.20205221759198       -5.02627267088734        5.17667131895610
H            2.21964168025469       -4.74011963040890        5.41084502615385
H            3.41567115665627       -2.96389448613441        4.19454196026120
H            3.61047106413074       -0.52678460056007        4.50670639153003
H            5.93592587318590        0.27702775111867        4.33045179304893
H            6.98505542664546        0.56627471858318        2.11683670976399
H            6.27905268020401        2.64337062912458        0.98031281727956
H            7.51466980621156        4.41379218863182       -0.20573382477634
H            8.38704795521790        4.05201567403678       -2.46634175755338
H            8.02328003616691        1.90056028336914       -3.62902706266895
H            7.30074603991957       -0.65739522110012       -4.32457978011351
H            6.40048794930925       -2.95983557399182       -4.37765459699243
H            5.22097441749898       -3.88479337475554       -2.43965620801398
H            4.88054834143271       -2.54950772257978       -0.39987703302334
H            3.37265436126126       -0.74643259612366        0.24369579524699
H           -2.92204133329087       -2.53435260281573       -0.26026516889559
H           -3.27033424482342       -5.81102913235493       -3.78227930108683
H           -4.19906900529879       -4.41109629919462       -4.30607277888762
H           -2.43233538555006       -4.41842220381745       -4.45815684910444
H           -1.81928037872453       -5.75407373158477       -1.82940509738633
H           -1.72456510475983       -4.34521974302548       -0.77526655697537
H           -0.98296971436946       -4.29558633881313       -2.37216001734856
H           -4.27406837346093       -4.31391360365886       -0.56191643863017
H           -4.37760532655000       -5.73092774992695       -1.60481324166790
H           -5.27162313528668       -4.26306637917683       -2.01380778844924
H           -3.33767080001852       -2.32696544762086       -4.51864706789073
H           -3.32783679833555        0.10346560345352       -4.42639223568435

          :  Hamiltonian                  GFN2-xTB          :
         :: gradient norm              0.000039427801 Eh/a0 ::
         :: HOMO-LUMO gap              3.074237801580 eV    ::
         :: SCC energy              -155.378324310869 Eh    ::
         :: -> dispersion             -0.148243736275 Eh    ::
         :: -> Gsolv                  -0.059052552090 Eh    ::
         :: repulsion energy           2.816161317646 Eh    ::

    * Orbital Energies and Occupations

         #    Occupation            Energy/Eh            Energy/eV
      -------------------------------------------------------------
         1        2.0000           -0.6774040             -18.4331
       ...           ...                  ...                  ...
       131        2.0000           -0.4066589             -11.0658
       132        2.0000           -0.4063830             -11.0582
       133        2.0000           -0.4057357             -11.0406
       134        2.0000           -0.4032269             -10.9724
       135        2.0000           -0.4011074             -10.9147
       136        2.0000           -0.3955628             -10.7638
       137        2.0000           -0.3901742             -10.6172
       138        2.0000           -0.3872209             -10.5368
       139        2.0000           -0.3791374             -10.3169
       140        2.0000           -0.3784025             -10.2969
       141        2.0000           -0.3679482             -10.0124
       142        2.0000           -0.3641208              -9.9082
       143        2.0000           -0.3612265              -9.8295 (HOMO)
       144                         -0.2482504              -6.7552 (LUMO)
       145                         -0.2465393              -6.7087
       146                         -0.2444015              -6.6505
       147                         -0.2384061              -6.4874
       148                         -0.2378137              -6.4712
       149                         -0.2248254              -6.1178
       150                         -0.2236160              -6.0849
       151                         -0.2225260              -6.0552
       152                         -0.2199366              -5.9848
       153                         -0.2143048              -5.8315
       154                         -0.2097255              -5.7069
       ...                                ...                  ...
       284                          0.7438206              20.2404
      -------------------------------------------------------------
                  HL-Gap            0.1129762 Eh            3.0742 eV

     #   Z          covCN         q      C6AA      α(0)
     1   6 C        3.761    -0.104    22.525     6.766
     2   6 C        3.903     0.025    20.095     6.372
     3   6 C        3.761    -0.103    22.520     6.765
     4   6 C        3.761    -0.107    22.582     6.774
     5   6 C        2.974     0.005    27.913     8.666
     6   6 C        2.925    -0.045    29.120     8.849
     7   6 C        2.914    -0.040    28.983     8.828
     8   6 C        3.034    -0.006    28.132     8.700
     9   6 C        3.056     0.000    27.974     8.674
    10   6 C        2.922    -0.041    29.022     8.834
    11   6 C        3.947     0.008    20.374     6.414
    12   6 C        2.979     0.017    27.622     8.621
    13   6 C        2.924    -0.036    28.896     8.815
    14   6 C        2.919    -0.031    28.784     8.798
    15   6 C        2.919    -0.034    28.854     8.809
    16   6 C        2.919    -0.032    28.794     8.799
    17   6 C        2.924    -0.034    28.852     8.809
    18   6 C        2.978     0.006    27.878     8.661
    19   6 C        2.927    -0.040    28.994     8.830
    20   6 C        2.909    -0.053    29.308     8.877
    21   6 C        3.073     0.045    26.917     8.507
    22   6 C        3.066    -0.019    28.409     8.740
    23   6 C        2.917    -0.038    28.957     8.824
    24   6 C        3.067    -0.018    28.380     8.735
    25   6 C        2.912    -0.034    28.852     8.808
    26   6 C        2.920    -0.042    29.052     8.839
    27   6 C        2.924    -0.035    28.868     8.811
    28   6 C        2.910    -0.052    29.295     8.875
    29   6 C        3.074     0.047    26.862     8.498
    30   7 N        2.802    -0.045    22.115     6.985
    31   6 C        2.912     0.067    26.505     8.442
    32   6 C        2.921    -0.047    29.175     8.858
    33   6 C        2.919    -0.027    28.674     8.781
    34   6 C        2.921    -0.047    29.174     8.858
    35   6 C        2.912     0.067    26.508     8.442
    36   7 N        2.802    -0.045    22.117     6.985
    37   6 C        3.074     0.047    26.867     8.499
    38   6 C        2.910    -0.052    29.293     8.875
    39   6 C        2.924    -0.035    28.868     8.811
    40   6 C        2.919    -0.042    29.052     8.839
    41   6 C        2.912    -0.035    28.862     8.809
    42   6 C        3.067    -0.018    28.392     8.737
    43   6 C        3.067    -0.018    28.392     8.737
    44   6 C        2.912    -0.035    28.863     8.810
    45   6 C        2.919    -0.042    29.051     8.839
    46   6 C        2.924    -0.035    28.865     8.811
    47   6 C        2.910    -0.052    29.286     8.874
    48   6 C        3.073     0.047    26.866     8.499
    49   6 C        2.925    -0.057    29.422     8.895
    50   6 C        3.056    -0.000    27.981     8.675
    51   6 C        2.922    -0.041    29.018     8.834
    52   6 C        2.974     0.005    27.910     8.666
    53   6 C        3.903     0.025    20.094     6.372
    54   6 C        3.761    -0.106    22.581     6.774
    55   6 C        3.761    -0.103    22.517     6.765
    56   6 C        3.761    -0.103    22.516     6.764
    57   6 C        2.925    -0.045    29.120     8.849
    58   6 C        2.914    -0.040    28.983     8.828
    59   6 C        3.034    -0.006    28.135     8.700
    60   1 H        0.925     0.036     2.506     2.476
    61   1 H        0.925     0.039     2.466     2.456
    62   1 H        0.925     0.032     2.564     2.504
    63   1 H        0.925     0.038     2.469     2.457
    64   1 H        0.925     0.036     2.502     2.474
    65   1 H        0.925     0.032     2.558     2.501
    66   1 H        0.925     0.036     2.507     2.476
    67   1 H        0.925     0.038     2.482     2.464
    68   1 H        0.925     0.035     2.510     2.478
    69   1 H        0.926     0.036     2.501     2.473
    70   1 H        0.926     0.026     2.642     2.542
    71   1 H        0.926     0.028     2.608     2.525
    72   1 H        0.926     0.028     2.611     2.527
    73   1 H        0.926     0.029     2.598     2.520
    74   1 H        0.926     0.029     2.594     2.519
    75   1 H        0.926     0.030     2.592     2.517
    76   1 H        0.926     0.029     2.603     2.523
    77   1 H        0.926     0.031     2.578     2.511
    78   1 H        0.926     0.029     2.595     2.519
    79   1 H        0.926     0.030     2.584     2.514
    80   1 H        0.926     0.030     2.591     2.517
    81   1 H        0.926     0.028     2.613     2.528
    82   1 H        0.926     0.031     2.579     2.511
    83   1 H        0.926     0.031     2.577     2.510
    84   1 H        0.926     0.048     2.343     2.394
    85   1 H        0.926     0.048     2.340     2.392
    86   1 H        0.926     0.048     2.346     2.395
    87   1 H        0.926     0.031     2.573     2.509
    88   1 H        0.926     0.031     2.575     2.509
    89   1 H        0.926     0.028     2.610     2.526
    90   1 H        0.926     0.031     2.578     2.511
    91   1 H        0.926     0.031     2.574     2.509
    92   1 H        0.926     0.028     2.610     2.526
    93   1 H        0.926     0.030     2.582     2.513
    94   1 H        0.926     0.029     2.597     2.520
    95   1 H        0.926     0.050     2.326     2.385
    96   1 H        0.926     0.028     2.608     2.526
    97   1 H        0.925     0.037     2.484     2.464
    98   1 H        0.925     0.036     2.506     2.476
    99   1 H        0.925     0.035     2.511     2.478
   100   1 H        0.925     0.038     2.470     2.458
   101   1 H        0.925     0.036     2.507     2.476
   102   1 H        0.925     0.031     2.568     2.506
   103   1 H        0.925     0.036     2.505     2.475
   104   1 H        0.925     0.038     2.470     2.458
   105   1 H        0.925     0.032     2.557     2.501
   106   1 H        0.926     0.036     2.504     2.474
   107   1 H        0.926     0.026     2.644     2.543

molecular dipole:
                 x           y           z       tot (Debye)
 q only:        0.345       0.101       0.636
   full:        0.359       0.110       0.652       1.913

 projected vibrational frequencies (cm⁻¹)
eigval :       -0.00    -0.00    -0.00    -0.00    -0.00     0.00
eigval :        3.91     8.92    16.21    18.72    20.99    24.33
eigval :       27.22    32.56    35.23    40.01    51.07    55.97
eigval :       59.06    65.41    77.12    80.19    80.63   102.77
eigval :      106.57   116.77   125.89   134.77   142.83   144.86
eigval :      155.11   172.68   181.88   183.85   190.64   200.31
eigval :      206.00   218.63   219.61   224.31   231.97   238.03
eigval :      243.83   257.81   261.11   272.97   275.19   283.69
eigval :      293.26   297.47   306.80   317.51   319.95   324.85
eigval :      331.57   332.64   340.89   352.13   358.55   363.27
eigval :      374.30   381.85   384.32   396.44   398.52   416.08
eigval :      420.03   423.75   428.88   430.87   435.40   439.39
eigval :      446.89   449.62   457.49   464.10   477.46   484.85
eigval :      514.18   519.77   529.23   533.47   534.65   541.00
eigval :      542.38   542.71   570.69   573.11   585.32   589.46
eigval :      589.75   604.06   608.04   612.75   621.01   630.40
eigval :      633.33   644.01   649.95   668.34   671.83   676.01
eigval :      678.91   687.54   696.10   708.35   709.97   712.86
eigval :      720.21   728.88   749.22   757.61   761.61   768.10
eigval :      775.34   779.44   779.84   804.12   809.54   818.26
eigval :      825.62   829.12   866.45   869.47   870.13   872.84
eigval :      873.02   882.99   886.06   887.89   890.57   894.11
eigval :      895.75   898.41   899.35   901.98   902.68   905.10
eigval :      906.39   907.82   909.22   911.45   919.00   921.36
eigval :      922.48   924.17   927.59   930.89   932.35   934.99
eigval :      958.34   959.54   960.82   962.12   963.26   965.04
eigval :      965.38   974.64   996.09   997.60  1008.11  1013.65
eigval :     1017.23  1032.06  1034.92  1035.18  1035.53  1037.21
eigval :     1068.85  1069.95  1072.20  1086.84  1108.62  1113.88
eigval :     1120.06  1124.32  1126.38  1128.19  1138.14  1150.48
eigval :     1154.91  1167.50  1175.29  1176.39  1177.99  1179.13
eigval :     1179.89  1181.97  1186.89  1194.67  1198.40  1204.36
eigval :     1210.19  1223.97  1224.90  1229.29  1232.29  1233.35
eigval :     1234.74  1234.94  1236.38  1244.37  1248.98  1252.94
eigval :     1256.02  1282.93  1284.45  1286.62  1287.63  1298.35
eigval :     1298.89  1300.18  1306.31  1315.64  1317.52  1327.92
eigval :     1342.48  1351.53  1355.89  1358.14  1361.25  1373.89
eigval :     1374.62  1400.26  1401.19  1402.76  1404.56  1414.63
eigval :     1416.85  1420.13  1423.40  1426.14  1427.18  1427.86
eigval :     1429.88  1434.15  1451.96  1459.03  1470.20  1472.80
eigval :     1473.75  1474.74  1476.65  1483.92  1486.65  1489.00
eigval :     1489.39  1492.09  1493.18  1499.23  1499.61  1502.54
eigval :     1503.31  1510.92  1511.55  1516.85  1517.55  1567.22
eigval :     1570.81  1575.05  1577.20  1581.67  1584.72  1586.84
eigval :     1587.61  1593.36  1597.26  1598.27  1598.91  1605.56
eigval :     1610.61  1612.68  1614.85  3017.98  3018.39  3018.93
eigval :     3019.49  3022.00  3022.86  3023.39  3024.19  3026.17
eigval :     3026.62  3029.95  3030.12  3034.78  3035.15  3042.70
eigval :     3043.44  3046.21  3046.76  3064.50  3067.22  3069.43
eigval :     3071.20  3071.45  3071.77  3071.89  3075.22  3076.25
eigval :     3076.52  3077.58  3080.24  3080.71  3082.53  3083.89
eigval :     3084.39  3085.18  3085.86  3087.76  3088.98  3090.38
eigval :     3091.05  3091.79  3093.62  3093.69  3098.01  3100.01
eigval :     3103.88  3109.78  3110.74

   temp. (K)  partition function   enthalpy   heat capacity  entropy
                                   cal/mol     cal/K/mol   cal/K/mol   J/K/mol
 298.15  VIB  0.599E+24            29996.624    188.455    186.487
         ROT  0.144E+09              888.752      2.981     40.315
         INT  0.864E+32            30885.377    191.436    226.802
         TR   0.203E+29             1481.254      4.968     45.747
         TOT                       32366.6305   196.4040   272.5487  1140.3439

       T/K    H(0)-H(T)+PV         H(T)/Eh          T*S/Eh         G(T)/Eh
   ------------------------------------------------------------------------
    298.15    0.515795E-01    0.915664E+00    0.129497E+00    0.786167E+00
   ------------------------------------------------------------------------

         :::::::::::::::::::::::::::::::::::::::::::::::::::::
         ::                  THERMODYNAMIC                  ::
         :::::::::::::::::::::::::::::::::::::::::::::::::::::
         :: total free energy        -151.775995722876 Eh   ::
         ::.................................................::
         :: total energy             -152.562162993732 Eh   ::
         :: zero point energy           0.864084456151 Eh   ::
         :: G(RRHO) w/o ZPVE           -0.077917185296 Eh   ::
         :: G(RRHO) contrib.            0.786167270856 Eh   ::
         :::::::::::::::::::::::::::::::::::::::::::::::::::::

           -------------------------------------------------
          | TOTAL ENERGY             -152.562162993732 Eh   |
          | TOTAL ENTHALPY           -151.646499028659 Eh   |
          | TOTAL FREE ENERGY        -151.775995722876 Eh   |
          | GRADIENT NORM               0.000039430876 Eh/α |
          | HOMO-LUMO GAP               3.074237806960 eV   |
           -------------------------------------------------

 * finished run on 2025/08/24 at 22:52:28.618
