   * xtb version 6.7.1 (edcfbbe) compiled by 'albert@albert-system' on 2024-07-22

   ID    Z sym.   atoms
    1    8 O      1, 28
    2    6 C      2-6, 8-27, 29-32, 34-48
    3    7 N      7, 33
    4    1 H      49-80

          program call               : xtb data2507/gas/m-DTPACO/m-DTPACO.xyz --gfn 2 --ohess vtight --parallel 40 --molden --ceasefiles --namespace data2507/gas/m-DTPACO/m-DTPACO_gas_S0_preOpt
          :  Hamiltonian                  GFN2-xTB          :
 * total energy  :  -124.4611694 Eh     change       -0.4653401E-08 Eh
 * total energy  :  -124.4757369 Eh     change       -0.1456751E-01 Eh
 * total energy  :  -124.4817665 Eh     change       -0.6029635E-02 Eh
 * total energy  :  -124.4836835 Eh     change       -0.1917013E-02 Eh
 * total energy  :  -124.4849105 Eh     change       -0.1227039E-02 Eh
 * total energy  :  -124.4854986 Eh     change       -0.5880563E-03 Eh
 * total energy  :  -124.4858455 Eh     change       -0.3468730E-03 Eh
 * total energy  :  -124.4861270 Eh     change       -0.2815637E-03 Eh
 * total energy  :  -124.4863578 Eh     change       -0.2307548E-03 Eh
 * total energy  :  -124.4865199 Eh     change       -0.1620618E-03 Eh
 * total energy  :  -124.4870145 Eh     change       -0.2277949E-06 Eh
 * total energy  :  -124.4870147 Eh     change       -0.1262884E-06 Eh
 * total energy  :  -124.4870148 Eh     change       -0.1338970E-06 Eh
 * total energy  :  -124.4870151 Eh     change       -0.2434421E-06 Eh
 * total energy  :  -124.4870155 Eh     change       -0.4053722E-06 Eh
 * total energy  :  -124.4870159 Eh     change       -0.4550524E-06 Eh
 * total energy  :  -124.4870163 Eh     change       -0.3441292E-06 Eh
 * total energy  :  -124.4870166 Eh     change       -0.3257849E-06 Eh
 * total energy  :  -124.4870166 Eh     change       -0.3065963E-08 Eh
   *** GEOMETRY OPTIMIZATION CONVERGED AFTER 94 ITERATIONS ***

 final structure:
================
80
 xtb: 6.7.1 (edcfbbe)
O            1.99972359331143       -2.54527111646235       -1.85947788965752
C            2.21127267023390       -1.58691680747591       -1.14096529685880
C            3.57628559250103       -1.12369435823730       -0.82928774923560
C            3.87633848832576       -0.37232644847904        0.30894849508630
C            5.17135831162207        0.01227118436182        0.57277925109450
C            6.21194082237569       -0.33529984041089       -0.29634076419330
N            7.51516957410786        0.06165467566811       -0.03274036431496
C            7.77296486500826        1.27357947706336        0.62532364072157
C            7.01980780949618        2.41036168565224        0.33564022145925
C            7.28306911407544        3.60160978051482        0.98372910531118
C            8.30187007210585        3.68096886753444        1.91898067240651
C            9.05747303952392        2.55562284818562        2.20445865444156
C            8.79670336896658        1.35776391657286        1.56745891706670
C            8.59699220901173       -0.74827282624956       -0.41450815327109
C            9.75896417863209       -0.17180560473501       -0.92387357245162
C           10.82735095456001       -0.96903698102982       -1.28714100388128
C           10.75135548957725       -2.34582899077694       -1.15517744528437
C            9.59748019783473       -2.92258709224360       -0.65019959009281
C            8.52681719785037       -2.13344057728812       -0.27661653145654
C            5.91336534337953       -1.09864437405332       -1.43114765450368
C            4.62031887846171       -1.49162186860679       -1.68217512876070
C            1.08615162383491       -0.81728064624638       -0.53645322723271
C            1.07665626359915        0.57548952418067       -0.53684246916341
C           -0.00172772413251        1.26131061852840       -0.00577919644174
C           -1.07847706645637        0.57099612928139        0.52273486561668
C           -1.08464546589174       -0.82178435889261        0.51715310496305
C           -2.20782264923814       -1.59621791876770        1.11893212778294
O           -1.99428300839340       -2.55911812511174        1.83073541618122
C           -3.57384039074272       -1.13174920800827        0.81328488754689
C           -4.61480890645094       -1.50103926197023        1.66924342655233
C           -5.90858250466172       -1.10698897290037        1.42371083082899
C           -6.21114508502107       -0.34179048926220        0.29122269123744
N           -7.51552223689045        0.05511182468954        0.03270036160431
C           -7.77629353981865        1.26940962963307       -0.61969549867449
C           -8.80500965450110        1.35737785954450       -1.55607398850839
C           -9.06923822525214        2.55777834399637       -2.18683247639981
C           -8.31210226196451        3.68200339392537       -1.90098166269127
C           -7.28807912715180        3.59880812833500       -0.97179684929216
C           -7.02137254043343        2.40500215634206       -0.32984912958837
C           -8.59512664383000       -0.75621865295959        0.41767833274494
C           -9.75581826993750       -0.18189574063424        0.93235190814500
C          -10.82118312314035       -0.98107396025149        1.30022107310439
C          -10.74338742642784       -2.35771694339243        1.16784228626407
C           -9.59096853740817       -2.93233713300578        0.65713860465275
C           -8.52351127070699       -2.14122989386824        0.27864144149685
C           -5.17362651347932        0.00738716059647       -0.58086374131472
C           -3.87769985627918       -0.37783651524539       -0.32223344933863
C            0.00156720942640       -1.50819830518684       -0.01095350709581
H            3.09482465126077       -0.11861277668071        1.00979154741078
H            5.39569045079149        0.57540024858048        1.46672064278024
H            6.23351748336824        2.35280934019590       -0.40285463720872
H            6.69424487239016        4.47622516844243        0.74963440197498
H            8.50647145587276        4.61425368609765        2.42099748262244
H            9.85147499433322        2.60807125219555        2.93454603989056
H            9.38156054318027        0.47893771920010        1.79611122425079
H            9.81581027030084        0.90136835866888       -1.03342127707632
H           11.72208301983511       -0.51184495202684       -1.68302873761973
H           11.58673797634022       -2.96563663380645       -1.44305609812676
H            9.53265595501516       -3.99459966901535       -0.53767533880608
H            7.63191387753634       -2.58328519789435        0.12766975728007
H            6.70642241926612       -1.37087643264453       -2.11161678448682
H            4.38412646225764       -2.07931079856329       -2.55668513697912
H            1.90644816952522        1.11775261446692       -0.96662578446990
H           -0.00299871220293        2.34155991512421       -0.00375222665223
H           -1.90952037725930        1.10969111868537        0.95457702430873
H           -4.37572512846039       -2.09053066419240        2.54174739122757
H           -6.69916838274191       -1.38007210098127        2.10669844661950
H           -9.39117418059913        0.47951297182250       -1.78506435326711
H           -9.86728459944143        2.61317778165309       -2.91228228042361
H           -8.51954218569939        4.61734238413745       -2.39799143055027
H           -6.69785634739689        4.47243144259112       -0.73750985503549
H           -6.23107766638684        2.34460941557227        0.40412767926230
H           -9.81405230553019        0.89112123261956        1.04265874112914
H          -11.71487031406055       -0.52548511290829        1.70028978895219
H          -11.57619210574567       -2.97904883735121        1.45986212923487
H           -9.52471381883273       -4.00421524707102        0.54417759355878
H           -7.62980263268720       -2.58948993714240       -0.13001567098378
H           -5.40102858966420        0.57229624174260       -1.47290921264125
H           -3.09850052908290       -0.12277338290363       -1.02517245422930
H            0.00280143490268       -2.58806434149012       -0.01285058854743

          :  Hamiltonian                  GFN2-xTB          :
         :: gradient norm              0.000039810457 Eh/a0 ::
         :: HOMO-LUMO gap              2.083276066113 eV    ::
         :: SCC energy              -126.738417274436 Eh    ::
         :: -> dispersion             -0.105696747277 Eh    ::
         :: repulsion energy           2.251400689724 Eh    ::

    * Orbital Energies and Occupations

         #    Occupation            Energy/Eh            Energy/eV
      -------------------------------------------------------------
         1        2.0000           -0.6951604             -18.9163
       ...           ...                  ...                  ...
       103        2.0000           -0.4149670             -11.2918
       104        2.0000           -0.4146994             -11.2845
       105        2.0000           -0.4144090             -11.2766
       106        2.0000           -0.4140979             -11.2682
       107        2.0000           -0.4124950             -11.2246
       108        2.0000           -0.4116651             -11.2020
       109        2.0000           -0.4116082             -11.2004
       110        2.0000           -0.4107205             -11.1763
       111        2.0000           -0.4106557             -11.1745
       112        2.0000           -0.3876255             -10.5478
       113        2.0000           -0.3779820             -10.2854
       114        2.0000           -0.3593288              -9.7778
       115        2.0000           -0.3591757              -9.7737 (HOMO)
       116                         -0.2826167              -7.6904 (LUMO)
       117                         -0.2768627              -7.5338
       118                         -0.2395721              -6.5191
       119                         -0.2375308              -6.4635
       120                         -0.2373487              -6.4586
       121                         -0.2361911              -6.4271
       122                         -0.2341607              -6.3718
       123                         -0.2340984              -6.3701
       124                         -0.2288605              -6.2276
       125                         -0.2287656              -6.2250
       126                         -0.2281678              -6.2088
       ...                                ...                  ...
       224                          0.6849228              18.6377
      -------------------------------------------------------------
                  HL-Gap            0.0765590 Eh            2.0833 eV

     #   Z          covCN         q      C6AA      α(0)
     1   8 O        0.858    -0.375    21.182     6.171
     2   6 C        2.828     0.225    23.280     7.906
     3   6 C        2.971    -0.024    28.591     8.771
     4   6 C        2.919    -0.027    28.679     8.782
     5   6 C        2.920    -0.049    29.219     8.864
     6   6 C        2.923     0.072    26.398     8.426
     7   7 N        2.753    -0.069    22.568     7.056
     8   6 C        2.925     0.064    26.556     8.451
     9   6 C        2.922    -0.046    29.144     8.853
    10   6 C        2.920    -0.029    28.715     8.787
    11   6 C        2.919    -0.036    28.902     8.816
    12   6 C        2.920    -0.028    28.705     8.786
    13   6 C        2.922    -0.046    29.131     8.851
    14   6 C        2.926     0.064    26.564     8.452
    15   6 C        2.922    -0.046    29.131     8.851
    16   6 C        2.920    -0.028    28.709     8.787
    17   6 C        2.919    -0.036    28.888     8.814
    18   6 C        2.920    -0.028    28.698     8.785
    19   6 C        2.922    -0.045    29.124     8.850
    20   6 C        2.919    -0.049    29.213     8.863
    21   6 C        2.924    -0.018    28.462     8.749
    22   6 C        2.971    -0.008    28.205     8.711
    23   6 C        2.922    -0.025    28.637     8.776
    24   6 C        2.917    -0.028    28.706     8.786
    25   6 C        2.921    -0.025    28.638     8.776
    26   6 C        2.971    -0.008    28.206     8.711
    27   6 C        2.828     0.225    23.280     7.906
    28   8 O        0.858    -0.375    21.181     6.171
    29   6 C        2.971    -0.024    28.590     8.771
    30   6 C        2.924    -0.018    28.463     8.749
    31   6 C        2.919    -0.049    29.213     8.863
    32   6 C        2.923     0.072    26.398     8.426
    33   7 N        2.753    -0.069    22.568     7.056
    34   6 C        2.925     0.064    26.556     8.451
    35   6 C        2.922    -0.046    29.131     8.851
    36   6 C        2.920    -0.028    28.705     8.786
    37   6 C        2.919    -0.036    28.903     8.816
    38   6 C        2.920    -0.029    28.715     8.788
    39   6 C        2.922    -0.046    29.145     8.853
    40   6 C        2.926     0.064    26.564     8.452
    41   6 C        2.922    -0.046    29.131     8.851
    42   6 C        2.920    -0.028    28.709     8.787
    43   6 C        2.919    -0.036    28.888     8.814
    44   6 C        2.920    -0.028    28.699     8.785
    45   6 C        2.922    -0.045    29.124     8.850
    46   6 C        2.920    -0.049    29.218     8.864
    47   6 C        2.919    -0.027    28.679     8.782
    48   6 C        2.928    -0.010    28.277     8.721
    49   1 H        0.926     0.039     2.468     2.457
    50   1 H        0.926     0.037     2.495     2.470
    51   1 H        0.926     0.033     2.547     2.496
    52   1 H        0.926     0.034     2.530     2.487
    53   1 H        0.926     0.033     2.539     2.492
    54   1 H        0.926     0.035     2.521     2.483
    55   1 H        0.926     0.034     2.530     2.487
    56   1 H        0.926     0.033     2.543     2.494
    57   1 H        0.926     0.034     2.524     2.485
    58   1 H        0.926     0.034     2.530     2.487
    59   1 H        0.926     0.036     2.499     2.472
    60   1 H        0.926     0.036     2.503     2.474
    61   1 H        0.926     0.039     2.464     2.454
    62   1 H        0.926     0.059     2.213     2.326
    63   1 H        0.926     0.038     2.476     2.461
    64   1 H        0.926     0.038     2.474     2.460
    65   1 H        0.926     0.038     2.476     2.461
    66   1 H        0.926     0.059     2.214     2.327
    67   1 H        0.926     0.039     2.463     2.454
    68   1 H        0.926     0.034     2.530     2.487
    69   1 H        0.926     0.035     2.521     2.483
    70   1 H        0.926     0.033     2.539     2.492
    71   1 H        0.926     0.034     2.531     2.488
    72   1 H        0.926     0.033     2.547     2.496
    73   1 H        0.926     0.033     2.543     2.494
    74   1 H        0.926     0.034     2.525     2.485
    75   1 H        0.926     0.034     2.530     2.487
    76   1 H        0.926     0.036     2.499     2.472
    77   1 H        0.926     0.036     2.503     2.474
    78   1 H        0.926     0.037     2.494     2.470
    79   1 H        0.926     0.039     2.468     2.457
    80   1 H        0.926     0.065     2.141     2.288

molecular dipole:
                 x           y           z       tot (Debye)
 q only:        0.004       1.987       0.010
   full:        0.003       2.263       0.011       5.752

 projected vibrational frequencies (cm⁻¹)
eigval :       -0.00    -0.00     0.00     0.00     0.00     0.00
eigval :        6.14     7.01     9.57    19.35    22.54    31.67
eigval :       39.86    41.10    43.37    49.82    53.68    60.40
eigval :       63.85    70.40    74.74    85.88    99.57   109.11
eigval :      110.89   118.48   119.47   154.61   173.98   189.45
eigval :      198.46   218.23   222.91   234.39   236.50   241.29
eigval :      269.42   284.90   297.19   311.06   316.52   324.24
eigval :      350.07   351.06   360.86   366.15   378.03   378.07
eigval :      379.68   380.49   388.80   389.56   401.22   402.54
eigval :      427.48   447.67   474.86   475.45   490.46   499.53
eigval :      499.58   506.12   537.63   567.68   582.67   584.95
eigval :      586.23   586.31   593.01   594.18   606.23   607.53
eigval :      615.50   619.37   647.27   658.01   661.07   661.73
eigval :      666.08   668.74   676.00   681.54   696.52   719.09
eigval :      725.52   735.39   758.07   758.31   758.66   761.67
eigval :      774.32   811.64   824.39   826.14   869.68   870.20
eigval :      875.54   875.55   876.61   876.65   886.16   891.51
eigval :      894.64   895.24   896.04   896.89   910.03   910.05
eigval :      910.59   917.65   922.21   923.60   927.46   928.31
eigval :      928.51   928.72   929.57   929.60   930.08   930.78
eigval :      931.58   932.89   935.37   937.67   980.79   985.22
eigval :      997.15  1002.20  1005.61  1005.74  1024.75  1037.65
eigval :     1082.57  1082.61  1083.69  1083.72  1121.39  1121.42
eigval :     1123.20  1123.24  1130.38  1140.64  1141.62  1146.24
eigval :     1180.44  1180.45  1180.59  1180.60  1183.72  1185.03
eigval :     1186.57  1187.56  1193.17  1194.63  1194.69  1203.32
eigval :     1211.30  1221.82  1246.95  1259.55  1267.75  1267.79
eigval :     1277.74  1277.76  1278.51  1281.47  1282.63  1310.55
eigval :     1310.83  1317.29  1317.78  1318.28  1325.78  1325.85
eigval :     1331.50  1333.67  1336.05  1336.78  1416.57  1416.78
eigval :     1417.13  1436.30  1436.30  1441.73  1441.77  1454.25
eigval :     1469.09  1469.34  1474.29  1474.34  1483.09  1483.28
eigval :     1548.95  1549.11  1572.66  1578.47  1578.54  1579.20
eigval :     1581.33  1581.64  1584.12  1584.92  1594.01  1594.05
eigval :     1599.41  1599.42  1684.89  1689.26  3073.70  3077.54
eigval :     3077.59  3078.35  3078.38  3079.55  3079.57  3080.05
eigval :     3080.40  3080.42  3081.26  3082.05  3086.38  3086.44
eigval :     3087.31  3087.33  3088.14  3088.17  3089.55  3090.85
eigval :     3090.85  3091.85  3091.88  3092.92  3092.98  3097.68
eigval :     3098.08  3098.13  3099.31  3099.34  3099.92  3099.96

   temp. (K)  partition function   enthalpy   heat capacity  entropy
                                   cal/mol     cal/K/mol   cal/K/mol   J/K/mol
 298.15  VIB  0.116E+21            23495.701    143.797    150.218
         ROT  0.660E+08              888.752      2.981     38.761
         INT  0.762E+28            24384.453    146.778    188.979
         TR   0.150E+29             1481.254      4.968     45.140
         TOT                       25865.7071   151.7458   234.1186   979.5523

       T/K    H(0)-H(T)+PV         H(T)/Eh          T*S/Eh         G(T)/Eh
   ------------------------------------------------------------------------
    298.15    0.412196E-01    0.658163E+00    0.111237E+00    0.546926E+00
   ------------------------------------------------------------------------

         :::::::::::::::::::::::::::::::::::::::::::::::::::::
         ::                  THERMODYNAMIC                  ::
         :::::::::::::::::::::::::::::::::::::::::::::::::::::
         :: total free energy        -123.940090566252 Eh   ::
         ::.................................................::
         :: total energy             -124.487016584714 Eh   ::
         :: zero point energy           0.616943705125 Eh   ::
         :: G(RRHO) w/o ZPVE           -0.070017686664 Eh   ::
         :: G(RRHO) contrib.            0.546926018462 Eh   ::
         :::::::::::::::::::::::::::::::::::::::::::::::::::::

           -------------------------------------------------
          | TOTAL ENERGY             -124.487016584714 Eh   |
          | TOTAL ENTHALPY           -123.828853251597 Eh   |
          | TOTAL FREE ENERGY        -123.940090566252 Eh   |
          | GRADIENT NORM               0.000039806423 Eh/α |
          | HOMO-LUMO GAP               2.083276454207 eV   |
           -------------------------------------------------

 * finished run on 2025/08/22 at 18:21:37.286
