   * xtb version 6.7.1 (edcfbbe) compiled by 'albert@albert-system' on 2024-07-22

   ID    Z sym.   atoms
    1    8 O      1, 28
    2    6 C      2-6, 8-27, 29-32, 34-48
    3    7 N      7, 33
    4    1 H      49-80

          program call               : xtb data2507/gas/m-DTPACO/m-DTPACO_gas_T1_crest.xyz --gfn 2 --spinpol --tblite --uhf 2 --ohess vtight --parallel 40 --molden --ceasefiles --namespace data2507/gas/m-DTPACO/m-DTPACO_gas_T1_finalOpt
 * total energy  :  -124.4141970 Eh     change        0.2691536E-09 Eh
 * total energy  :  -124.4144259 Eh     change       -0.2289128E-03 Eh
 * total energy  :  -124.4145623 Eh     change       -0.1363607E-03 Eh
 * total energy  :  -124.4145838 Eh     change       -0.2148873E-04 Eh
 * total energy  :  -124.4146203 Eh     change       -0.3651281E-04 Eh
 * total energy  :  -124.4146370 Eh     change       -0.1670340E-04 Eh
 * total energy  :  -124.4146600 Eh     change       -0.2305532E-04 Eh
 * total energy  :  -124.4146714 Eh     change       -0.1135828E-04 Eh
 * total energy  :  -124.4146817 Eh     change       -0.1031968E-04 Eh
 * total energy  :  -124.4146879 Eh     change       -0.6141900E-05 Eh
 * total energy  :  -124.4147081 Eh     change       -0.2726686E-06 Eh
 * total energy  :  -124.4147086 Eh     change       -0.4444665E-06 Eh
 * total energy  :  -124.4147087 Eh     change       -0.1238308E-06 Eh
 * total energy  :  -124.4147090 Eh     change       -0.2712096E-06 Eh
 * total energy  :  -124.4147092 Eh     change       -0.2110255E-06 Eh
 * total energy  :  -124.4147093 Eh     change       -0.1403232E-06 Eh
 * total energy  :  -124.4147095 Eh     change       -0.1896938E-06 Eh
 * total energy  :  -124.4147095 Eh     change       -0.2647688E-07 Eh
 * total energy  :  -124.4147096 Eh     change       -0.3100780E-07 Eh
   *** GEOMETRY OPTIMIZATION CONVERGED AFTER 30 ITERATIONS ***

 final structure:
================
80
 xtb: 6.7.1 (edcfbbe)
O           -4.27121644922706       -3.55837388440367        1.71666837069888
C           -3.77076268007883       -2.48952271443663        1.26417853280714
C           -2.33252057703084       -2.35012379019728        1.16343343677703
C           -1.54797518897190       -3.52286810812059        1.07922387432490
C           -0.19162076170311       -3.45506620638065        0.91151653530846
C            0.46055256786380       -2.21234757823068        0.85447159138466
N            1.84155041209202       -2.14810861153136        0.61989753595510
C            2.63165213751100       -1.24993094379318        1.33050737975762
C            2.30643820531508       -0.91148811431468        2.64785454792526
C            3.10334232802705       -0.03697316790752        3.35835579475114
C            4.23420931511975        0.51561910071573        2.77668610944100
C            4.55218918294088        0.19863669214018        1.46376315229224
C            3.76081824085077       -0.67120494896633        0.74168679458624
C            2.40671472525078       -3.01700091738390       -0.31113728660167
C            1.67969523675884       -3.40693111407378       -1.44057683132556
C            2.23215349945642       -4.27695006070026       -2.35826576819425
C            3.51310599166945       -4.77412034368237       -2.17288855339470
C            4.23588471475693       -4.39914304677739       -1.05066791284523
C            3.69222866961131       -3.53310348917251       -0.12391177454481
C           -0.29538987754026       -1.04611211585126        1.04385659318199
C           -1.65612383813912       -1.11201256112764        1.20580007668703
C           -4.64796727534288       -1.41671695388937        0.80573293022733
C           -5.98905068691503       -1.38910259414122        1.23581518994259
C           -6.85710637346679       -0.42907659202362        0.76152404574469
C           -6.42902062991791        0.53053224991778       -0.14328749174366
C           -5.10239503111182        0.51447494663227       -0.58258089074858
C           -4.60996210385610        1.52396370318022       -1.55004873814521
O           -5.30029897556445        2.02343448758995       -2.41420594226018
C           -3.17273510071276        1.86580652206620       -1.35452711858520
C           -2.68791189073472        2.11204518658419       -0.07054785790319
C           -1.34707954862070        2.34451776341589        0.14009079026027
C           -0.45109830544441        2.31067567489730       -0.93106039299905
N            0.91613503566549        2.48187683558147       -0.69625213011888
C            1.86182926308037        1.73883798202440       -1.40348541397717
C            3.11929965356611        2.27927343239525       -1.67985458243220
C            4.05542793719235        1.54469018900941       -2.37961192235545
C            3.75471197025130        0.26840661040526       -2.82777437212383
C            2.50680370402806       -0.27181781235228       -2.56111176316654
C            1.56896081082416        0.44742894113520       -1.84685007356720
C            1.32352989919467        3.39574095531299        0.28666544439585
C            2.36806572040185        3.08283939100967        1.15437989114750
C            2.75807766382404        3.98734602269137        2.12265266308082
C            2.11421675040775        5.20812949395013        2.24280068577232
C            1.07240323669214        5.52095287172578        1.38399964732732
C            0.67662114744891        4.62528542509555        0.41004613245155
C           -0.94143424569217        2.10698655768468       -2.22229246682118
C           -2.29014870309928        1.90177146574557       -2.42983239985212
C           -4.23222968043931       -0.46875022294765       -0.13124534133768
H           -2.05082226214055       -4.47618508240187        1.12605396223763
H            0.39291212145483       -4.36017644806615        0.82947178843869
H            1.44015396332973       -1.35964460312669        3.11080386072394
H            2.84710988356271        0.20619795686933        4.37849713946228
H            4.86072720938075        1.19054027204263        3.33913242201760
H            5.41901145673671        0.63979494715337        0.99429903163929
H            4.00077158779333       -0.89688445665241       -0.28612580463258
H            0.68539634992168       -3.01397575706448       -1.59216038248748
H            1.66148582383044       -4.56436433001556       -3.22878059261605
H            3.94199608116898       -5.45293057081750       -2.89361011742407
H            5.22785647480516       -4.79429290396232       -0.89041249428310
H            4.24954012421955       -3.26521468571953        0.76140557855132
H            0.20446798801261       -0.08764451537652        1.05311314464569
H           -2.20882625284654       -0.20439155224765        1.38906623408797
H           -6.31892104233404       -2.13777832676393        1.93930323220599
H           -7.88322146379640       -0.42534385187733        1.09978971388527
H           -7.09794889564495        1.29021743454535       -0.51645510426511
H           -3.37265969965546        2.12076584621331        0.76488974596302
H           -0.97657337509243        2.52650898378408        1.13843037562005
H            3.35033087763325        3.28202243852415       -1.35258612325138
H            5.02252098871235        1.97747946771419       -2.58828889548728
H            4.48516778658646       -0.30182959760027       -3.38125241646741
H            2.26806266791273       -1.26821346893791       -2.90178747039597
H            0.60580025066707        0.01202989932956       -1.62486639642239
H            2.86190484376963        2.12678823107317        1.06915528472648
H            3.56472281758975        3.73076588772541        2.79270966271806
H            2.42100067136765        5.91163009054332        3.00147802028920
H            0.56865903259565        6.47212986207771        1.46845364737380
H           -0.13024394544485        4.87128341026417       -0.26447317158918
H           -0.25659803071755        2.11428984674165       -3.05751147502172
H           -2.67151647565954        1.74586478134308       -3.42775879150819
H           -3.24420700540509       -0.53404916921146       -0.56125222452776

 projected vibrational frequencies (cm⁻¹)
eigval :       -0.00    -0.00    -0.00    -0.00     0.00     0.00
eigval :       16.37    20.73    23.99    30.11    33.89    40.93
eigval :       49.58    52.04    57.16    59.08    64.14    67.49
eigval :       69.58    80.94    85.88    95.21   107.51   113.35
eigval :      126.13   128.69   142.30   168.71   183.87   189.05
eigval :      207.73   219.24   223.59   237.24   238.11   240.31
eigval :      250.91   272.80   297.18   310.00   313.59   325.34
eigval :      333.33   339.93   367.62   373.66   377.34   378.00
eigval :      381.08   388.08   388.67   394.07   398.93   408.54
eigval :      410.56   436.42   446.63   464.49   479.24   491.82
eigval :      501.04   502.96   520.88   533.43   565.70   581.82
eigval :      583.17   585.17   587.29   591.73   594.16   594.33
eigval :      606.48   607.60   617.55   641.51   651.72   656.30
eigval :      659.07   661.04   663.74   667.48   678.74   696.26
eigval :      721.05   725.60   755.92   757.69   759.97   761.73
eigval :      782.34   792.04   800.69   820.38   840.68   867.95
eigval :      868.31   869.43   872.83   874.51   875.24   875.50
eigval :      887.03   893.89   895.67   897.76   898.72   906.83
eigval :      909.49   909.71   910.61   918.02   919.11   925.24
eigval :      926.84   927.17   928.06   928.36   929.55   929.89
eigval :      930.72   932.91   933.43   941.01   967.65   980.06
eigval :      981.18   993.02   999.03  1004.63  1005.16  1025.44
eigval :     1079.87  1081.37  1082.00  1085.20  1113.62  1121.34
eigval :     1121.79  1125.06  1125.51  1131.56  1136.59  1148.50
eigval :     1156.94  1176.50  1177.27  1178.93  1179.21  1179.57
eigval :     1181.20  1183.98  1187.35  1191.84  1194.73  1197.60
eigval :     1206.65  1214.52  1225.11  1236.25  1256.51  1265.28
eigval :     1267.48  1275.15  1276.12  1277.86  1280.80  1301.57
eigval :     1305.73  1307.92  1315.84  1317.74  1319.37  1326.91
eigval :     1327.62  1328.41  1331.30  1336.81  1381.41  1402.38
eigval :     1405.89  1419.18  1428.53  1432.60  1434.80  1435.56
eigval :     1441.55  1442.39  1455.71  1459.74  1460.84  1465.77
eigval :     1468.60  1471.57  1507.63  1533.83  1551.42  1555.23
eigval :     1559.05  1564.39  1572.93  1575.46  1577.10  1580.60
eigval :     1584.86  1588.26  1595.16  1690.31  3071.50  3076.14
eigval :     3076.93  3078.25  3080.98  3082.10  3082.36  3082.69
eigval :     3082.86  3083.21  3084.29  3084.77  3085.46  3085.78
eigval :     3089.56  3089.77  3091.77  3092.83  3094.48  3094.69
eigval :     3095.02  3097.92  3099.41  3100.61  3100.68  3101.06
eigval :     3103.17  3103.26  3103.75  3104.15  3104.96  3105.30

   temp. (K)  partition function   enthalpy   heat capacity  entropy
                                   cal/mol     cal/K/mol   cal/K/mol   J/K/mol
 298.15  VIB  0.409E+18            23383.383    147.054    145.725
         ROT  0.576E+08              888.752      2.981     38.492
         INT  0.236E+26            24272.136    150.035    184.217
         TR   0.150E+29             1481.254      4.968     45.140
         TOT                       25753.3897   155.0032   229.3567   959.6286

       T/K    H(0)-H(T)+PV         H(T)/Eh          T*S/Eh         G(T)/Eh
   ------------------------------------------------------------------------
    298.15    0.410406E-01    0.655005E+00    0.108975E+00    0.546031E+00
   ------------------------------------------------------------------------

         :::::::::::::::::::::::::::::::::::::::::::::::::::::
         ::                  THERMODYNAMIC                  ::
         :::::::::::::::::::::::::::::::::::::::::::::::::::::
         :: total free energy        -123.868679068163 Eh   ::
         ::.................................................::
         :: total energy             -124.414709623649 Eh   ::
         :: zero point energy           0.613964709038 Eh   ::
         :: G(RRHO) w/o ZPVE           -0.067934153553 Eh   ::
         :: G(RRHO) contrib.            0.546030555485 Eh   ::
         :::::::::::::::::::::::::::::::::::::::::::::::::::::

           -------------------------------------------------
          | TOTAL ENERGY             -124.414709623649 Eh   |
          | TOTAL ENTHALPY           -123.759704275836 Eh   |
          | TOTAL FREE ENERGY        -123.868679068163 Eh   |
          | GRADIENT NORM               0.000143026594 Eh/α |
           -------------------------------------------------

 * finished run on 2025/08/22 at 18:36:21.637
