   * xtb version 6.7.1 (edcfbbe) compiled by 'albert@albert-system' on 2024-07-22

   ID    Z sym.   atoms
    1    8 O      1, 28
    2    6 C      2-6, 8-27, 29-32, 34-48
    3    7 N      7, 33
    4    1 H      49-80

          program call               : xtb data2507/gas/m-DTPACO/m-DTPACO_gas_S0_finalOpt.xtbopt.xyz --gfn 2 --spinpol --tblite --uhf 2 --ohess vtight --parallel 40 --molden --ceasefiles --namespace data2507/gas/m-DTPACO/m-DTPACO_gas_T1_preOpt
 * total energy  :  -124.4100345 Eh     change       -0.1980867E-07 Eh
 * total energy  :  -124.4124036 Eh     change       -0.2369097E-02 Eh
 * total energy  :  -124.4134216 Eh     change       -0.1017980E-02 Eh
 * total energy  :  -124.4136615 Eh     change       -0.2398293E-03 Eh
 * total energy  :  -124.4138999 Eh     change       -0.2384022E-03 Eh
 * total energy  :  -124.4140713 Eh     change       -0.1714240E-03 Eh
 * total energy  :  -124.4142594 Eh     change       -0.1881338E-03 Eh
 * total energy  :  -124.4143891 Eh     change       -0.1297121E-03 Eh
 * total energy  :  -124.4144604 Eh     change       -0.7132377E-04 Eh
 * total energy  :  -124.4145074 Eh     change       -0.4691496E-04 Eh
 * total energy  :  -124.4147084 Eh     change       -0.2656174E-06 Eh
 * total energy  :  -124.4147086 Eh     change       -0.1995096E-06 Eh
 * total energy  :  -124.4147088 Eh     change       -0.2026180E-06 Eh
 * total energy  :  -124.4147089 Eh     change       -0.1574064E-06 Eh
 * total energy  :  -124.4147091 Eh     change       -0.1902967E-06 Eh
 * total energy  :  -124.4147091 Eh     change        0.4519926E-07 Eh
 * total energy  :  -124.4147092 Eh     change       -0.1016108E-06 Eh
 * total energy  :  -124.4147093 Eh     change       -0.1206482E-06 Eh
 * total energy  :  -124.4147094 Eh     change       -0.6133894E-07 Eh
   *** GEOMETRY OPTIMIZATION CONVERGED AFTER 47 ITERATIONS ***

 final structure:
================
80
 xtb: 6.7.1 (edcfbbe)
O           -4.26459530969306       -3.59105500473385        1.65091603304724
C           -3.76578333282866       -2.51550408410186        1.21225520583397
C           -2.32740541410512       -2.36906680455439        1.12373625955149
C           -1.53698855382312       -3.53741876924134        1.03393664020157
C           -0.17979914456275       -3.46188700823043        0.87675249680291
C            0.46713765374001       -2.21574273654777        0.83668051741116
N            1.84930806545707       -2.14334220487068        0.61255967928542
C            2.63100083584376       -1.24820224319511        1.33595361454309
C            2.29524964939515       -0.92102938695103        2.65351613946047
C            3.08424307400268       -0.04953061217702        3.37643317286276
C            4.21744302872801        0.51114609206770        2.80716106292992
C            4.54589715552937        0.20532188490901        1.49416214484074
C            3.76257289489031       -0.66143679078333        0.75977741522461
C            2.42481606916783       -3.00264599271371       -0.32116711603943
C            1.70899052037422       -3.38364709891691       -1.46070239175062
C            2.27161386412853       -4.24440445179875       -2.38094293416346
C            3.55164470101427       -4.74106057751867       -2.18792152222909
C            4.26332651037370       -4.37484480237258       -1.05576416822781
C            3.70952700481488       -3.51790694932488       -0.12655219887045
C           -0.29541519806656       -1.05480172660119        1.03221070923433
C           -1.65692719679099       -1.12844521602801        1.18368436360509
C           -4.64417190344528       -1.44199896788168        0.75813439570018
C           -5.98850646745205       -1.42451485490522        1.17859280147000
C           -6.85738202542414       -0.46362131056372        0.70759450546208
C           -6.42692480028129        0.50690704815805       -0.18436667623638
C           -5.09705548435975        0.50113236339415       -0.61397727165785
C           -4.60230932545669        1.52267267770122       -1.56755196088624
O           -5.28864419622872        2.02766708909367       -2.43162700452523
C           -3.16825063063205        1.86935918155822       -1.35777684035883
C           -2.69410984508834        2.10438123851718       -0.06772981949215
C           -1.35599407001558        2.34091207073491        0.15533461016891
C           -0.45197588374951        2.32243354844986       -0.90941982952876
N            0.91268697991233        2.49730221471863       -0.66288378982734
C            1.86669294635731        1.76622107853553       -1.37152261825117
C            3.12288937802664        2.31604147150235       -1.63479656147481
C            4.06728249192013        1.59328914525555       -2.33574873252300
C            3.77627913814565        0.31975889871899       -2.79792596306269
C            2.52969804135578       -0.22971711300275       -2.54427154128961
C            1.58348857844413        0.47765768775615       -1.82917383050055
C            1.30928503362329        3.40242485795763        0.33237915314035
C            2.35026284164124        3.08536973683327        1.20289032996094
C            2.72994412376970        3.98121512441298        2.18322915593681
C            2.07919236161193        5.19737525300911        2.31278686680502
C            1.04090220598449        5.51428282088864        1.45122327805635
C            0.65542585815942        4.62730745391448        0.46525433990673
C           -0.93179860830803        2.13005931384559       -2.20634292998648
C           -2.27794669260658        1.92083116213192       -2.42607631031831
C           -4.22579272826616       -0.48271121082045       -0.16612380505730
H           -2.03576862712396       -4.49341711515416        1.06780964877652
H            0.40942752257328       -4.36351962319332        0.79016875903581
H            1.42722967651841       -1.37565186416782        3.10680949215822
H            2.82000781773587        0.18486068158772        4.39658934982182
H            4.83773428537703        1.18368993438531        3.37927614105990
H            5.41462893517902        0.65286233075170        1.03437185344127
H            4.01067048699853       -0.87855796649708       -0.26794552356971
H            0.71533937249947       -2.99120293593607       -1.61781956331101
H            1.70970728849483       -4.52499360077433       -3.25934418025781
H            3.98839886611397       -5.41280910969579       -2.91053747983891
H            5.25439037563977       -4.76986103390768       -0.88968203895893
H            4.25799977457944       -3.25668579024104        0.76625419193853
H            0.19996854275353       -0.09423017369362        1.05448600560929
H           -2.21516996386397       -0.22526854061670        1.37203443943904
H           -6.32003718025674       -2.18169256064078        1.87213138611727
H           -7.88594149390349       -0.46776816241264        1.03832717359038
H           -7.09643738048720        1.26736621482588       -0.55492270726268
H           -3.38507184741806        2.10116631713171        0.76262243387204
H           -0.99377375144381        2.51418140242507        1.15825379454851
H            3.34637660880102        3.31681261320549       -1.29641628042818
H            5.03324296091151        2.03330289770360       -2.53431913296605
H            4.51327691494505       -0.24116679550131       -3.35224892138209
H            2.29853152214925       -1.22411699331007       -2.89587688767132
H            0.62123729444619        0.03512063856349       -1.61758827526656
H            2.84947701942224        2.13281556686425        1.11020187701851
H            3.53394366988185        3.72143407337346        2.85522982946397
H            2.37792702401977        5.89411853418435        3.08085715902848
H            0.53183730087136        6.46194561548772        1.54298803222794
H           -0.14862806823021        4.87666151086182       -0.21138594393709
H           -0.24080861941069        2.14932577302470       -3.03628514301853
H           -2.65121846880131        1.77367497274280       -3.42838320384062
H           -3.23433845167079       -0.53926001399120       -0.58943110575847

 projected vibrational frequencies (cm⁻¹)
eigval :       -0.00    -0.00     0.00     0.00     0.00     0.00
eigval :       16.25    20.70    23.80    30.13    33.69    40.86
eigval :       49.66    52.12    57.21    59.24    64.33    67.48
eigval :       69.47    80.97    85.88    95.11   107.53   113.46
eigval :      126.12   128.85   142.36   168.69   184.09   189.24
eigval :      207.30   219.09   223.37   237.08   238.04   240.40
eigval :      250.62   272.55   297.27   309.98   313.08   325.31
eigval :      333.37   339.87   367.58   373.81   377.23   377.98
eigval :      381.05   387.99   388.56   394.24   398.77   408.15
eigval :      410.65   436.35   446.44   464.43   479.27   491.80
eigval :      500.99   502.85   520.63   533.44   565.79   581.76
eigval :      583.14   585.20   587.30   591.74   594.24   594.36
eigval :      606.46   607.61   617.56   641.49   651.75   656.32
eigval :      659.10   661.05   663.75   667.36   678.69   696.50
eigval :      721.15   725.60   755.96   757.73   759.86   761.71
eigval :      782.41   791.83   800.79   820.43   840.52   867.95
eigval :      868.42   869.46   872.69   874.18   875.24   875.65
eigval :      886.95   893.93   895.66   897.64   898.71   906.80
eigval :      909.51   909.70   910.58   917.96   919.15   925.29
eigval :      926.88   927.20   928.09   928.39   929.52   929.93
eigval :      930.66   932.74   933.52   941.16   967.58   980.13
eigval :      981.12   992.96   999.02  1004.60  1005.11  1025.37
eigval :     1079.67  1081.24  1081.94  1085.19  1113.59  1121.37
eigval :     1121.77  1125.04  1125.49  1131.69  1136.58  1148.73
eigval :     1156.88  1176.77  1177.41  1179.20  1179.22  1180.60
eigval :     1181.43  1184.14  1187.25  1191.81  1194.66  1197.56
eigval :     1206.74  1214.47  1225.29  1236.18  1256.39  1265.29
eigval :     1267.49  1275.17  1276.18  1277.89  1280.81  1301.75
eigval :     1306.15  1308.07  1315.86  1317.74  1319.34  1326.94
eigval :     1327.59  1328.38  1331.28  1336.77  1381.77  1402.17
eigval :     1406.02  1419.34  1428.47  1432.67  1434.73  1435.34
eigval :     1441.45  1442.21  1455.86  1459.41  1460.64  1465.56
eigval :     1468.55  1471.65  1507.50  1533.97  1551.42  1555.23
eigval :     1559.05  1564.40  1572.94  1575.46  1577.08  1580.62
eigval :     1584.78  1588.24  1595.16  1690.63  3071.55  3076.15
eigval :     3076.97  3078.28  3081.01  3082.18  3082.43  3082.77
eigval :     3082.85  3083.20  3084.41  3084.75  3085.46  3085.80
eigval :     3089.59  3089.84  3091.76  3092.82  3094.61  3094.77
eigval :     3095.11  3097.90  3099.31  3100.56  3100.69  3101.09
eigval :     3103.00  3103.19  3104.02  3104.31  3104.87  3105.45

   temp. (K)  partition function   enthalpy   heat capacity  entropy
                                   cal/mol     cal/K/mol   cal/K/mol   J/K/mol
 298.15  VIB  0.416E+18            23385.135    147.059    145.744
         ROT  0.576E+08              888.752      2.981     38.493
         INT  0.240E+26            24273.887    150.040    184.237
         TR   0.150E+29             1481.254      4.968     45.140
         TOT                       25755.1410   155.0085   229.3764   959.7107

       T/K    H(0)-H(T)+PV         H(T)/Eh          T*S/Eh         G(T)/Eh
   ------------------------------------------------------------------------
    298.15    0.410434E-01    0.655008E+00    0.108984E+00    0.546024E+00
   ------------------------------------------------------------------------

         :::::::::::::::::::::::::::::::::::::::::::::::::::::
         ::                  THERMODYNAMIC                  ::
         :::::::::::::::::::::::::::::::::::::::::::::::::::::
         :: total free energy        -123.868685179081 Eh   ::
         ::.................................................::
         :: total energy             -124.414709454517 Eh   ::
         :: zero point energy           0.613964960300 Eh   ::
         :: G(RRHO) w/o ZPVE           -0.067940684864 Eh   ::
         :: G(RRHO) contrib.            0.546024275436 Eh   ::
         :::::::::::::::::::::::::::::::::::::::::::::::::::::

           -------------------------------------------------
          | TOTAL ENERGY             -124.414709454517 Eh   |
          | TOTAL ENTHALPY           -123.759701064500 Eh   |
          | TOTAL FREE ENERGY        -123.868685179081 Eh   |
          | GRADIENT NORM               0.000114934575 Eh/α |
           -------------------------------------------------

 * finished run on 2025/08/22 at 18:27:24.216
