   * xtb version 6.7.1 (edcfbbe) compiled by 'albert@albert-system' on 2024-07-22

   ID    Z sym.   atoms
    1    8 O      1, 28
    2    6 C      2-6, 8-27, 29-32, 34-48
    3    7 N      7, 33
    4    1 H      49-80

          program call               : xtb data2507/gas/m-DTPACO/m-DTPACO_gas_S0_crest.xyz --gfn 2 --ohess vtight --parallel 40 --molden --ceasefiles --namespace data2507/gas/m-DTPACO/m-DTPACO_gas_S0_finalOpt
          :  Hamiltonian                  GFN2-xTB          :
 * total energy  :  -124.4970688 Eh     change       -0.1364285E-08 Eh
 * total energy  :  -124.4970695 Eh     change       -0.7222149E-06 Eh
 * total energy  :  -124.4970695 Eh     change        0.1813433E-07 Eh
 * total energy  :  -124.4970705 Eh     change       -0.1077269E-05 Eh
 * total energy  :  -124.4970727 Eh     change       -0.2118339E-05 Eh
 * total energy  :  -124.4970743 Eh     change       -0.1639814E-05 Eh
 * total energy  :  -124.4970755 Eh     change       -0.1164216E-05 Eh
 * total energy  :  -124.4970762 Eh     change       -0.7199735E-06 Eh
 * total energy  :  -124.4970769 Eh     change       -0.7161630E-06 Eh
 * total energy  :  -124.4970779 Eh     change       -0.1001584E-05 Eh
 * total energy  :  -124.4970786 Eh     change       -0.7448638E-06 Eh
 * total energy  :  -124.4970790 Eh     change       -0.3551161E-06 Eh
 * total energy  :  -124.4970791 Eh     change       -0.7061372E-07 Eh
   *** GEOMETRY OPTIMIZATION CONVERGED AFTER 13 ITERATIONS ***

 final structure:
================
80
 xtb: 6.7.1 (edcfbbe)
O           -4.29937887053469       -3.47745434630866        1.94563619383158
C           -3.81536973102604       -2.49406269027727        1.41886677768846
C           -2.35095496427536       -2.34366055922063        1.24778069115913
C           -1.59685238529678       -3.49004878851167        0.99221171145110
C           -0.23946802664180       -3.41096334151855        0.78208791700599
C            0.41795480262133       -2.17768903708338        0.84405647671440
N            1.78706629926170       -2.09886664293606        0.60353861160931
C            2.59908344013212       -1.21790101894449        1.32972093215638
C            2.32553586472869       -0.93682810139546        2.66808159407584
C            3.15481516798038       -0.09767412023551        3.38732256855901
C            4.27159209907007        0.46582371589438        2.79258972307395
C            4.54363305376547        0.19596537988079        1.46058631390788
C            3.71503788581680       -0.63390999281600        0.73020640330435
C            2.37375059895686       -2.96767671682510       -0.33020370969681
C            1.71038439070093       -3.27207595354617       -1.51842234220637
C            2.28765229173635       -4.12381279756816       -2.44040379788328
C            3.53396522066406       -4.67782270197238       -2.19877444766808
C            4.19614256301726       -4.37985571980733       -1.01932188175202
C            3.62251440423535       -3.53638828675315       -0.08741377673881
C           -0.32738368922873       -1.03531211915199        1.15135147822287
C           -1.68961489568514       -1.11902135183446        1.34739701338864
C           -4.67679109140590       -1.40858933993973        0.87403149141776
C           -5.97549961792135       -1.26020757043353        1.36249710547487
C           -6.81590877063433       -0.29625538623608        0.83696257225937
C           -6.37138942667896        0.54062537918441       -0.17363868962423
C           -5.07322199013991        0.41556894055181       -0.65728068296318
C           -4.54531417748953        1.32803232479355       -1.71328433540800
O           -5.19573808041497        1.68263706279091       -2.67252986781942
C           -3.13781400257900        1.72403133731604       -1.47216243705654
C           -2.69456960313685        1.99370336737565       -0.17660451091133
C           -1.37077230020695        2.27465816757786        0.06878776785562
C           -0.43983235244432        2.26280816378847       -0.97510314221645
N            0.90776925691544        2.47310476488120       -0.70598883462432
C            1.90098091459874        1.79950219551366       -1.42667404597659
C            3.12347888823515        2.41932191360839       -1.68295911128223
C            4.10702680863990        1.75437215892151       -2.38850904642568
C            3.88608541585093        0.47105378426297       -2.86064682543709
C            2.67295430257592       -0.14910111356160       -2.60990531135417
C            1.68960398025901        0.50111188344113       -1.88951954308508
C            1.27446467237740        3.34498387374527        0.33399428381163
C            2.29543358961243        2.99937368335350        1.21516804478715
C            2.65055856637714        3.86059987459266        2.23548292546852
C            1.99317676109832        5.06942195520819        2.39356275613670
C            0.97556373815773        5.41538343857319        1.51905149504768
C            0.61661298494694        4.56345498567500        0.49236879560528
C           -0.89160832089443        2.03789891025725       -2.27884968594587
C           -2.22523233076382        1.79034254991115       -2.52306499060411
C           -4.24029344341469       -0.57609385702540       -0.14889807462846
H           -2.10187087568311       -4.44351667860967        0.95309729516174
H            0.32955077744449       -4.30535059102834        0.57611061162408
H            1.46943765540611       -1.39161329751888        3.14439021627555
H            2.93369480678250        0.10550014948662        4.42461890520920
H            4.92482825991209        1.11000709381306        3.36113833126815
H            5.40359630335639        0.63995947417985        0.98101312257212
H            3.92832857126784       -0.83323928054730       -0.30877020552333
H            0.74050178656220       -2.83757860593050       -1.71296612728136
H            1.76335841798390       -4.34953491665115       -3.35743835032673
H            3.98419110044916       -5.33909597178454       -2.92316574094819
H            5.16397207316698       -4.81446034584152       -0.81790704570192
H            4.13710001209777       -3.31658809506798        0.83632163967893
H            0.17054177232091       -0.07939317964952        1.22322226743701
H           -2.24299755794246       -0.22588027941931        1.59568407973566
H           -6.30658964289029       -1.91690349834503        2.15329880372204
H           -7.82198300648939       -0.19430452350932        1.21562248467272
H           -7.01523768181240        1.30130106727127       -0.58942673326856
H           -3.40109891354528        1.99148861993529        0.64102914942302
H           -1.03789671291791        2.48098999123905        1.07541374839286
H            3.29344922530104        3.42550832560246       -1.32935647269002
H            5.04861320536859        2.24710644458460       -2.58092718177759
H            4.65331731910917       -0.04464043940887       -3.41799434965787
H            2.49786137005122       -1.15409988541122       -2.96431212253276
H            0.75330672956095        0.00534904364397       -1.67797929247095
H            2.80294101381143        2.05426386499474        1.09648306634148
H            3.44032862912788        3.57795589779054        2.91520290545636
H            2.27168127918736        5.73912985301287        3.19289997366478
H            0.46228083293386        6.35875598951914        1.63205524940514
H           -0.17250708597680        4.83482990334698       -0.19374001833063
H           -0.18543166868991        2.06233520352069       -3.09554035355956
H           -2.57494159314985        1.61952660491195       -3.53021609184889
H           -3.25899962732304       -0.71452003482409       -0.57793717183017

          :  Hamiltonian                  GFN2-xTB          :
         :: gradient norm              0.000163633426 Eh/a0 ::
         :: HOMO-LUMO gap              1.966951232432 eV    ::
         :: SCC energy              -126.748049508219 Eh    ::
         :: -> dispersion             -0.122557108522 Eh    ::
         :: repulsion energy           2.250970445629 Eh    ::

    * Orbital Energies and Occupations

         #    Occupation            Energy/Eh            Energy/eV
      -------------------------------------------------------------
         1        2.0000           -0.7050528             -19.1855
       ...           ...                  ...                  ...
       103        2.0000           -0.4192837             -11.4093
       104        2.0000           -0.4182251             -11.3805
       105        2.0000           -0.4174547             -11.3595
       106        2.0000           -0.4168269             -11.3424
       107        2.0000           -0.4166587             -11.3379
       108        2.0000           -0.4145181             -11.2796
       109        2.0000           -0.4141283             -11.2690
       110        2.0000           -0.4127330             -11.2310
       111        2.0000           -0.4121143             -11.2142
       112        2.0000           -0.3924035             -10.6778
       113        2.0000           -0.3863563             -10.5133
       114        2.0000           -0.3620802              -9.8527
       115        2.0000           -0.3612766              -9.8308 (HOMO)
       116                         -0.2889924              -7.8639 (LUMO)
       117                         -0.2817199              -7.6660
       118                         -0.2447288              -6.6594
       119                         -0.2441291              -6.6431
       120                         -0.2402073              -6.5364
       121                         -0.2394654              -6.5162
       122                         -0.2380946              -6.4789
       123                         -0.2378493              -6.4722
       124                         -0.2329220              -6.3381
       125                         -0.2325941              -6.3292
       126                         -0.2311354              -6.2895
       ...                                ...                  ...
       224                          0.6923675              18.8403
      -------------------------------------------------------------
                  HL-Gap            0.0722841 Eh            1.9670 eV

     #   Z          covCN         q      C6AA      α(0)
     1   8 O        0.858    -0.372    21.131     6.163
     2   6 C        2.827     0.224    23.290     7.908
     3   6 C        2.970    -0.022    28.539     8.763
     4   6 C        2.924    -0.019    28.483     8.752
     5   6 C        2.920    -0.048    29.181     8.859
     6   6 C        2.923     0.071    26.416     8.429
     7   7 N        2.752    -0.070    22.594     7.060
     8   6 C        2.923     0.065    26.552     8.450
     9   6 C        2.922    -0.047    29.174     8.858
    10   6 C        2.919    -0.028    28.706     8.786
    11   6 C        2.919    -0.036    28.898     8.815
    12   6 C        2.919    -0.028    28.704     8.786
    13   6 C        2.922    -0.048    29.183     8.859
    14   6 C        2.926     0.065    26.545     8.449
    15   6 C        2.923    -0.044    29.103     8.847
    16   6 C        2.919    -0.029    28.716     8.788
    17   6 C        2.919    -0.036    28.901     8.816
    18   6 C        2.920    -0.028    28.702     8.785
    19   6 C        2.922    -0.045    29.129     8.851
    20   6 C        2.920    -0.048    29.200     8.861
    21   6 C        2.920    -0.028    28.712     8.787
    22   6 C        2.969    -0.010    28.269     8.721
    23   6 C        2.924    -0.015    28.382     8.737
    24   6 C        2.917    -0.026    28.649     8.777
    25   6 C        2.921    -0.015    28.382     8.736
    26   6 C        2.974    -0.010    28.252     8.719
    27   6 C        2.827     0.228    23.216     7.895
    28   8 O        0.857    -0.364    20.975     6.140
    29   6 C        2.975    -0.023    28.568     8.767
    30   6 C        2.922    -0.026    28.661     8.779
    31   6 C        2.921    -0.047    29.179     8.858
    32   6 C        2.925     0.071    26.411     8.428
    33   7 N        2.753    -0.072    22.636     7.066
    34   6 C        2.923     0.065    26.554     8.450
    35   6 C        2.923    -0.047    29.158     8.855
    36   6 C        2.920    -0.028    28.695     8.784
    37   6 C        2.919    -0.037    28.927     8.820
    38   6 C        2.920    -0.029    28.713     8.787
    39   6 C        2.922    -0.045    29.126     8.850
    40   6 C        2.927     0.064    26.572     8.454
    41   6 C        2.922    -0.047    29.178     8.858
    42   6 C        2.920    -0.028    28.704     8.786
    43   6 C        2.919    -0.036    28.885     8.813
    44   6 C        2.920    -0.029    28.714     8.787
    45   6 C        2.922    -0.045    29.130     8.851
    46   6 C        2.920    -0.048    29.185     8.859
    47   6 C        2.921    -0.020    28.498     8.754
    48   6 C        2.926    -0.026    28.658     8.779
    49   1 H        0.926     0.056     2.251     2.346
    50   1 H        0.926     0.040     2.450     2.448
    51   1 H        0.926     0.033     2.538     2.491
    52   1 H        0.926     0.034     2.528     2.486
    53   1 H        0.926     0.032     2.563     2.504
    54   1 H        0.926     0.032     2.556     2.500
    55   1 H        0.926     0.033     2.540     2.492
    56   1 H        0.926     0.031     2.570     2.507
    57   1 H        0.926     0.034     2.525     2.485
    58   1 H        0.926     0.034     2.530     2.487
    59   1 H        0.926     0.035     2.517     2.481
    60   1 H        0.926     0.034     2.532     2.488
    61   1 H        0.926     0.035     2.514     2.480
    62   1 H        0.926     0.037     2.492     2.469
    63   1 H        0.926     0.062     2.173     2.305
    64   1 H        0.926     0.046     2.368     2.406
    65   1 H        0.926     0.055     2.253     2.347
    66   1 H        0.926     0.033     2.550     2.497
    67   1 H        0.926     0.036     2.507     2.476
    68   1 H        0.926     0.033     2.542     2.493
    69   1 H        0.926     0.034     2.533     2.489
    70   1 H        0.926     0.031     2.568     2.506
    71   1 H        0.926     0.033     2.542     2.493
    72   1 H        0.926     0.028     2.616     2.529
    73   1 H        0.926     0.035     2.519     2.482
    74   1 H        0.926     0.034     2.525     2.485
    75   1 H        0.926     0.034     2.526     2.486
    76   1 H        0.926     0.036     2.507     2.476
    77   1 H        0.926     0.034     2.524     2.484
    78   1 H        0.926     0.041     2.440     2.443
    79   1 H        0.926     0.052     2.289     2.366
    80   1 H        0.926     0.039     2.463     2.454

molecular dipole:
                 x           y           z       tot (Debye)
 q only:        2.110       0.639       0.436
   full:        2.245       0.712       0.500       6.119

 projected vibrational frequencies (cm⁻¹)
eigval :       -0.00    -0.00     0.00     0.00     0.00     0.00
eigval :       15.14    19.04    26.05    30.14    33.70    39.99
eigval :       46.86    51.27    54.21    57.58    61.47    66.22
eigval :       70.65    79.31    85.10    94.07   108.80   111.32
eigval :      124.43   127.04   137.42   170.93   180.58   185.83
eigval :      209.02   220.24   225.67   231.81   239.98   243.26
eigval :      254.28   274.73   309.40   312.42   323.38   328.93
eigval :      336.05   346.83   365.82   376.51   378.38   379.68
eigval :      384.91   385.44   390.27   392.50   399.41   406.14
eigval :      414.40   446.04   468.08   475.58   487.44   497.81
eigval :      500.50   501.79   540.00   564.01   582.34   585.55
eigval :      586.94   587.26   592.23   593.56   603.85   609.36
eigval :      616.18   624.01   638.33   651.33   660.26   661.36
eigval :      667.09   669.77   677.11   680.88   706.50   714.65
eigval :      730.63   736.64   758.39   759.60   761.55   763.11
eigval :      800.35   806.62   822.42   826.03   871.61   872.60
eigval :      876.51   876.59   878.15   879.62   888.55   894.21
eigval :      896.05   897.54   898.30   901.38   909.80   910.12
eigval :      911.35   917.41   921.63   924.69   928.39   928.74
eigval :      929.15   929.44   930.52   931.07   931.33   931.98
eigval :      932.93   934.18   935.93   939.03   975.21   985.09
eigval :      993.38   999.50  1004.79  1006.34  1025.74  1028.91
eigval :     1082.25  1083.58  1084.65  1086.12  1118.70  1121.20
eigval :     1122.43  1124.69  1125.05  1138.46  1140.21  1156.03
eigval :     1176.89  1178.48  1179.73  1180.39  1181.81  1184.98
eigval :     1186.29  1187.35  1190.69  1195.83  1196.70  1201.49
eigval :     1210.44  1220.48  1239.70  1263.38  1267.25  1267.80
eigval :     1273.75  1278.15  1278.81  1282.56  1283.10  1309.90
eigval :     1312.40  1317.63  1318.55  1322.47  1325.39  1326.41
eigval :     1327.47  1331.00  1332.34  1335.94  1409.68  1412.27
eigval :     1414.15  1435.08  1436.31  1441.44  1442.81  1450.76
eigval :     1469.46  1470.18  1474.61  1475.38  1480.55  1483.45
eigval :     1549.68  1552.07  1569.09  1577.02  1578.59  1580.08
eigval :     1581.37  1582.41  1584.53  1588.22  1593.40  1594.53
eigval :     1599.33  1600.18  1686.51  1716.34  3074.25  3076.18
eigval :     3078.29  3078.71  3078.79  3078.93  3080.11  3081.04
eigval :     3083.05  3083.57  3083.67  3085.93  3086.22  3086.93
eigval :     3087.22  3087.65  3088.80  3089.62  3090.17  3091.28
eigval :     3092.06  3093.78  3095.39  3097.25  3097.55  3098.41
eigval :     3098.72  3098.99  3099.27  3100.02  3103.75  3107.36

   temp. (K)  partition function   enthalpy   heat capacity  entropy
                                   cal/mol     cal/K/mol   cal/K/mol   J/K/mol
 298.15  VIB  0.481E+18            23198.646    145.288    144.988
         ROT  0.571E+08              888.752      2.981     38.476
         INT  0.275E+26            24087.398    148.268    183.463
         TR   0.150E+29             1481.254      4.968     45.140
         TOT                       25568.6522   153.2365   228.6027   956.4739

       T/K    H(0)-H(T)+PV         H(T)/Eh          T*S/Eh         G(T)/Eh
   ------------------------------------------------------------------------
    298.15    0.407462E-01    0.658405E+00    0.108617E+00    0.549789E+00
   ------------------------------------------------------------------------

         :::::::::::::::::::::::::::::::::::::::::::::::::::::
         ::                  THERMODYNAMIC                  ::
         :::::::::::::::::::::::::::::::::::::::::::::::::::::
         :: total free energy        -123.947290436433 Eh   ::
         ::.................................................::
         :: total energy             -124.497079062601 Eh   ::
         :: zero point energy           0.617658922803 Eh   ::
         :: G(RRHO) w/o ZPVE           -0.067870296635 Eh   ::
         :: G(RRHO) contrib.            0.549788626168 Eh   ::
         :::::::::::::::::::::::::::::::::::::::::::::::::::::

           -------------------------------------------------
          | TOTAL ENERGY             -124.497079062601 Eh   |
          | TOTAL ENTHALPY           -123.838673898910 Eh   |
          | TOTAL FREE ENERGY        -123.947290436433 Eh   |
          | GRADIENT NORM               0.000163828436 Eh/α |
          | HOMO-LUMO GAP               1.966950905255 eV   |
           -------------------------------------------------

 * finished run on 2025/08/22 at 18:27:10.767
