   * xtb version 6.7.1 (edcfbbe) compiled by 'albert@albert-system' on 2024-07-22

   ID    Z sym.   atoms
    1    7 N      1, 21, 29, 39, 56
    2    6 C      2-20, 22-28, 30-38, 40-55, 57-64
    3    1 H      65-101

          program call               : xtb data2507/gas/TBPM2CN/TBPM2CN.xyz --gfn 2 --ohess vtight --parallel 40 --molden --ceasefiles --namespace data2507/gas/TBPM2CN/TBPM2CN_gas_S0_preOpt
          :  Hamiltonian                  GFN2-xTB          :
 * total energy  :  -159.7708163 Eh     change       -0.5136826E-08 Eh
 * total energy  :  -159.7878891 Eh     change       -0.1707284E-01 Eh
 * total energy  :  -159.7937745 Eh     change       -0.5885408E-02 Eh
 * total energy  :  -159.7963287 Eh     change       -0.2554165E-02 Eh
 * total energy  :  -159.7982016 Eh     change       -0.1872929E-02 Eh
 * total energy  :  -159.7992609 Eh     change       -0.1059334E-02 Eh
 * total energy  :  -159.7998478 Eh     change       -0.5868404E-03 Eh
 * total energy  :  -159.8003173 Eh     change       -0.4695751E-03 Eh
 * total energy  :  -159.8007268 Eh     change       -0.4094323E-03 Eh
 * total energy  :  -159.8012029 Eh     change       -0.4761301E-03 Eh
 * total energy  :  -159.8055217 Eh     change       -0.7052753E-06 Eh
 * total energy  :  -159.8055224 Eh     change       -0.6407776E-06 Eh
 * total energy  :  -159.8055230 Eh     change       -0.6725337E-06 Eh
 * total energy  :  -159.8055238 Eh     change       -0.7579659E-06 Eh
 * total energy  :  -159.8055246 Eh     change       -0.7986350E-06 Eh
 * total energy  :  -159.8055255 Eh     change       -0.9368935E-06 Eh
 * total energy  :  -159.8055266 Eh     change       -0.1064756E-05 Eh
 * total energy  :  -159.8055278 Eh     change       -0.1177964E-05 Eh
 * total energy  :  -159.8055278 Eh     change       -0.6494275E-08 Eh
   *** GEOMETRY OPTIMIZATION CONVERGED AFTER 122 ITERATIONS ***

 final structure:
================
101
 xtb: 6.7.1 (edcfbbe)
N          -11.67846289162460       -7.30961762627124       -0.18259218787469
C          -10.74539929705299       -6.64359867734370       -0.15032939894480
C           -9.59599399901164       -5.82364426753074       -0.11038443007982
C           -8.53729436290547       -6.14384875895537        0.74108646303780
C           -7.41599104503074       -5.34230411277022        0.77192508975510
C           -7.32408117205884       -4.20710777563615       -0.03468728127094
C           -6.12443888562469       -3.36052386954075        0.00309275078636
C           -4.85099234435429       -3.94465459684704        0.06736214061673
C           -3.73498312553379       -3.15078325730111        0.08117488124334
C           -3.85344909141603       -1.75691202388962        0.04631508791522
C           -5.12398634860987       -1.13829971482758        0.00665699517428
C           -6.24111454367225       -1.98171810434622       -0.02581450030410
C           -5.23023426541348        0.31146373486190        0.01999685317022
C           -6.47204106448835        0.95171653335304        0.08399686600266
C           -6.60186986772881        2.32813539976533        0.13485336208999
C           -7.92805432360105        2.95392154385644        0.19873937200182
C           -8.93972755991690        2.40451506631420        0.98775875049630
C          -10.18454799590204        2.99358051754108        1.05382363442394
C          -10.44341600796423        4.15274992021703        0.32075071564359
C          -11.71608879609188        4.76250743735032        0.38371608041074
N          -12.74818992539867        5.25964969803099        0.43434717405118
C           -9.44038760909146        4.71035339238535       -0.47374716559541
C           -8.19831258425690        4.11460721937778       -0.52767484911662
C           -5.44405520621491        3.11536208599641        0.14040081607969
C           -4.20871083715922        2.52561449581470        0.08081768162986
C           -4.06790624140651        1.13202167938322       -0.00134098549580
C           -2.81147038371160        0.47020833641986       -0.06272048923072
C           -2.70651926228147       -0.91882489475698        0.02107608998160
N           -1.40179582678373       -1.29199982583838        0.03821845173166
C           -0.70674131647924       -0.18522817473475       -0.05070992002314
C            0.74562753943339       -0.16400230274435       -0.07495107994490
C            1.48372610250037        0.73210384580105       -0.84637509580887
C            2.86274533190734        0.69339761866915       -0.83027022326654
C            3.54968877927693       -0.23937137513925       -0.05392916728546
C            5.01533282868745       -0.27059435005759       -0.03457226795115
C            5.75992991886800        0.90849273788301       -0.06596906752675
C            7.13751857276879        0.88290158652507       -0.03597846140570
C            7.82261420512774       -0.33220899829157        0.01459686916263
N            9.21754012627346       -0.36390400044071        0.04403610721527
C            9.87987510449670       -1.33624653248053        0.80392942168905
C            9.37295926116736       -1.73177438017124        2.04146118113643
C           10.02857968360214       -2.69207390689452        2.78699570035140
C           11.19924630359613       -3.26594895810397        2.31889898466376
C           11.70915297618776       -2.87331607181441        1.09219212710000
C           11.05641195059335       -1.91985083038894        0.33531353758666
C            9.95758608601588        0.57389725252665       -0.68595035863786
C            9.52124639527146        0.99652565824741       -1.94136844678596
C           10.25486144724833        1.92213364290682       -2.65753071933973
C           11.43429063903424        2.43412181742403       -2.14201090412438
C           11.87409696840945        2.01448426532476       -0.89722074403230
C           11.14334997168661        1.09557976722056       -0.16956901766554
C            7.08330407974280       -1.51609763457644        0.03667876679997
C            5.70604658912924       -1.48148086333807        0.01838071273403
C            2.80444557356443       -1.14947261789077        0.69713783976477
C            1.42742301032630       -1.11604066315551        0.68450658252927
N           -1.51522989726741        0.92925923270515       -0.11992865060331
C           -1.05695450774905        2.25662344803804       -0.23441753750770
C           -0.27680226520038        2.80561893679713        0.77607321689656
C            0.20149765097538        4.09692124786806        0.64530073268953
C           -0.09622965534052        4.84014883396388       -0.48475829105402
C           -0.87429713356542        4.29095074898398       -1.49142136278122
C           -1.35355723350575        2.99953586532714       -1.37340275495916
C           -8.39030491391193       -3.89581548796107       -0.87972481963495
C           -9.51511277063659       -4.69200223331912       -0.92336468321484
H           -8.60600926962850       -7.01835557359708        1.37149321525578
H           -6.60552350499867       -5.58424259031188        1.44336265807764
H           -4.75662173334329       -5.02035224676404        0.07273270473629
H           -2.74188019198981       -3.57105948161927        0.10891458820915
H           -7.23556538519287       -1.56515587225666       -0.05636216263121
H           -7.37590671287376        0.36410417071813        0.08173698911081
H           -8.73773041245889        1.51934177830364        1.57272915760711
H          -10.96200477745263        2.56843103789038        1.67160110646045
H           -9.64664409553207        5.60528073365732       -1.04248106980302
H           -7.42956874564503        4.53991746166806       -1.15582899043254
H           -5.52457153341111        4.18895711813578        0.22436629231592
H           -3.32786292606018        3.14652275007632        0.11727438249552
H            0.98356272402390        1.44515152822947       -1.48446432385628
H            3.41743131206633        1.38112060729616       -1.45154985231320
H            5.25002898871047        1.86065636756922       -0.08026429451520
H            7.69700923924425        1.80695961456310       -0.04255467774805
H            8.46600948476789       -1.27775378473907        2.41337189205038
H            9.62670588531157       -2.98762832321474        3.74503576207946
H           11.71064209374393       -4.01350481742057        2.90596745994514
H           12.61857739744316       -3.31902798849166        0.71686516206994
H           11.45096980785062       -1.62197887648743       -0.62514563306761
H            8.60788599411043        0.58995119577492       -2.35061508314424
H            9.90731915412666        2.23852791901661       -3.63009150049830
H           12.00689631250008        3.15426465739719       -2.70643020611000
H           12.78998028402467        2.41180317867409       -0.48501857291587
H           11.48382707932669        0.77662029752825        0.80471248986593
H            7.60112504756668       -2.46374873444252        0.06089334591672
H            5.15504353928882       -2.41017487215541        0.01112557953162
H            3.31427313299124       -1.87553381892780        1.31283166750728
H            0.85184997871768       -1.82003996456529        1.26512925313699
H           -0.04839210676333        2.21646826240557        1.65166686100567
H            0.80736777780004        4.52349097798391        1.43019731191293
H            0.27853899639313        5.84759436958633       -0.58271785300572
H           -1.10522693833078        4.86764252877547       -2.37441782686835
H           -1.95777662900545        2.55899817420787       -2.15328886757417
H           -8.32342154421108       -3.03226308456540       -1.52512712109131
H          -10.33469026106365       -4.45082037941574       -1.58454301873958

          :  Hamiltonian                  GFN2-xTB          :
         :: gradient norm              0.000172305568 Eh/a0 ::
         :: HOMO-LUMO gap              1.853147933816 eV    ::
         :: SCC energy              -162.904952042728 Eh    ::
         :: -> dispersion             -0.143352030024 Eh    ::
         :: repulsion energy           3.099424260641 Eh    ::

    * Orbital Energies and Occupations

         #    Occupation            Energy/Eh            Energy/eV
      -------------------------------------------------------------
         1        2.0000           -0.6956919             -18.9307
       ...           ...                  ...                  ...
       137        2.0000           -0.4155069             -11.3065
       138        2.0000           -0.4131929             -11.2436
       139        2.0000           -0.4129523             -11.2370
       140        2.0000           -0.4117834             -11.2052
       141        2.0000           -0.4114012             -11.1948
       142        2.0000           -0.4086998             -11.1213
       143        2.0000           -0.4084730             -11.1151
       144        2.0000           -0.4033861             -10.9767
       145        2.0000           -0.3978232             -10.8253
       146        2.0000           -0.3911400             -10.6435
       147        2.0000           -0.3844984             -10.4627
       148        2.0000           -0.3712496             -10.1022
       149        2.0000           -0.3528266              -9.6009 (HOMO)
       150                         -0.2847246              -7.7478 (LUMO)
       151                         -0.2769572              -7.5364
       152                         -0.2676266              -7.2825
       153                         -0.2588900              -7.0448
       154                         -0.2529510              -6.8831
       155                         -0.2499562              -6.8017
       156                         -0.2461574              -6.6983
       157                         -0.2444346              -6.6514
       158                         -0.2413308              -6.5669
       159                         -0.2341908              -6.3727
       160                         -0.2315669              -6.3013
       ...                                ...                  ...
       293                          1.1742388              31.9527
      -------------------------------------------------------------
                  HL-Gap            0.0681020 Eh            1.8531 eV

     #   Z          covCN         q      C6AA      α(0)
     1   7 N        0.911    -0.237    26.203     7.403
     2   6 C        1.912     0.111    28.357     8.600
     3   6 C        2.974     0.016    27.640     8.624
     4   6 C        2.924    -0.021    28.523     8.758
     5   6 C        2.924    -0.031    28.776     8.797
     6   6 C        2.977     0.019    27.588     8.616
     7   6 C        2.975     0.005    27.904     8.665
     8   6 C        2.922    -0.034    28.837     8.806
     9   6 C        2.919    -0.031    28.762     8.795
    10   6 C        2.986     0.004    27.938     8.670
    11   6 C        2.978    -0.001    28.050     8.688
    12   6 C        2.927    -0.039    28.966     8.826
    13   6 C        2.978     0.002    27.978     8.676
    14   6 C        2.928    -0.038    28.946     8.823
    15   6 C        2.974     0.004    27.919     8.667
    16   6 C        2.977     0.018    27.601     8.618
    17   6 C        2.923    -0.031    28.785     8.798
    18   6 C        2.924    -0.021    28.519     8.758
    19   6 C        2.974     0.017    27.628     8.622
    20   6 C        1.912     0.111    28.356     8.600
    21   7 N        0.911    -0.236    26.167     7.398
    22   6 C        2.924    -0.021    28.524     8.758
    23   6 C        2.924    -0.031    28.776     8.797
    24   6 C        2.921    -0.035    28.878     8.812
    25   6 C        2.917    -0.040    28.991     8.829
    26   6 C        2.978    -0.001    28.054     8.688
    27   6 C        3.073     0.021    27.470     8.593
    28   6 C        3.208     0.058    26.095     8.318
    29   7 N        1.895    -0.290    28.360     7.895
    30   6 C        3.193     0.130    24.696     8.104
    31   6 C        2.974    -0.001    28.057     8.689
    32   6 C        2.920    -0.035    28.861     8.810
    33   6 C        2.924    -0.035    28.874     8.812
    34   6 C        2.976     0.013    27.723     8.637
    35   6 C        2.975     0.000    28.017     8.682
    36   6 C        2.924    -0.034    28.850     8.808
    37   6 C        2.920    -0.049    29.213     8.863
    38   6 C        2.924     0.065    26.552     8.450
    39   7 N        2.752    -0.074    22.683     7.073
    40   6 C        2.925     0.065    26.547     8.450
    41   6 C        2.922    -0.047    29.175     8.858
    42   6 C        2.920    -0.029    28.727     8.789
    43   6 C        2.919    -0.038    28.940     8.822
    44   6 C        2.920    -0.029    28.723     8.789
    45   6 C        2.922    -0.047    29.170     8.857
    46   6 C        2.924     0.065    26.546     8.449
    47   6 C        2.922    -0.048    29.180     8.858
    48   6 C        2.920    -0.029    28.730     8.790
    49   6 C        2.919    -0.038    28.947     8.823
    50   6 C        2.920    -0.029    28.726     8.789
    51   6 C        2.922    -0.047    29.175     8.858
    52   6 C        2.920    -0.048    29.203     8.862
    53   6 C        2.924    -0.034    28.842     8.807
    54   6 C        2.923    -0.034    28.835     8.806
    55   6 C        2.926    -0.028    28.702     8.786
    56   7 N        2.841    -0.044    22.095     6.981
    57   6 C        2.913     0.068    26.470     8.437
    58   6 C        2.922    -0.037    28.925     8.820
    59   6 C        2.920    -0.025    28.632     8.775
    60   6 C        2.920    -0.029    28.734     8.790
    61   6 C        2.920    -0.027    28.673     8.781
    62   6 C        2.921    -0.037    28.919     8.819
    63   6 C        2.924    -0.032    28.791     8.799
    64   6 C        2.924    -0.021    28.528     8.759
    65   1 H        0.926     0.041     2.434     2.440
    66   1 H        0.926     0.041     2.439     2.442
    67   1 H        0.926     0.035     2.518     2.481
    68   1 H        0.926     0.055     2.254     2.348
    69   1 H        0.926     0.033     2.539     2.492
    70   1 H        0.926     0.037     2.489     2.467
    71   1 H        0.926     0.039     2.458     2.452
    72   1 H        0.926     0.042     2.427     2.436
    73   1 H        0.926     0.041     2.434     2.440
    74   1 H        0.926     0.039     2.461     2.453
    75   1 H        0.926     0.031     2.570     2.507
    76   1 H        0.926     0.030     2.588     2.516
    77   1 H        0.926     0.026     2.647     2.544
    78   1 H        0.926     0.034     2.535     2.490
    79   1 H        0.926     0.032     2.552     2.498
    80   1 H        0.926     0.033     2.550     2.497
    81   1 H        0.926     0.031     2.566     2.505
    82   1 H        0.926     0.032     2.556     2.500
    83   1 H        0.926     0.031     2.569     2.507
    84   1 H        0.926     0.032     2.553     2.499
    85   1 H        0.926     0.032     2.557     2.500
    86   1 H        0.926     0.031     2.566     2.505
    87   1 H        0.926     0.032     2.563     2.503
    88   1 H        0.926     0.031     2.575     2.509
    89   1 H        0.926     0.032     2.556     2.500
    90   1 H        0.926     0.032     2.558     2.501
    91   1 H        0.926     0.034     2.536     2.490
    92   1 H        0.926     0.036     2.506     2.475
    93   1 H        0.926     0.038     2.471     2.458
    94   1 H        0.926     0.051     2.309     2.376
    95   1 H        0.926     0.041     2.439     2.442
    96   1 H        0.926     0.042     2.426     2.436
    97   1 H        0.926     0.041     2.437     2.441
    98   1 H        0.926     0.041     2.431     2.438
    99   1 H        0.926     0.042     2.418     2.432
   100   1 H        0.926     0.038     2.471     2.458
   101   1 H        0.926     0.041     2.441     2.443

molecular dipole:
                 x           y           z       tot (Debye)
 q only:        3.774       1.115      -0.018
   full:        4.414       1.619      -0.074      11.952

 projected vibrational frequencies (cm⁻¹)
eigval :       -0.00    -0.00    -0.00    -0.00     0.00     0.00
eigval :        6.38     7.14    10.04    14.48    20.00    23.76
eigval :       29.96    31.01    34.63    37.36    42.12    47.53
eigval :       49.80    51.48    54.60    63.56    64.78    69.94
eigval :       79.62    86.05    92.82   101.13   104.62   107.20
eigval :      108.80   118.67   139.60   141.25   144.71   154.58
eigval :      171.72   186.63   192.30   202.53   204.53   223.06
eigval :      233.80   243.86   249.79   251.23   270.33   287.81
eigval :      301.90   311.01   314.59   322.29   329.97   351.26
eigval :      366.19   366.94   372.76   376.45   377.03   378.81
eigval :      381.77   387.47   388.40   398.90   403.41   417.35
eigval :      420.85   424.68   436.80   447.80   457.74   465.41
eigval :      469.93   481.18   485.04   491.55   503.27   508.18
eigval :      520.10   533.41   534.45   541.90   543.49   548.96
eigval :      567.33   569.97   582.75   584.41   587.67   589.88
eigval :      593.87   596.35   604.06   605.57   613.07   616.69
eigval :      628.83   632.84   642.38   654.52   659.54   664.77
eigval :      668.38   679.50   681.56   685.02   686.00   689.32
eigval :      695.79   701.89   708.09   716.72   735.80   736.05
eigval :      757.19   759.33   767.87   769.34   793.73   806.48
eigval :      807.99   810.16   815.53   830.78   833.42   838.99
eigval :      859.35   867.11   867.50   870.54   873.25   874.69
eigval :      875.78   876.41   877.26   885.76   892.48   893.15
eigval :      901.79   910.16   914.28   915.03   915.81   917.23
eigval :      920.10   921.91   923.91   924.84   927.73   928.17
eigval :      928.78   929.03   929.11   929.17   929.83   931.62
eigval :      932.96   947.79   950.90   977.13   988.30   999.20
eigval :     1005.18  1010.51  1012.76  1027.11  1040.51  1071.49
eigval :     1079.42  1080.66  1082.52  1083.20  1084.19  1102.30
eigval :     1115.41  1121.88  1124.11  1134.99  1136.70  1138.17
eigval :     1140.70  1148.80  1159.72  1179.60  1180.69  1180.76
eigval :     1180.78  1187.18  1187.69  1189.35  1190.14  1195.50
eigval :     1195.62  1203.85  1204.86  1218.09  1224.07  1233.90
eigval :     1239.93  1246.98  1265.79  1267.91  1269.13  1274.59
eigval :     1275.04  1278.80  1280.44  1281.12  1288.00  1295.22
eigval :     1301.34  1309.66  1313.13  1313.54  1314.49  1314.62
eigval :     1319.40  1322.36  1326.70  1327.02  1329.25  1336.27
eigval :     1338.16  1350.88  1377.19  1391.41  1392.26  1398.05
eigval :     1409.09  1414.32  1416.89  1428.72  1434.10  1436.54
eigval :     1438.82  1443.11  1461.64  1472.21  1476.52  1478.22
eigval :     1485.65  1486.97  1494.38  1498.31  1521.12  1537.13
eigval :     1545.37  1549.89  1551.91  1555.71  1563.15  1570.75
eigval :     1577.56  1581.13  1581.44  1583.04  1585.33  1586.73
eigval :     1593.94  1595.01  1595.36  1599.03  1601.14  1605.11
eigval :     2372.66  2373.62  3075.76  3076.30  3076.49  3077.13
eigval :     3077.77  3080.09  3080.18  3080.73  3080.83  3082.24
eigval :     3082.33  3082.41  3084.88  3084.94  3085.22  3085.80
eigval :     3086.09  3086.76  3088.78  3089.72  3090.05  3091.05
eigval :     3091.57  3092.56  3092.93  3093.55  3094.16  3094.18
eigval :     3094.64  3096.62  3097.71  3098.31  3103.31  3104.34
eigval :     3107.75  3108.98  3115.04

   temp. (K)  partition function   enthalpy   heat capacity  entropy
                                   cal/mol     cal/K/mol   cal/K/mol   J/K/mol
 298.15  VIB  0.891E+26            30768.241    187.595    195.900
         ROT  0.350E+09              888.752      2.981     42.080
         INT  0.312E+35            31656.994    190.575    237.980
         TR   0.226E+29             1481.254      4.968     45.954
         TOT                       33138.2475   195.5436   283.9340  1187.9800

       T/K    H(0)-H(T)+PV         H(T)/Eh          T*S/Eh         G(T)/Eh
   ------------------------------------------------------------------------
    298.15    0.528092E-01    0.818269E+00    0.134906E+00    0.683362E+00
   ------------------------------------------------------------------------

         :::::::::::::::::::::::::::::::::::::::::::::::::::::
         ::                  THERMODYNAMIC                  ::
         :::::::::::::::::::::::::::::::::::::::::::::::::::::
         :: total free energy        -159.122165451893 Eh   ::
         ::.................................................::
         :: total energy             -159.805527782086 Eh   ::
         :: zero point energy           0.765459394070 Eh   ::
         :: G(RRHO) w/o ZPVE           -0.082097063877 Eh   ::
         :: G(RRHO) contrib.            0.683362330193 Eh   ::
         :::::::::::::::::::::::::::::::::::::::::::::::::::::

           -------------------------------------------------
          | TOTAL ENERGY             -159.805527782086 Eh   |
          | TOTAL ENTHALPY           -158.987259229109 Eh   |
          | TOTAL FREE ENERGY        -159.122165451893 Eh   |
          | GRADIENT NORM               0.000172253873 Eh/α |
          | HOMO-LUMO GAP               1.853149457361 eV   |
           -------------------------------------------------

 * finished run on 2025/07/20 at 02:43:22.132
