   * xtb version 6.7.1 (edcfbbe) compiled by 'albert@albert-system' on 2024-07-22

   ID    Z sym.   atoms
    1    7 N      1, 21, 29, 39, 56
    2    6 C      2-20, 22-28, 30-38, 40-55, 57-64
    3    1 H      65-101

          program call               : xtb data2507/gas/TBPM2CN/TBPM2CN_gas_S0_crest.xyz --gfn 2 --ohess vtight --parallel 40 --molden --ceasefiles --namespace data2507/gas/TBPM2CN/TBPM2CN_gas_S0_finalOpt
          :  Hamiltonian                  GFN2-xTB          :
 * total energy  :  -159.8055634 Eh     change       -0.4466898E-08 Eh
 * total energy  :  -159.8055605 Eh     change        0.2887218E-05 Eh
 * total energy  :  -159.8055647 Eh     change       -0.4179711E-05 Eh
 * total energy  :  -159.8055652 Eh     change       -0.5293572E-06 Eh
 * total energy  :  -159.8055641 Eh     change        0.1142088E-05 Eh
 * total energy  :  -159.8055673 Eh     change       -0.3234659E-05 Eh
 * total energy  :  -159.8055685 Eh     change       -0.1159565E-05 Eh
 * total energy  :  -159.8055699 Eh     change       -0.1389093E-05 Eh
 * total energy  :  -159.8055707 Eh     change       -0.8269545E-06 Eh
 * total energy  :  -159.8055713 Eh     change       -0.6283457E-06 Eh
 * total energy  :  -159.8055769 Eh     change       -0.4054191E-06 Eh
 * total energy  :  -159.8055769 Eh     change        0.3525915E-07 Eh
 * total energy  :  -159.8055772 Eh     change       -0.2544065E-06 Eh
 * total energy  :  -159.8055773 Eh     change       -0.1129538E-06 Eh
 * total energy  :  -159.8055774 Eh     change       -0.1388359E-06 Eh
 * total energy  :  -159.8055776 Eh     change       -0.1835531E-06 Eh
 * total energy  :  -159.8055778 Eh     change       -0.2259251E-06 Eh
 * total energy  :  -159.8055780 Eh     change       -0.1345218E-06 Eh
 * total energy  :  -159.8055781 Eh     change       -0.9627468E-07 Eh
   *** GEOMETRY OPTIMIZATION CONVERGED AFTER 32 ITERATIONS ***

 final structure:
================
101
 xtb: 6.7.1 (edcfbbe)
N          -11.15159361486260       -7.10709708493765       -0.54676631086838
C          -10.21286404410185       -6.45116709708390       -0.48526532764304
C           -9.05648956625658       -5.64358437121189       -0.40994794370185
C           -9.03003577135080       -4.53654187890895        0.43965151321623
C           -7.89844013702065       -3.75172529646409        0.50749732977588
C           -6.77195648250455       -4.05025505288954       -0.26040566624604
C           -5.56689183975905       -3.21428929032473       -0.18252618208593
C           -4.29621040540361       -3.80772843610631       -0.16747633022237
C           -3.17618069879027       -3.02236570193607       -0.10052381019732
C           -3.28706404462527       -1.62825823071466       -0.05192005387793
C           -4.55392694338776       -1.00125349840977       -0.05468700607637
C           -5.67606273376928       -1.83581012386394       -0.12475292949213
C           -4.65210545865363        0.44656086090530        0.03121016764856
C           -5.89139406578966        1.09133155082835        0.09686561528607
C           -6.01500129633566        2.46313008321210        0.22794067030817
C           -7.34047704857855        3.09069097873900        0.28863216156118
C           -8.37272574609355        2.65242992228768       -0.54239019015497
C           -9.61867994617235        3.24069650995742       -0.49421498438122
C           -9.85792444018108        4.28636871785590        0.39879177281024
C          -11.13179514662015        4.89437729903774        0.45329763604231
N          -12.16512290940952        5.38968904570953        0.49744495278857
C           -8.83444658935833        4.73153067130017        1.23697174222267
C           -7.59145875137161        4.13822576551662        1.17597040368731
C           -4.85339818285196        3.23960949260107        0.31503716948075
C           -3.62031452097853        2.64689872243521        0.23829031883953
C           -3.48502057481112        1.25957486924895        0.07815327232199
C           -2.23134040933353        0.59520409061917       -0.00714057209742
C           -2.13530199484438       -0.79706613692228       -0.01984785559651
N           -0.83354244560858       -1.17895052579250       -0.02177932430128
C           -0.13028514979025       -0.07321662786461       -0.02727871711776
C            1.32180247720599       -0.06525416033533       -0.04423469142275
C            2.07616569992471        0.90122964161884       -0.70773743538929
C            3.45439527626011        0.84168168904358       -0.69095865936761
C            4.12459787540092       -0.18388304068958       -0.02536702852966
C            5.58958184783844       -0.23851089177586       -0.01156884945854
C            6.35016520378891        0.92398463408652        0.11209021945981
C            7.72728543392111        0.87595851715508        0.13076146980751
C            8.39563523309211       -0.34363533586028        0.00927409469932
N            9.78985688958252       -0.39593510689602        0.01892471637833
C           10.44835891150418       -1.47974832205961        0.61363369174733
C            9.95331858712974       -2.05190819769783        1.78509208428997
C           10.60554727609810       -3.12196733603014        2.36601888623731
C           11.76127645808178       -3.63224006800014        1.79782740726158
C           12.25985397860507       -3.06407750601248        0.63697973348430
C           11.61014451219402       -1.99924673111057        0.04369288782777
C           10.53664001557406        0.63162781990258       -0.57050828591123
C           10.09948651728671        1.23938557441813       -1.74714101700743
C           10.84015162906218        2.25306175276327       -2.32313489905978
C           12.02752435281811        2.67096105328511       -1.74482200818182
C           12.46852783777275        2.06715207445205       -0.57865161956228
C           11.73077419161301        1.05846104864795        0.00968521817814
C            7.63957675030188       -1.50984954377422       -0.12226091945231
C            6.26276747803007       -1.45487358294254       -0.12425028815577
C            3.36394048105748       -1.16301249356583        0.61505995498513
C            1.98773573667018       -1.10676632971543        0.60477889638091
N           -0.93189798027831        1.04847364398221       -0.02171652108739
C           -0.46614939957586        2.37868070391580       -0.02027531793134
C            0.27661824571950        2.84556760043227        1.05740481255819
C            0.76306040831734        4.14040179430292        1.04272887806278
C            0.51050635513735        4.96812007567970       -0.03854370916549
C           -0.23070085526630        4.50087438030602       -1.11223926064435
C           -0.71818560898817        3.20706730506634       -1.11000217084041
C           -6.80957809287375       -5.16150909687913       -1.10390991593728
C           -7.93665878219401       -5.95140066869955       -1.18431353581018
H           -9.89697285096817       -4.30525536713157        1.04127801359320
H           -7.87501412646293       -2.90767018563780        1.18113632141797
H           -4.20923113783431       -4.88388050571648       -0.18783388732740
H           -2.18555598594557       -3.44919095777240       -0.08868542159304
H           -6.66698240373560       -1.41165857875137       -0.16392586984877
H           -6.79801127133538        0.50818919175425        0.07829627723295
H           -8.18604684755814        1.85665490243277       -1.24846274109587
H          -10.41228658110757        2.90238530754607       -1.14429487095674
H           -9.02565671335829        5.53789100957609        1.92986494686613
H           -6.80737078861080        4.47429060305503        1.83821998546146
H           -4.92925314772414        4.31159057043054        0.42054592178679
H           -2.73720301250277        3.26065534046820        0.31558634297064
H            1.59057147890730        1.68839039343491       -1.26433340415031
H            4.02197443636882        1.58795858070022       -1.22731257370337
H            5.85299446589661        1.87593060245291        0.22844017074593
H            8.29938518450978        1.78486492970588        0.24691290743114
H            9.05822249142964       -1.64865835311135        2.23584616059420
H           10.21282909213529       -3.55469745382129        3.27442415743335
H           12.26992697734274       -4.46640773169550        2.25657785369499
H           13.15765705254090       -3.45837803707996        0.18415467197966
H           11.99559160119174       -1.56376097613284       -0.86663398048558
H            9.17976711383962        0.90729156494854       -2.20630515756399
H           10.49174204153527        2.71351802624497       -3.23602272121833
H           12.60537827641691        3.46083599196244       -2.20005963475215
H           13.39080100432077        2.38947557119595       -0.11808946842902
H           12.07220001043840        0.59503351309184        0.92377648713010
H            8.14355383822688       -2.45899078998060       -0.23111121879730
H            5.69782526003355       -2.36656317609500       -0.25041004572617
H            3.86163479141816       -1.96290156765143        1.14305408486964
H            1.39931073661690       -1.86296016577143        1.10058113629421
H            0.47051442358048        2.19026607822170        1.89345893015522
H            1.34004506981092        4.50321090922669        1.87974908019431
H            0.89193846551954        5.97780381732674       -0.04631501004052
H           -0.42644693149691        5.14376493359873       -1.95718118048441
H           -1.29406235957657        2.83017834639651       -1.94287965559801
H           -5.95085292422763       -5.39299767109505       -1.71647197318045
H           -7.96310144163314       -6.80695057535437       -1.84327785436973

          :  Hamiltonian                  GFN2-xTB          :
         :: gradient norm              0.000041658521 Eh/a0 ::
         :: HOMO-LUMO gap              1.851037419026 eV    ::
         :: SCC energy              -162.904917688983 Eh    ::
         :: -> dispersion             -0.143333255542 Eh    ::
         :: repulsion energy           3.099339634019 Eh    ::

    * Orbital Energies and Occupations

         #    Occupation            Energy/Eh            Energy/eV
      -------------------------------------------------------------
         1        2.0000           -0.6955000             -18.9255
       ...           ...                  ...                  ...
       137        2.0000           -0.4152836             -11.3004
       138        2.0000           -0.4127932             -11.2327
       139        2.0000           -0.4125436             -11.2259
       140        2.0000           -0.4123452             -11.2205
       141        2.0000           -0.4114603             -11.1964
       142        2.0000           -0.4087094             -11.1215
       143        2.0000           -0.4084834             -11.1154
       144        2.0000           -0.4036185             -10.9830
       145        2.0000           -0.3978731             -10.8267
       146        2.0000           -0.3911256             -10.6431
       147        2.0000           -0.3842993             -10.4573
       148        2.0000           -0.3710632             -10.0971
       149        2.0000           -0.3527285              -9.5982 (HOMO)
       150                         -0.2847041              -7.7472 (LUMO)
       151                         -0.2769419              -7.5360
       152                         -0.2676286              -7.2825
       153                         -0.2588397              -7.0434
       154                         -0.2526951              -6.8762
       155                         -0.2500987              -6.8055
       156                         -0.2464054              -6.7050
       157                         -0.2444681              -6.6523
       158                         -0.2412923              -6.5659
       159                         -0.2342665              -6.3747
       160                         -0.2314838              -6.2990
       ...                                ...                  ...
       293                          1.1742447              31.9528
      -------------------------------------------------------------
                  HL-Gap            0.0680244 Eh            1.8510 eV

     #   Z          covCN         q      C6AA      α(0)
     1   7 N        0.911    -0.237    26.203     7.403
     2   6 C        1.912     0.111    28.356     8.600
     3   6 C        2.974     0.016    27.640     8.624
     4   6 C        2.924    -0.021    28.528     8.759
     5   6 C        2.923    -0.032    28.790     8.799
     6   6 C        2.977     0.019    27.587     8.616
     7   6 C        2.975     0.005    27.905     8.665
     8   6 C        2.922    -0.034    28.837     8.806
     9   6 C        2.919    -0.031    28.762     8.795
    10   6 C        2.986     0.003    27.939     8.671
    11   6 C        2.978    -0.001    28.050     8.687
    12   6 C        2.928    -0.039    28.964     8.826
    13   6 C        2.978     0.002    27.978     8.676
    14   6 C        2.928    -0.038    28.947     8.823
    15   6 C        2.974     0.004    27.920     8.667
    16   6 C        2.977     0.018    27.601     8.618
    17   6 C        2.924    -0.032    28.787     8.799
    18   6 C        2.924    -0.021    28.521     8.758
    19   6 C        2.974     0.017    27.628     8.622
    20   6 C        1.912     0.111    28.356     8.600
    21   7 N        0.911    -0.236    26.167     7.398
    22   6 C        2.924    -0.021    28.523     8.758
    23   6 C        2.924    -0.031    28.776     8.797
    24   6 C        2.921    -0.035    28.877     8.812
    25   6 C        2.917    -0.040    28.994     8.830
    26   6 C        2.978    -0.001    28.054     8.688
    27   6 C        3.073     0.021    27.468     8.593
    28   6 C        3.207     0.059    26.097     8.318
    29   7 N        1.895    -0.290    28.365     7.896
    30   6 C        3.192     0.130    24.708     8.107
    31   6 C        2.974    -0.002    28.062     8.689
    32   6 C        2.920    -0.035    28.874     8.812
    33   6 C        2.924    -0.035    28.875     8.812
    34   6 C        2.976     0.013    27.722     8.637
    35   6 C        2.976     0.000    28.020     8.683
    36   6 C        2.924    -0.034    28.850     8.808
    37   6 C        2.920    -0.049    29.219     8.864
    38   6 C        2.924     0.065    26.554     8.451
    39   7 N        2.752    -0.074    22.680     7.073
    40   6 C        2.925     0.065    26.548     8.450
    41   6 C        2.922    -0.047    29.173     8.857
    42   6 C        2.920    -0.029    28.727     8.789
    43   6 C        2.919    -0.038    28.939     8.822
    44   6 C        2.920    -0.029    28.723     8.789
    45   6 C        2.922    -0.047    29.169     8.857
    46   6 C        2.924     0.065    26.545     8.449
    47   6 C        2.922    -0.047    29.177     8.858
    48   6 C        2.920    -0.029    28.730     8.790
    49   6 C        2.919    -0.038    28.945     8.822
    50   6 C        2.920    -0.029    28.725     8.789
    51   6 C        2.922    -0.047    29.172     8.857
    52   6 C        2.920    -0.049    29.210     8.863
    53   6 C        2.924    -0.034    28.841     8.807
    54   6 C        2.923    -0.033    28.833     8.806
    55   6 C        2.927    -0.028    28.704     8.786
    56   7 N        2.841    -0.045    22.101     6.982
    57   6 C        2.913     0.069    26.466     8.436
    58   6 C        2.922    -0.037    28.923     8.819
    59   6 C        2.920    -0.025    28.632     8.775
    60   6 C        2.920    -0.029    28.732     8.790
    61   6 C        2.920    -0.027    28.672     8.781
    62   6 C        2.921    -0.037    28.916     8.818
    63   6 C        2.924    -0.031    28.775     8.797
    64   6 C        2.924    -0.021    28.523     8.758
    65   1 H        0.926     0.041     2.441     2.443
    66   1 H        0.926     0.038     2.473     2.459
    67   1 H        0.926     0.035     2.519     2.482
    68   1 H        0.926     0.055     2.254     2.348
    69   1 H        0.926     0.033     2.539     2.492
    70   1 H        0.926     0.037     2.493     2.469
    71   1 H        0.926     0.039     2.460     2.453
    72   1 H        0.926     0.042     2.427     2.436
    73   1 H        0.926     0.041     2.433     2.439
    74   1 H        0.926     0.039     2.459     2.452
    75   1 H        0.926     0.031     2.569     2.507
    76   1 H        0.926     0.030     2.588     2.516
    77   1 H        0.926     0.026     2.645     2.543
    78   1 H        0.926     0.033     2.539     2.492
    79   1 H        0.926     0.032     2.555     2.499
    80   1 H        0.926     0.032     2.551     2.498
    81   1 H        0.926     0.032     2.563     2.503
    82   1 H        0.926     0.032     2.555     2.500
    83   1 H        0.926     0.031     2.569     2.506
    84   1 H        0.926     0.032     2.553     2.498
    85   1 H        0.926     0.032     2.558     2.501
    86   1 H        0.926     0.032     2.564     2.504
    87   1 H        0.926     0.032     2.562     2.503
    88   1 H        0.926     0.031     2.574     2.509
    89   1 H        0.926     0.032     2.555     2.500
    90   1 H        0.926     0.032     2.557     2.501
    91   1 H        0.926     0.034     2.537     2.491
    92   1 H        0.926     0.036     2.508     2.477
    93   1 H        0.926     0.038     2.473     2.459
    94   1 H        0.926     0.052     2.297     2.370
    95   1 H        0.926     0.041     2.437     2.441
    96   1 H        0.926     0.042     2.425     2.435
    97   1 H        0.926     0.041     2.436     2.441
    98   1 H        0.926     0.042     2.429     2.437
    99   1 H        0.926     0.042     2.416     2.431
   100   1 H        0.926     0.041     2.438     2.442
   101   1 H        0.926     0.041     2.434     2.440

molecular dipole:
                 x           y           z       tot (Debye)
 q only:        3.800       1.090       0.077
   full:        4.444       1.597       0.069      12.005

 projected vibrational frequencies (cm⁻¹)
eigval :       -0.00    -0.00    -0.00    -0.00     0.00     0.00
eigval :        6.36     7.23    10.13    14.43    20.05    23.62
eigval :       30.04    31.69    33.42    38.10    43.55    45.47
eigval :       49.45    50.35    56.16    60.77    66.19    73.80
eigval :       78.73    84.99    87.66   100.70   106.88   107.77
eigval :      114.73   117.55   133.44   143.57   147.12   152.73
eigval :      171.90   184.56   193.09   203.08   205.24   223.65
eigval :      234.28   245.36   247.62   252.36   269.05   288.89
eigval :      296.47   309.32   317.39   322.35   329.17   354.13
eigval :      366.30   366.97   373.17   375.80   377.78   381.12
eigval :      384.11   385.81   387.38   394.54   405.20   418.94
eigval :      420.61   426.64   430.90   451.70   455.02   468.44
eigval :      472.45   479.38   484.84   491.30   503.61   508.24
eigval :      520.58   533.13   534.51   538.16   546.28   548.69
eigval :      568.01   569.37   582.78   584.41   587.83   589.85
eigval :      593.90   596.34   604.14   605.61   613.04   616.69
eigval :      629.01   632.02   643.63   654.34   659.70   664.91
eigval :      669.51   677.90   682.43   683.17   685.95   688.90
eigval :      695.94   701.88   708.02   716.67   735.36   736.29
eigval :      757.30   759.30   768.04   769.42   793.89   806.76
eigval :      807.29   810.31   815.80   830.72   833.76   839.12
eigval :      859.39   867.14   867.67   870.75   873.30   874.87
eigval :      875.73   876.49   877.06   885.62   892.72   893.23
eigval :      901.82   910.11   914.37   914.87   915.84   917.26
eigval :      919.53   922.08   923.87   924.92   927.83   928.14
eigval :      928.91   929.03   929.26   929.31   929.71   931.84
eigval :      933.08   947.84   950.82   977.11   988.33   999.17
eigval :     1005.19  1010.43  1012.67  1026.78  1040.46  1071.52
eigval :     1079.27  1081.25  1082.67  1083.20  1084.17  1102.49
eigval :     1115.25  1121.82  1124.00  1134.96  1136.59  1138.45
eigval :     1140.48  1148.29  1159.52  1179.54  1180.67  1180.69
eigval :     1180.79  1187.14  1187.64  1189.32  1190.15  1195.57
eigval :     1195.78  1203.89  1204.62  1217.63  1224.09  1233.95
eigval :     1240.03  1247.00  1266.00  1267.86  1269.24  1274.16
eigval :     1274.77  1278.71  1280.44  1280.77  1288.26  1295.39
eigval :     1301.49  1309.96  1313.01  1313.18  1314.46  1314.53
eigval :     1319.08  1322.61  1326.85  1326.93  1329.51  1336.15
eigval :     1338.55  1351.05  1377.03  1391.40  1392.25  1398.35
eigval :     1409.13  1414.18  1416.84  1428.73  1433.86  1436.58
eigval :     1438.77  1443.12  1461.45  1472.07  1476.40  1478.09
eigval :     1485.56  1486.92  1494.38  1498.32  1520.40  1537.05
eigval :     1545.01  1549.83  1551.87  1555.56  1563.11  1570.52
eigval :     1577.58  1581.07  1581.45  1582.76  1585.34  1586.85
eigval :     1593.74  1594.97  1595.31  1598.97  1601.08  1605.06
eigval :     2372.56  2373.35  3075.69  3076.34  3076.46  3077.14
eigval :     3077.78  3079.95  3080.08  3080.84  3081.03  3082.24
eigval :     3082.32  3082.61  3084.56  3085.11  3085.36  3085.61
eigval :     3086.11  3086.79  3088.78  3089.77  3090.07  3091.04
eigval :     3091.54  3092.40  3092.71  3093.90  3094.18  3094.53
eigval :     3096.06  3097.27  3097.76  3098.41  3103.21  3105.17
eigval :     3107.69  3108.71  3116.48

   temp. (K)  partition function   enthalpy   heat capacity  entropy
                                   cal/mol     cal/K/mol   cal/K/mol   J/K/mol
 298.15  VIB  0.889E+26            30769.205    187.576    195.887
         ROT  0.350E+09              888.752      2.981     42.079
         INT  0.312E+35            31657.957    190.557    237.966
         TR   0.226E+29             1481.254      4.968     45.954
         TOT                       33139.2114   195.5255   283.9208  1187.9246

       T/K    H(0)-H(T)+PV         H(T)/Eh          T*S/Eh         G(T)/Eh
   ------------------------------------------------------------------------
    298.15    0.528107E-01    0.818271E+00    0.134900E+00    0.683371E+00
   ------------------------------------------------------------------------

         :::::::::::::::::::::::::::::::::::::::::::::::::::::
         ::                  THERMODYNAMIC                  ::
         :::::::::::::::::::::::::::::::::::::::::::::::::::::
         :: total free energy        -159.122207437428 Eh   ::
         ::.................................................::
         :: total energy             -159.805578054958 Eh   ::
         :: zero point energy           0.765459853137 Eh   ::
         :: G(RRHO) w/o ZPVE           -0.082089235607 Eh   ::
         :: G(RRHO) contrib.            0.683370617530 Eh   ::
         :::::::::::::::::::::::::::::::::::::::::::::::::::::

           -------------------------------------------------
          | TOTAL ENERGY             -159.805578054958 Eh   |
          | TOTAL ENTHALPY           -158.987307506964 Eh   |
          | TOTAL FREE ENERGY        -159.122207437428 Eh   |
          | GRADIENT NORM               0.000041497527 Eh/α |
          | HOMO-LUMO GAP               1.851037568663 eV   |
           -------------------------------------------------

 * finished run on 2025/07/20 at 02:53:15.181
