   * xtb version 6.7.1 (edcfbbe) compiled by 'albert@albert-system' on 2024-07-22

   ID    Z sym.   atoms
    1    7 N      1, 21, 29, 39, 56
    2    6 C      2-20, 22-28, 30-38, 40-55, 57-64
    3    1 H      65-101

          program call               : xtb data2507/gas/TBPM2CN/TBPM2CN_gas_S0_finalOpt.xtbopt.xyz --gfn 2 --spinpol --tblite --uhf 2 --ohess vtight --parallel 40 --molden --ceasefiles --namespace data2507/gas/TBPM2CN/TBPM2CN_gas_T1_preOpt
 * total energy  :  -159.7198949 Eh     change       -0.2503168E-07 Eh
 * total energy  :  -159.7239988 Eh     change       -0.4103917E-02 Eh
 * total energy  :  -159.7257594 Eh     change       -0.1760638E-02 Eh
 * total energy  :  -159.7257289 Eh     change        0.3055510E-04 Eh
 * total energy  :  -159.7264336 Eh     change       -0.7047033E-03 Eh
 * total energy  :  -159.7267731 Eh     change       -0.3395157E-03 Eh
 * total energy  :  -159.7271936 Eh     change       -0.4204960E-03 Eh
 * total energy  :  -159.7273921 Eh     change       -0.1985360E-03 Eh
 * total energy  :  -159.7275322 Eh     change       -0.1400409E-03 Eh
 * total energy  :  -159.7276456 Eh     change       -0.1134501E-03 Eh
 * total energy  :  -159.7282251 Eh     change       -0.4309672E-06 Eh
 * total energy  :  -159.7282255 Eh     change       -0.4219677E-06 Eh
 * total energy  :  -159.7282256 Eh     change       -0.1364497E-06 Eh
 * total energy  :  -159.7282260 Eh     change       -0.4156711E-06 Eh
 * total energy  :  -159.7282264 Eh     change       -0.3928962E-06 Eh
 * total energy  :  -159.7282268 Eh     change       -0.3682883E-06 Eh
 * total energy  :  -159.7282273 Eh     change       -0.4638387E-06 Eh
 * total energy  :  -159.7282275 Eh     change       -0.2261863E-06 Eh
 * total energy  :  -159.7282275 Eh     change       -0.7397063E-08 Eh
   *** GEOMETRY OPTIMIZATION CONVERGED AFTER 94 ITERATIONS ***

 final structure:
================
101
 xtb: 6.7.1 (edcfbbe)
N          -10.88707234449979       -7.27021439966519       -0.52538986082010
C           -9.97181589374236       -6.58175186854660       -0.45848221972687
C           -8.84357686383415       -5.73739126261104       -0.37688610548484
C           -8.87758576636096       -4.59593811958615        0.42701667748313
C           -7.77262042232054       -3.77562408313402        0.50047054830747
C           -6.60998263863484       -4.07130854336259       -0.21501600214014
C           -5.43373228162174       -3.19954778817558       -0.13060037608501
C           -4.14867304825054       -3.74840621647936       -0.07459941129488
C           -3.05488931501636       -2.92060866154962       -0.00466615618671
C           -3.21295770229099       -1.53169349354491        0.00923461606970
C           -4.49924277270238       -0.94659132737950       -0.02855459525106
C           -5.58758436545796       -1.81689852653103       -0.10539707182722
C           -4.64772581567550        0.50419964959860        0.02295369524888
C           -5.89723624006030        1.09965088608250        0.07719422504164
C           -6.08838730673714        2.48225931398887        0.16999283691672
C           -7.42311439571001        3.05021386831188        0.22620569415147
C           -8.50013922261888        2.44078136602706       -0.43733096874868
C           -9.76407517226368        2.97783122000727       -0.38994432959251
C          -10.00163899168654        4.15104431376960        0.33631066494926
C          -11.29398636776046        4.70450372325434        0.39137568999881
N          -12.34875503468044        5.15803868178119        0.43683550922822
C           -8.93913664784173        4.76963693649277        1.00636938454038
C           -7.67743522676679        4.22894440873636        0.94531962545629
C           -4.94198888562454        3.30091773006768        0.22235215622746
C           -3.69348564104055        2.75876117145698        0.15568874767822
C           -3.49169903597598        1.36002251848396        0.04542178224437
C           -2.23335249026761        0.75210176201786       -0.00604995166662
C           -2.08290288110611       -0.66805418551198        0.03659249817937
N           -0.80254043280594       -1.00869664555929        0.08356140708069
C           -0.09201306035836        0.12646894404418        0.03616344446177
C            1.31494050533737        0.11659632061890       -0.00755482686437
C            2.14136529195576        1.21395821483632       -0.36344633093261
C            3.50041434567460        1.09805295085356       -0.36635049883340
C            4.15620255055284       -0.11075447689364       -0.03256452645911
C            5.59007951972544       -0.21253903487371       -0.02629507375408
C            6.41040174824546        0.91945781832877        0.16170353047661
C            7.77785321071213        0.82628826312925        0.17083128380980
C            8.41329341254460       -0.41021390955901       -0.01158004435559
N            9.80001862679568       -0.50724690108437       -0.00513059473100
C           10.42300580362936       -1.64690227524851        0.51618628483776
C            9.90367929271077       -2.28073390796018        1.64578776355349
C           10.52195583198770       -3.40533543821720        2.15553538804705
C           11.66402335600213       -3.91131424178870        1.55533407212120
C           12.18508658830178       -3.28323625124474        0.43521130866858
C           11.57202608601915       -2.16101828722688       -0.08603572880162
C           10.58050717548934        0.53322743624643       -0.52121683052299
C           10.16332781445191        1.23384076493066       -1.65378128263514
C           10.93704897037692        2.26033244152358       -2.15822015546609
C           12.13478537376080        2.60076781758828       -1.54985114755821
C           12.55471610298542        1.90551624525829       -0.42692139348268
C           11.78640449770637        0.88068150616497        0.08910048286582
C            7.61342180254708       -1.54624729728008       -0.20080851715514
C            6.24636730494865       -1.44805454599177       -0.20585297415259
C            3.32703282204023       -1.21695023139753        0.27899395503642
C            1.97066065565322       -1.11152961612896        0.29021376238952
N           -0.94805484479575        1.24142753971654       -0.01357441849732
C           -0.54900282635771        2.58963085879366        0.00808062454088
C            0.07751530319630        3.10725104577651        1.13847948887841
C            0.47857776503485        4.43010721379860        1.15388286909674
C            0.25762811253858        5.23975022841743        0.05115964618353
C           -0.36726059181587        4.72427121003247       -1.07369060219684
C           -0.77120482074931        3.40256896616382       -1.10131378415418
C           -6.58729614887147       -5.21762609518557       -1.01286362119066
C           -7.68779468354645       -6.04228906001952       -1.09942960016255
H           -9.77124503811857       -4.36638964543746        0.98882253541302
H           -7.79758161185144       -2.90587011873702        1.14036506679628
H           -4.02229491729542       -4.82062974729063       -0.06534044531502
H           -2.05143187513660       -3.31434044882808        0.03630110694348
H           -6.59056174904600       -1.42783393286645       -0.17848372705040
H           -6.77856618271309        0.47952163357785        0.09395242100836
H           -8.32864214231223        1.55192139068160       -1.02628836315238
H          -10.58168703238620        2.50526251320766       -0.91504242459160
H           -9.12366935285389        5.67073992161829        1.57336126929021
H           -6.87439347650436        4.70381707810636        1.48884558565556
H           -5.05226701863879        4.37282302056830        0.28642907061153
H           -2.83539127912689        3.40909158370581        0.20212226980087
H            1.69702382557667        2.14398842484095       -0.67868038259269
H            4.08955204266459        1.94660206714620       -0.68082270950630
H            5.95570886658786        1.87978330415731        0.34884388230164
H            8.37946193662304        1.70680848315318        0.34457241784553
H            9.02206762292935       -1.87781898194270        2.12212948288841
H           10.11412825062073       -3.88496176233653        3.03274462599176
H           12.14528421543064       -4.78912153529629        1.95822181841295
H           13.07139273983109       -3.67484025443884       -0.04121844792309
H           11.97158911242404       -1.67925717613217       -0.96631810877926
H            9.23730038744075        0.95866464318821       -2.13674429942182
H           10.60676053299743        2.79240358356291       -3.03784533337319
H           12.73747998936630        3.40212546748073       -1.94870559681811
H           13.48415582753019        2.16841699436377        0.05568779311122
H           12.10842760953941        0.34734989226001        0.97141733491758
H            8.08811435131125       -2.50218183299935       -0.36860460334956
H            5.66464898266939       -2.33581348296835       -0.39812032403616
H            3.78124627609050       -2.15661522225557        0.55408371521845
H            1.34899203052292       -1.95439633147698        0.54618443817330
H            0.24820570371180        2.46586290461182        1.99028641002352
H            0.96230171094847        4.83123323485685        2.03174901063292
H            0.57198763209015        6.27220208414761        0.06755972619840
H           -0.53809464979717        5.35294991847997       -1.93467420319897
H           -1.25894191256747        2.99001570587652       -1.97240658780113
H           -5.70230209492847       -5.44755621169913       -1.58741521434290
H           -7.66720845467618       -6.92350922669397       -1.72390093371684

 projected vibrational frequencies (cm⁻¹)
eigval :       -0.00    -0.00    -0.00     0.00     0.00     0.00
eigval :        4.89     6.37    11.01    13.44    18.65    24.04
eigval :       26.52    29.08    33.55    37.71    43.24    45.12
eigval :       47.51    49.81    56.17    59.46    67.50    72.61
eigval :       76.09    86.02    92.38   100.38   106.51   107.55
eigval :      115.07   119.35   134.44   141.93   146.23   151.66
eigval :      166.18   183.34   193.15   204.85   208.12   223.58
eigval :      233.37   241.59   247.65   251.18   259.12   285.01
eigval :      293.02   305.22   318.52   320.51   322.82   340.30
eigval :      366.48   366.95   370.35   373.24   375.30   377.43
eigval :      381.18   382.88   386.55   390.20   402.28   405.78
eigval :      409.78   422.07   425.28   440.11   446.72   452.96
eigval :      462.37   467.70   472.51   481.49   496.16   508.62
eigval :      513.36   518.90   527.02   533.64   537.13   542.22
eigval :      556.80   565.47   580.86   581.25   585.34   588.50
eigval :      590.97   592.76   598.44   604.67   609.97   610.46
eigval :      615.19   625.43   630.39   645.15   656.78   660.58
eigval :      662.47   667.39   669.52   675.32   679.56   681.48
eigval :      685.66   686.84   695.60   710.66   727.00   728.61
eigval :      751.11   757.20   761.30   765.72   784.78   798.20
eigval :      798.83   808.21   810.70   816.53   820.13   825.69
eigval :      836.79   845.73   847.62   857.33   862.59   869.96
eigval :      872.86   873.21   874.18   881.20   894.38   895.02
eigval :      897.66   906.35   908.10   908.85   910.45   912.58
eigval :      912.88   915.13   916.40   919.80   920.13   920.43
eigval :      925.16   927.37   927.98   928.31   929.38   929.42
eigval :      929.68   930.56   937.65   960.91   980.04   985.74
eigval :      994.88  1003.46  1005.84  1008.16  1027.37  1046.21
eigval :     1058.65  1069.23  1077.60  1081.22  1082.47  1087.59
eigval :     1098.21  1114.87  1121.53  1123.64  1134.47  1137.11
eigval :     1138.78  1140.01  1146.76  1156.13  1171.87  1179.76
eigval :     1179.87  1179.92  1180.95  1184.04  1186.13  1192.64
eigval :     1192.83  1194.54  1199.10  1215.65  1220.60  1235.83
eigval :     1237.19  1239.34  1247.18  1258.92  1265.39  1268.25
eigval :     1270.77  1274.40  1275.17  1278.01  1279.74  1282.23
eigval :     1297.85  1303.39  1306.01  1311.26  1313.32  1314.56
eigval :     1317.64  1319.33  1320.54  1323.94  1326.58  1331.72
eigval :     1333.56  1344.73  1355.81  1364.26  1393.31  1400.00
eigval :     1409.45  1414.35  1416.44  1422.54  1430.76  1432.76
eigval :     1433.55  1435.33  1440.56  1443.31  1459.65  1462.08
eigval :     1464.38  1465.45  1469.70  1472.82  1481.28  1486.58
eigval :     1497.50  1501.04  1512.55  1523.44  1535.20  1540.52
eigval :     1545.01  1556.65  1570.67  1571.08  1571.85  1575.27
eigval :     1583.36  1584.42  1585.24  1586.07  1589.17  1592.47
eigval :     2343.36  2360.40  3077.30  3077.96  3079.17  3079.75
eigval :     3080.78  3080.78  3081.56  3081.85  3082.23  3082.34
eigval :     3082.37  3082.58  3083.95  3086.44  3086.80  3087.15
eigval :     3089.44  3089.55  3090.34  3090.88  3092.37  3093.10
eigval :     3093.19  3093.82  3093.91  3095.34  3098.46  3099.42
eigval :     3101.77  3101.89  3102.13  3102.39  3107.40  3112.15
eigval :     3112.76  3116.95  3123.16

   temp. (K)  partition function   enthalpy   heat capacity  entropy
                                   cal/mol     cal/K/mol   cal/K/mol   J/K/mol
 298.15  VIB  0.234E+27            31068.107    189.351    197.889
         ROT  0.353E+09              888.752      2.981     42.095
         INT  0.825E+35            31956.859    192.331    239.984
         TR   0.226E+29             1481.254      4.968     45.954
         TOT                       33438.1131   197.2996   285.9384  1196.3662

       T/K    H(0)-H(T)+PV         H(T)/Eh          T*S/Eh         G(T)/Eh
   ------------------------------------------------------------------------
    298.15    0.532870E-01    0.814377E+00    0.135859E+00    0.678518E+00
   ------------------------------------------------------------------------

         :::::::::::::::::::::::::::::::::::::::::::::::::::::
         ::                  THERMODYNAMIC                  ::
         :::::::::::::::::::::::::::::::::::::::::::::::::::::
         :: total free energy        -159.049709120880 Eh   ::
         ::.................................................::
         :: total energy             -159.728227479145 Eh   ::
         :: zero point energy           0.761089886097 Eh   ::
         :: G(RRHO) w/o ZPVE           -0.082571527833 Eh   ::
         :: G(RRHO) contrib.            0.678518358265 Eh   ::
         :::::::::::::::::::::::::::::::::::::::::::::::::::::

           -------------------------------------------------
          | TOTAL ENERGY             -159.728227479145 Eh   |
          | TOTAL ENTHALPY           -158.913850567927 Eh   |
          | TOTAL FREE ENERGY        -159.049709120880 Eh   |
          | GRADIENT NORM               0.000057795466 Eh/α |
           -------------------------------------------------

 * finished run on 2025/07/20 at 02:53:41.897
