   * xtb version 6.7.1 (edcfbbe) compiled by 'albert@albert-system' on 2024-07-22

   ID    Z sym.   atoms
    1    7 N      1, 21, 29, 39, 56
    2    6 C      2-20, 22-28, 30-38, 40-55, 57-64
    3    1 H      65-101

          program call               : xtb data2507/gas/TBPM2CN/TBPM2CN_gas_T1_crest.xyz --gfn 2 --spinpol --tblite --uhf 2 --ohess vtight --parallel 40 --molden --ceasefiles --namespace data2507/gas/TBPM2CN/TBPM2CN_gas_T1_finalOpt
 * total energy  :  -159.7281934 Eh     change        0.3295440E-08 Eh
 * total energy  :  -159.7282003 Eh     change       -0.6851299E-05 Eh
 * total energy  :  -159.7282032 Eh     change       -0.2984070E-05 Eh
 * total energy  :  -159.7282053 Eh     change       -0.2098654E-05 Eh
 * total energy  :  -159.7282068 Eh     change       -0.1420646E-05 Eh
 * total energy  :  -159.7282095 Eh     change       -0.2792128E-05 Eh
 * total energy  :  -159.7282127 Eh     change       -0.3173690E-05 Eh
 * total energy  :  -159.7282140 Eh     change       -0.1281015E-05 Eh
 * total energy  :  -159.7282150 Eh     change       -0.1044430E-05 Eh
 * total energy  :  -159.7282158 Eh     change       -0.7844338E-06 Eh
 * total energy  :  -159.7282280 Eh     change       -0.2891331E-06 Eh
 * total energy  :  -159.7282284 Eh     change       -0.3388560E-06 Eh
 * total energy  :  -159.7282287 Eh     change       -0.3701967E-06 Eh
 * total energy  :  -159.7282291 Eh     change       -0.4193159E-06 Eh
 * total energy  :  -159.7282296 Eh     change       -0.4203346E-06 Eh
 * total energy  :  -159.7282299 Eh     change       -0.3404043E-06 Eh
 * total energy  :  -159.7282303 Eh     change       -0.3766334E-06 Eh
 * total energy  :  -159.7282305 Eh     change       -0.2453081E-06 Eh
 * total energy  :  -159.7282306 Eh     change       -0.9275607E-07 Eh
   *** GEOMETRY OPTIMIZATION CONVERGED AFTER 44 ITERATIONS ***

 final structure:
================
101
 xtb: 6.7.1 (edcfbbe)
N          -10.83459984570074       -7.35654249142965       -0.51380834234574
C           -9.92471943513018       -6.66067597639918       -0.45029552068369
C           -8.80336275606753       -5.80681145982304       -0.37287544990252
C           -8.84593966954040       -4.66313097971745        0.42744530257603
C           -7.74757571751750       -3.83371872265416        0.49740961807155
C           -6.58313662378915       -4.12222899024699       -0.21809477638416
C           -5.41354208307033       -3.24136811232311       -0.13588232676706
C           -4.12443085120753       -3.78055419636863       -0.07911388528619
C           -3.03690571423676       -2.94456115634646       -0.00921395847202
C           -3.20534920463369       -1.55686052408154        0.00394954563948
C           -4.49594891375060       -0.98134791405268       -0.03542574678973
C           -5.57768676062731       -1.85983843684717       -0.11223670513807
C           -4.65532215062457        0.46836668658032        0.01525161998485
C           -5.90919615979089        1.05485454116913        0.06589230800994
C           -6.11049614533766        2.43609754502967        0.15849241308158
C           -7.44931327438312        2.99470846836766        0.20990785154563
C           -8.51966525628183        2.37769009233019       -0.45743038237502
C           -9.78740345628321        2.90610189099857       -0.41499799239167
C          -10.03572403951008        4.07794486777405        0.30987947152095
C          -11.33206869379502        4.62248672766941        0.35983338963874
N          -12.39014199290771        5.06862932794190        0.40100693907284
C           -8.97999766063833        4.70404116963846        0.98367281665233
C           -7.71442494834875        4.17194490936590        0.92761108235243
C           -4.97014632054206        3.26289883803436        0.21530067019342
C           -3.71764470074525        2.72976472110994        0.15170546820604
C           -3.50562830936931        1.33261157456266        0.04050183981163
C           -2.24283472511109        0.73408239881074       -0.00968862959854
C           -2.08173899960208       -0.68491484646417        0.03247890347002
N           -0.79887956480481       -1.01585758936798        0.08046214309652
C           -0.09691084484296        0.12468501641392        0.03402674124619
C            1.31008629574749        0.12561230778927       -0.00884217950060
C            2.12814644011863        1.22965259072560       -0.36340232126878
C            3.48806570636596        1.12445676657411       -0.36508983836926
C            4.15277735373354       -0.07950968054189       -0.03187150185279
C            5.58741677173901       -0.17012251036588       -0.02437439870812
C            6.39860148922112        0.96744630973478        0.16899596579132
C            7.76674057030360        0.88461801978108        0.18056946973268
C            8.41176046722206       -0.34637666731723       -0.00521235833201
N            9.79908951211652       -0.43381915600155        0.00497896436967
C           10.42735720859501       -1.57228631766793        0.52281599393805
C            9.90897713567126       -2.21358681795226        1.64861861546372
C           10.53144327341064       -3.33768401996933        2.15432790260042
C           11.67687166772956       -3.83564234917791        1.55381741050672
C           12.19726045812134       -3.19982562971308        0.43775755623306
C           11.58002866919790       -2.07798887022090       -0.07943635693858
C           10.57466796423570        0.61429573817604       -0.50274991253500
C           10.15629103350933        1.31963161779335       -1.63195345538581
C           10.92516429204275        2.35394668942824       -2.12775694680511
C           12.11929194774387        2.69759853049946       -1.51412294910645
C           12.54055482691786        1.99753447058060       -0.39468943427243
C           11.77702476054814        0.96488734583603        0.11277095339252
C            7.62090808662708       -1.48762091971959       -0.20094781813007
C            6.25317553757265       -1.39988520009314       -0.20784233469121
C            3.33220188365546       -1.19250691987139        0.27796825658404
C            1.97503738395289       -1.09764201313907        0.28845195965558
N           -0.96132444869778        1.23313627849144       -0.01569173338287
C           -0.57286735485159        2.58444950525693        0.00380134075281
C            0.04906615927224        3.10919447718296        1.13344973871446
C            0.43992263324516        4.43514033266620        1.14626242384514
C            0.21324909725624        5.24077188334069        0.04175873336816
C           -0.40727188395233        4.71822401835229       -1.08225069784956
C           -0.80100513188489        3.39340977370721       -1.10729858022066
C           -6.55199551834729       -5.27062299012247       -1.01268285528368
C           -7.64586240337503       -6.10443751148136       -1.09569589659887
H           -9.74089916378673       -4.43912902733582        0.98942013564044
H           -7.77898528186805       -2.96231051345999        1.13475761848427
H           -3.99001898003649       -4.85178978486788       -0.06898557593371
H           -2.03055634430693       -3.33075804870264        0.03259703918479
H           -6.58350530721060       -1.47830647188758       -0.18601748442824
H           -6.78614476631970        0.42846498568833        0.07960653220680
H           -8.33988521731180        1.48985333673980       -1.04545812305349
H          -10.59977878324882        2.42776937487350       -0.94299536705748
H           -9.17278264690746        5.60409348933852        1.54958808719812
H           -6.91675600959692        4.65254838764776        1.47400030403325
H           -5.08822640980087        4.33391763696862        0.28018508664549
H           -2.86429626720935        3.38608595918219        0.20137938961652
H            1.67682828417505        2.15632230105405       -0.67852178279454
H            4.07100671081265        1.97775078256456       -0.67829458434548
H            5.93609013038917        1.92354278579190        0.35866889547131
H            8.36128404564503        1.76898153074226        0.35900368705445
H            9.02456167795256       -1.81697453768423        2.12505792669139
H           10.12414892922453       -3.82327087287231        3.02849659037813
H           12.16123277863988       -4.71327989945900        1.95333666535291
H           13.08625030124058       -3.58514543101073       -0.03878622789076
H           11.97903270571962       -1.59016875243799       -0.95663241580185
H            9.23321258848321        1.04206162988427       -2.11917068624982
H           10.59393022652106        2.88974103400307       -3.00476427943647
H           12.71815375870592        3.50515448129242       -1.90618786099635
H           13.46721779131939        2.26277608099850        0.09196219711175
H           12.10000114607861        0.42781950545891        0.99246821286808
H            8.10315175162850       -2.43919855734521       -0.37188827587360
H            5.67837512693072       -2.29116791362317       -0.40458327240273
H            3.79374011695515       -2.12877256363353        0.55248426111783
H            1.35972404201460       -1.94547583097378        0.54335510955229
H            0.22438930503879        2.47088940631541        1.98662938671468
H            0.92018128277532        4.84180558916057        2.02348261920178
H            0.51971943525025        6.27562223817346        0.05612824402056
H           -0.58259833351948        5.34378539504554       -1.94459710882691
H           -1.28527039349392        2.97529433097219       -1.97767234213101
H           -5.66575023336799       -5.49514921665312       -1.58744458948744
H           -7.61868092499136       -6.98738376672173       -1.71747245179246

 projected vibrational frequencies (cm⁻¹)
eigval :       -0.00    -0.00    -0.00     0.00     0.00     0.00
eigval :        4.55     5.93    10.70    13.38    18.44    23.74
eigval :       26.69    28.47    33.35    37.44    43.06    45.00
eigval :       47.92    49.66    55.96    59.30    67.32    72.41
eigval :       75.99    85.79    92.30   100.21   106.48   107.46
eigval :      115.01   119.34   134.29   141.71   146.13   151.67
eigval :      166.07   183.26   193.13   204.78   208.05   223.60
eigval :      233.27   241.60   247.60   251.23   259.01   284.92
eigval :      293.21   305.11   318.44   320.46   322.67   340.26
eigval :      366.36   366.77   370.22   373.05   375.16   377.33
eigval :      381.01   382.76   386.61   390.08   402.21   405.66
eigval :      409.82   422.03   425.43   440.01   446.63   452.86
eigval :      462.39   467.63   472.42   481.36   496.06   508.50
eigval :      513.29   518.89   526.89   533.59   537.05   542.11
eigval :      556.64   565.49   580.87   581.23   585.31   588.47
eigval :      590.97   592.75   598.43   604.63   609.88   610.45
eigval :      615.16   625.37   630.42   645.15   656.76   660.53
eigval :      662.42   667.35   669.49   675.23   679.61   681.48
eigval :      685.63   686.71   695.57   710.64   726.97   728.61
eigval :      750.78   756.95   760.97   765.61   784.64   797.88
eigval :      798.53   807.92   810.60   816.30   819.83   825.44
eigval :      836.45   845.43   847.18   857.00   862.21   869.62
eigval :      872.60   872.84   873.90   881.02   894.13   894.77
eigval :      897.31   906.14   907.93   908.44   910.20   912.25
eigval :      912.52   914.78   916.09   919.43   919.84   920.17
eigval :      925.13   927.06   927.72   928.14   929.11   929.15
eigval :      929.39   930.19   937.68   960.92   980.05   985.72
eigval :      994.93  1003.39  1005.77  1008.15  1027.26  1046.22
eigval :     1058.69  1069.04  1077.39  1081.04  1082.27  1087.52
eigval :     1097.85  1114.57  1121.20  1123.29  1134.14  1136.75
eigval :     1138.34  1139.67  1146.64  1155.75  1171.59  1179.23
eigval :     1179.34  1179.39  1180.75  1183.72  1185.72  1192.22
eigval :     1192.36  1194.17  1198.91  1215.38  1220.37  1235.60
eigval :     1236.81  1239.18  1247.04  1258.64  1265.10  1267.93
eigval :     1270.46  1274.07  1274.83  1277.66  1279.43  1282.18
eigval :     1297.76  1303.31  1305.86  1311.23  1313.26  1314.42
eigval :     1317.54  1319.28  1320.51  1323.91  1326.53  1331.68
eigval :     1333.54  1344.65  1355.68  1364.18  1393.16  1399.92
eigval :     1409.34  1414.22  1416.54  1422.51  1430.69  1432.60
eigval :     1433.50  1435.23  1440.46  1443.20  1459.74  1462.05
eigval :     1464.20  1465.30  1469.67  1472.70  1481.18  1486.45
eigval :     1497.63  1501.09  1512.38  1523.46  1535.27  1540.47
eigval :     1544.88  1556.80  1570.61  1571.02  1571.73  1575.17
eigval :     1583.52  1584.41  1585.11  1585.88  1589.04  1592.39
eigval :     2343.50  2360.58  3077.09  3077.83  3078.94  3079.62
eigval :     3080.56  3080.58  3081.33  3081.64  3082.02  3082.14
eigval :     3082.15  3082.36  3083.76  3086.24  3086.61  3086.91
eigval :     3089.21  3089.34  3090.12  3090.68  3092.17  3092.87
eigval :     3092.94  3093.56  3093.69  3095.16  3098.26  3099.16
eigval :     3101.59  3101.72  3101.94  3102.17  3107.22  3111.93
eigval :     3112.63  3117.13  3122.88

   temp. (K)  partition function   enthalpy   heat capacity  entropy
                                   cal/mol     cal/K/mol   cal/K/mol   J/K/mol
 298.15  VIB  0.299E+27            31078.942    189.358    198.146
         ROT  0.353E+09              888.752      2.981     42.095
         INT  0.106E+36            31967.695    192.339    240.241
         TR   0.226E+29             1481.254      4.968     45.954
         TOT                       33448.9486   197.3069   286.1956  1197.4426

       T/K    H(0)-H(T)+PV         H(T)/Eh          T*S/Eh         G(T)/Eh
   ------------------------------------------------------------------------
    298.15    0.533043E-01    0.814294E+00    0.135981E+00    0.678313E+00
   ------------------------------------------------------------------------

         :::::::::::::::::::::::::::::::::::::::::::::::::::::
         ::                  THERMODYNAMIC                  ::
         :::::::::::::::::::::::::::::::::::::::::::::::::::::
         :: total free energy        -159.049917700992 Eh   ::
         ::.................................................::
         :: total energy             -159.728230553201 Eh   ::
         :: zero point energy           0.760989345826 Eh   ::
         :: G(RRHO) w/o ZPVE           -0.082676493616 Eh   ::
         :: G(RRHO) contrib.            0.678312852210 Eh   ::
         :::::::::::::::::::::::::::::::::::::::::::::::::::::

           -------------------------------------------------
          | TOTAL ENERGY             -159.728230553201 Eh   |
          | TOTAL ENTHALPY           -158.913936914774 Eh   |
          | TOTAL FREE ENERGY        -159.049917700992 Eh   |
          | GRADIENT NORM               0.000081668204 Eh/α |
           -------------------------------------------------

 * finished run on 2025/07/20 at 03:06:13.178
