   * xtb version 6.7.1 (edcfbbe) compiled by 'albert@albert-system' on 2024-07-22

   ID    Z sym.   atoms
    1    6 C      1-8, 10-31, 33-36, 38-51, 53-60
    2    7 N      9, 32, 37, 52
    3    1 H      61-98

          program call               : xtb data2507/gas/BDQC-2/BDQC-2_gas_T1_crest.xyz --gfn 2 --spinpol --tblite --uhf 2 --ohess vtight --parallel 40 --molden --ceasefiles --namespace data2507/gas/BDQC-2/BDQC-2_gas_T1_finalOpt
 * total energy  :  -150.9790896 Eh     change        0.9030458E-08 Eh
 * total energy  :  -150.9791167 Eh     change       -0.2706257E-04 Eh
 * total energy  :  -150.9791244 Eh     change       -0.7759534E-05 Eh
 * total energy  :  -150.9791284 Eh     change       -0.3967661E-05 Eh
 * total energy  :  -150.9791328 Eh     change       -0.4419826E-05 Eh
 * total energy  :  -150.9791362 Eh     change       -0.3356917E-05 Eh
 * total energy  :  -150.9791381 Eh     change       -0.1916615E-05 Eh
 * total energy  :  -150.9791393 Eh     change       -0.1149503E-05 Eh
 * total energy  :  -150.9791405 Eh     change       -0.1211411E-05 Eh
 * total energy  :  -150.9791415 Eh     change       -0.1074134E-05 Eh
 * total energy  :  -150.9791458 Eh     change       -0.6666343E-06 Eh
 * total energy  :  -150.9791463 Eh     change       -0.5654263E-06 Eh
 * total energy  :  -150.9791469 Eh     change       -0.5156939E-06 Eh
 * total energy  :  -150.9791473 Eh     change       -0.4265886E-06 Eh
 * total energy  :  -150.9791477 Eh     change       -0.4514245E-06 Eh
 * total energy  :  -150.9791484 Eh     change       -0.6354839E-06 Eh
 * total energy  :  -150.9791491 Eh     change       -0.7200364E-06 Eh
 * total energy  :  -150.9791497 Eh     change       -0.5707364E-06 Eh
 * total energy  :  -150.9791497 Eh     change       -0.1826567E-07 Eh
   *** GEOMETRY OPTIMIZATION CONVERGED AFTER 22 ITERATIONS ***

 final structure:
================
98
 xtb: 6.7.1 (edcfbbe)
C          -10.43626080335448        3.59322690435968        1.58613632410086
C          -10.36113872895662        2.24705050446334        1.26969675533615
C           -9.15030034743789        1.68178636102380        0.91679653782194
C           -7.99183185701565        2.45515159105487        0.86953876552280
C           -6.70526675416701        1.85614192826601        0.49453380148258
C           -6.34705252106856        0.58634237751862        0.94650776438441
C           -5.13700023999705        0.02222537256504        0.60515953828312
C           -4.24424508566647        0.70951961401449       -0.21964209853344
N           -3.01908119626323        0.15556282526011       -0.58028086165235
C           -1.89228699482627        0.98326787639110       -0.70671106405096
C           -1.64039356535336        1.98960287823898        0.22433147479340
C           -0.50099670916114        2.76033358085451        0.12246727264484
C            0.40474824958780        2.56690880162251       -0.91824208193751
C            1.61627584249839        3.39495260983617       -1.01573947032963
C            1.96258699516234        4.00543338373790       -2.21793434063342
C            3.09427466523061        4.79475013166068       -2.30336653162176
C            3.90314830640928        4.97469178219176       -1.19426986866577
C            3.56855380889192        4.36883497514152        0.00475556125125
C            2.43145557987636        3.58803272945071        0.09643207863071
C            0.13410085099267        1.57678926049006       -1.86047039731135
C           -0.99173212001701        0.78765386662012       -1.75326785376679
C           -2.84275888582137       -1.22738639769306       -0.68889990598079
C           -3.85890108892118       -2.04294149922096       -1.21333596712199
C           -3.70384802042149       -3.40976098897757       -1.29772349300262
C           -2.50692194121091       -3.98531163861854       -0.88481143551296
C           -2.00808008365533       -5.32775724349984       -0.80391735814232
C           -2.54064325732806       -6.56946582921806       -1.12723987938350
C           -1.76479883429772       -7.69406303122203       -0.93038702149743
C           -0.46812015994131       -7.59414152437928       -0.42901144876222
C            0.08561667194358       -6.37185801607132       -0.09987946755102
C           -0.69484504562023       -5.23933086369715       -0.27831420775329
N           -0.38513867281091       -3.91646518277477       -0.04884709787125
C            0.82202502267562       -3.37829516164824        0.42347715745478
C            1.38835106355787       -3.81531111322400        1.61221254235521
C            2.53103634577999       -3.20100839181619        2.10416395003476
C            3.12887645937812       -2.14251651483527        1.42825708076731
N            4.16873077242513       -1.46060756727680        1.90340802811510
C            4.74158992390750       -0.46426355524325        1.23722548007440
C            5.74627641620553        0.33062463715958        1.94103549108226
C            6.62948418444317       -0.29574678019870        2.82000902022160
C            7.55428215570694        0.44855260014376        3.52691590380191
C            7.60425526413637        1.82468533860130        3.37667043813890
C            6.71364004268898        2.45586715384114        2.52172559979596
C            5.78763770667012        1.71927344570912        1.81064272699751
C            4.31063845130934       -0.18116476059708       -0.07713275129448
C            5.02261251918551        0.69565368971538       -1.00038445154144
C            6.41327844912684        0.81693529059003       -0.98960981307834
C            7.04926401720332        1.61923716771608       -1.91563951901024
C            6.31775265753403        2.29552933226204       -2.87955651921115
C            4.94099305929201        2.15048008836627       -2.92089787832139
C            4.29724421424368        1.35968788259661       -1.99123459542344
N            3.21493442715695       -0.78560828228041       -0.53074265531942
C            2.57355479387474       -1.72816732750935        0.15569338171779
C            1.42721507988301       -2.35370594141754       -0.30847492167948
C           -1.47114033447170       -3.15078213463027       -0.40393465612252
C           -1.63745367644034       -1.78465270773984       -0.27457689149172
C           -4.59843696166937        1.98074026916452       -0.67773909262069
C           -5.80459109359019        2.54219566993179       -0.31986908902738
C           -8.08049208300261        3.80917772551070        1.18763191701573
C           -9.29146543765557        4.37148750330874        1.54470821413371
H          -11.38241993605571        4.03372558235267        1.86383617452251
H          -11.25162215442693        1.63567528204606        1.29607382783015
H           -9.10241268796655        0.63498514749034        0.65381989352370
H           -7.01424336588364        0.04771376935752        1.60323089166052
H           -4.86612245700114       -0.95083614121576        0.98732108988223
H           -2.33647941296956        2.14861780652716        1.03513666652455
H           -0.31093716733996        3.53196576798110        0.85422696127311
H            1.32711163016890        3.87289537402854       -3.08216455548246
H            3.34611266857619        5.27491807464771       -3.23801192219623
H            4.79057546638405        5.58592249861317       -1.26354384830559
H            4.19416078255953        4.51244411498903        0.87405490311309
H            2.17806138198181        3.10621130217100        1.03029270502727
H            0.82279301099645        1.41328803265154       -2.67654755000188
H           -1.18578286908898        0.01068114025573       -2.47835417425273
H           -4.77430364002999       -1.58070697655849       -1.55112016244020
H           -4.50080701400562       -4.02485668710821       -1.68704149335431
H           -3.54073728334083       -6.64758909638416       -1.52654494872596
H           -2.16189233927940       -8.66848513031352       -1.17331937623139
H            0.11722766760038       -8.49223282042807       -0.29751185936899
H            1.09508864550496       -6.29835694789019        0.27543865076849
H            0.91971792036694       -4.61096090804442        2.17044097963638
H            2.95528103294714       -3.50797695271457        3.04694895271369
H            6.58266698283622       -1.36833505050177        2.93355107679800
H            8.23897521383241       -0.04678997431870        4.19992999392045
H            8.32856223897777        2.40480330528154        3.92902919886798
H            6.73948759566106        3.53062890359441        2.41443684030027
H            5.08675495248314        2.21379547930452        1.15460796139519
H            6.99721969578442        0.26928534336534       -0.26526396651141
H            8.12569871574049        1.70788714229798       -1.89367983178663
H            6.82094709637006        2.91977777928952       -3.60295455261140
H            4.36670000837936        2.65469451823600       -3.68363734577057
H            3.22533189126488        1.24293327785910       -2.01287021037347
H            1.02350580231696       -2.05340921008256       -1.26235894442908
H           -0.86265682051022       -1.16626540494103        0.15134366888846
H           -3.92000858482923        2.51851175892312       -1.32391206271544
H           -6.06833502878104        3.51731778597778       -0.70204781955563
H           -7.18822719085774        4.41829481577920        1.17544656435732
H           -9.34286035470382        5.42139882789159        1.79475029387978

 projected vibrational frequencies (cm⁻¹)
eigval :       -0.00    -0.00    -0.00    -0.00     0.00     0.00
eigval :        6.91    14.96    17.60    20.45    23.39    29.15
eigval :       32.02    36.76    43.54    48.65    55.50    64.69
eigval :       65.84    66.43    72.14    76.26    80.86    89.34
eigval :       96.29   100.17   104.75   105.61   126.22   133.87
eigval :      150.35   157.13   175.21   178.40   193.20   200.84
eigval :      212.64   215.11   222.87   239.87   248.28   261.78
eigval :      281.46   288.55   294.51   303.80   306.69   333.55
eigval :      343.94   351.54   369.31   372.12   372.67   373.73
eigval :      379.02   380.92   383.35   387.63   389.66   393.48
eigval :      401.41   422.71   425.11   433.30   442.16   452.99
eigval :      458.68   474.09   489.43   500.03   513.89   528.87
eigval :      531.72   533.10   535.05   538.04   545.47   556.34
eigval :      569.60   583.06   584.33   586.05   588.65   589.55
eigval :      592.80   598.13   606.48   608.61   613.83   617.14
eigval :      629.44   642.38   664.38   665.29   666.74   667.69
eigval :      668.41   670.78   673.56   684.64   688.05   704.50
eigval :      714.16   717.88   737.94   747.77   756.23   756.91
eigval :      757.31   759.67   773.29   781.92   794.64   801.93
eigval :      817.71   820.25   825.36   831.33   855.79   865.12
eigval :      867.46   869.25   870.46   870.92   873.60   877.83
eigval :      878.68   881.32   885.35   895.81   899.95   900.04
eigval :      900.89   902.15   908.08   916.20   917.40   918.35
eigval :      919.17   921.41   924.49   926.21   926.68   927.26
eigval :      928.30   931.02   931.89   932.16   933.43   934.66
eigval :      961.98   971.92   973.28   988.30  1000.57  1006.49
eigval :     1010.82  1018.39  1035.00  1069.26  1075.75  1076.45
eigval :     1080.89  1083.65  1088.41  1088.83  1099.03  1114.14
eigval :     1119.65  1120.10  1121.32  1122.40  1129.00  1138.05
eigval :     1144.46  1155.84  1162.85  1176.53  1179.74  1180.89
eigval :     1182.24  1182.62  1183.06  1191.43  1193.84  1196.32
eigval :     1198.35  1199.88  1205.90  1215.50  1228.84  1233.68
eigval :     1238.53  1252.97  1261.87  1268.16  1269.71  1272.86
eigval :     1279.17  1281.55  1282.29  1284.22  1286.41  1287.46
eigval :     1295.84  1303.70  1314.91  1315.17  1317.95  1319.26
eigval :     1319.62  1320.83  1325.13  1327.64  1332.33  1336.20
eigval :     1356.93  1362.04  1373.43  1397.98  1403.73  1410.60
eigval :     1412.87  1430.96  1431.45  1431.85  1433.71  1436.26
eigval :     1448.95  1459.65  1463.31  1463.70  1469.84  1472.80
eigval :     1479.91  1484.61  1499.46  1499.88  1513.76  1535.72
eigval :     1550.64  1557.79  1559.29  1571.34  1572.37  1581.56
eigval :     1583.80  1585.05  1586.69  1589.24  1590.00  1591.43
eigval :     1597.84  1602.20  1603.64  1608.85  3069.09  3069.23
eigval :     3070.65  3071.94  3072.72  3074.32  3076.35  3076.49
eigval :     3076.56  3077.20  3078.11  3078.99  3079.52  3080.63
eigval :     3081.55  3081.66  3081.84  3084.63  3085.15  3087.67
eigval :     3088.25  3089.33  3089.56  3089.70  3090.25  3091.83
eigval :     3092.31  3092.82  3093.08  3093.37  3094.76  3095.33
eigval :     3096.22  3096.82  3097.50  3101.82  3103.53  3108.82

   temp. (K)  partition function   enthalpy   heat capacity  entropy
                                   cal/mol     cal/K/mol   cal/K/mol   J/K/mol
 298.15  VIB  0.158E+23            28218.973    178.369    176.502
         ROT  0.168E+09              888.752      2.981     40.622
         INT  0.265E+31            29107.725    181.350    217.124
         TR   0.205E+29             1481.254      4.968     45.770
         TOT                       30588.9791   186.3180   262.8937  1099.9474

       T/K    H(0)-H(T)+PV         H(T)/Eh          T*S/Eh         G(T)/Eh
   ------------------------------------------------------------------------
    298.15    0.487466E-01    0.802295E+00    0.124909E+00    0.677385E+00
   ------------------------------------------------------------------------

         :::::::::::::::::::::::::::::::::::::::::::::::::::::
         ::                  THERMODYNAMIC                  ::
         :::::::::::::::::::::::::::::::::::::::::::::::::::::
         :: total free energy        -150.301764256657 Eh   ::
         ::.................................................::
         :: total energy             -150.979149690086 Eh   ::
         :: zero point energy           0.753548093905 Eh   ::
         :: G(RRHO) w/o ZPVE           -0.076162660476 Eh   ::
         :: G(RRHO) contrib.            0.677385433429 Eh   ::
         :::::::::::::::::::::::::::::::::::::::::::::::::::::

           -------------------------------------------------
          | TOTAL ENERGY             -150.979149690086 Eh   |
          | TOTAL ENTHALPY           -150.176854955192 Eh   |
          | TOTAL FREE ENERGY        -150.301764256657 Eh   |
          | GRADIENT NORM               0.000092558296 Eh/α |
           -------------------------------------------------

 * finished run on 2025/09/04 at 11:06:38.508
