   * xtb version 6.7.1 (edcfbbe) compiled by 'albert@albert-system' on 2024-07-22

   ID    Z sym.   atoms
    1    6 C      1-8, 10-31, 33-36, 38-51, 53-60
    2    7 N      9, 32, 37, 52
    3    1 H      61-98

          program call               : xtb data2507/gas/BDQC-2/BDQC-2.xyz --gfn 2 --ohess vtight --parallel 40 --molden --ceasefiles --namespace data2507/gas/BDQC-2/BDQC-2_gas_S0_preOpt
          :  Hamiltonian                  GFN2-xTB          :
 * total energy  :  -150.9910083 Eh     change       -0.2354255E-08 Eh
 * total energy  :  -151.0089305 Eh     change       -0.1792222E-01 Eh
 * total energy  :  -151.0158150 Eh     change       -0.6884468E-02 Eh
 * total energy  :  -151.0186158 Eh     change       -0.2800804E-02 Eh
 * total energy  :  -151.0204868 Eh     change       -0.1870992E-02 Eh
 * total energy  :  -151.0211435 Eh     change       -0.6566592E-03 Eh
 * total energy  :  -151.0214883 Eh     change       -0.3448099E-03 Eh
 * total energy  :  -151.0218499 Eh     change       -0.3616472E-03 Eh
 * total energy  :  -151.0222068 Eh     change       -0.3568838E-03 Eh
 * total energy  :  -151.0224755 Eh     change       -0.2686735E-03 Eh
 * total energy  :  -151.0235000 Eh     change       -0.5787263E-06 Eh
 * total energy  :  -151.0235006 Eh     change       -0.5805878E-06 Eh
 * total energy  :  -151.0235012 Eh     change       -0.5899721E-06 Eh
 * total energy  :  -151.0235018 Eh     change       -0.6352178E-06 Eh
 * total energy  :  -151.0235025 Eh     change       -0.7155553E-06 Eh
 * total energy  :  -151.0235033 Eh     change       -0.7940773E-06 Eh
 * total energy  :  -151.0235041 Eh     change       -0.8121470E-06 Eh
 * total energy  :  -151.0235049 Eh     change       -0.7415205E-06 Eh
 * total energy  :  -151.0235049 Eh     change       -0.2290989E-08 Eh
   *** GEOMETRY OPTIMIZATION CONVERGED AFTER 94 ITERATIONS ***

 final structure:
================
98
 xtb: 6.7.1 (edcfbbe)
C          -11.60084426471243        0.31036533241783        1.80623092964922
C          -10.86829115997452        1.46802093134275        1.60375051671432
C           -9.54513441725883        1.39441537380414        1.21105775961156
C           -8.92884835010725        0.15968935988689        1.01753724846528
C           -7.52224629548724        0.08004989740914        0.60353125248100
C           -6.66870114145027       -0.87783991331736        1.14871359638711
C           -5.34551889632262       -0.95132752187853        0.76916596623551
C           -4.83387030217830       -0.07280568123332       -0.18635205816512
N           -3.49531289682835       -0.14853254494825       -0.58161757528243
C           -2.77861014699371        1.02264878387488       -0.84597113893038
C           -2.99992066699251        2.17619988866050       -0.09316397518849
C           -2.28956408789369        3.32858837095689       -0.35468748910962
C           -1.33714219595732        3.37210354851800       -1.37132430713138
C           -0.58598651316244        4.60422386373542       -1.64721280589633
C           -0.10959086395338        5.39558036765374       -0.60400499078958
C            0.59403067399209        6.55643108091470       -0.86452813735415
C            0.83002516477428        6.95008600529394       -2.17111502132881
C            0.36047940345441        6.17214307975803       -3.21619083314192
C           -0.33888022573613        5.00825626930688       -2.95756818183090
C           -1.12023868478572        2.21642148660780       -2.11988557373251
C           -1.82632569391332        1.05991619987549       -1.86494736015518
C           -2.86407254086835       -1.39410964049042       -0.67472803419672
C           -3.57874045163335       -2.50216274159776       -1.15519536187246
C           -2.98525947627857       -3.73958159861265       -1.26569063483894
C           -1.65661822556891       -3.88770163370283       -0.88799532444436
C           -0.74125300362729       -4.99253140699362       -0.89297132416374
C           -0.86352636005241       -6.33049554651480       -1.24395113281494
C            0.23460642227259       -7.15476937618435       -1.09979143676384
C            1.43713456192806       -6.66354796919857       -0.59806275865657
C            1.58263977247843       -5.33539782372673       -0.24256119884847
C            0.49117608350164       -4.49698660755150       -0.40927344752635
N            0.35520103397345       -3.15276669502397       -0.10649490949993
C            1.36053231456711       -2.31860893275932        0.38963370976461
C            1.07987989656229       -1.48422411171751        1.49675721020977
C            2.03530025891279       -0.65722434943007        2.01196802602140
C            3.32774602985649       -0.64117799395073        1.45129782035495
N            4.29945101365334        0.10515550002186        2.00467243847849
C            5.49177134650329        0.09577051641187        1.45741717324973
C            6.54991953940758        0.82081375077558        2.17092492842789
C            6.26213056918309        2.05373453581118        2.75098825327130
C            7.24289408478069        2.74971457316551        3.43159854619786
C            8.51515483251245        2.21581342989700        3.55460080826000
C            8.80008317438280        0.97706957055769        3.00314892015424
C            7.82605153159544        0.28053741917256        2.31354422310931
C            5.73156754301099       -0.62064400599359        0.23785884561832
C            6.98391824783114       -0.49430342640855       -0.51769338770985
C            7.54609497845375       -1.62579466660476       -1.10325434277606
C            8.72489502008251       -1.52829643463554       -1.81778665132134
C            9.34544860750322       -0.29915555694641       -1.96930270449061
C            8.77562786312225        0.83495742065331       -1.41350903567448
C            7.60185131273514        0.74229093339726       -0.69023831130519
N            4.81501437222781       -1.40946377780892       -0.26861734783629
C            3.60990821638158       -1.47070350667414        0.33137839793356
C            2.61054541737687       -2.31068079470135       -0.18564310705471
C           -0.94230088228540       -2.77294079552932       -0.39272087182049
C           -1.53159006191648       -1.52460634678434       -0.29333246962598
C           -5.68488870744928        0.88352061820194       -0.74126610821417
C           -7.00298232070054        0.96004457885237       -0.34500211670038
C           -9.67567484078997       -0.99816809553655        1.22609464688724
C          -10.99985613185128       -0.92251443395639        1.61484477048273
H          -12.63515067343952        0.36870348424093        2.11167495495157
H          -11.33043373023879        2.43290912123932        1.75546755560196
H           -8.97462279963819        2.30140680942905        1.07223440509510
H           -7.04065031837666       -1.55413911563588        1.90436526960801
H           -4.69394140617886       -1.68863789431695        1.21496976544433
H           -3.73264622808340        2.15983619212969        0.70052312021242
H           -2.48528492486919        4.21527871860371        0.23035408408126
H           -0.27602480695249        5.08557312296684        0.41759726883049
H            0.96183886398623        7.15684662174514       -0.04485370180612
H            1.37721127317893        7.85890766952927       -2.37401156153442
H            0.53812377600329        6.47604548525184       -4.23778346318871
H           -0.71738439557647        4.41496903025717       -3.77742892737907
H           -0.37763224693263        2.22106981850394       -2.90429445104784
H           -1.64718591809599        0.17393697338234       -2.45654198493698
H           -4.60697785501471       -2.36611291811012       -1.45481914645544
H           -3.54017220761099       -4.57989181545890       -1.65374892378481
H           -1.80151344767423       -6.71380990293474       -1.61625394513481
H            0.16184303635042       -8.19786496896860       -1.36944062975063
H            2.27464539445002       -7.33520103999971       -0.48088823003422
H            2.51438606468264       -4.97042673446679        0.16183913027015
H            0.10008956536860       -1.53459738571113        1.94723692843764
H            1.83766883436631       -0.02479480932887        2.86326071356937
H            5.26524324240438        2.45548172394314        2.65125434486145
H            7.01503694207093        3.71047006837262        3.86965733976532
H            9.28204428777367        2.76012059919692        4.08570545808972
H            9.78646233508917        0.55072281428098        3.11206082393139
H            8.04916262419252       -0.69171782745025        1.89889384102933
H            7.04913620290928       -2.57618937080567       -0.98133161910355
H            9.16076538038544       -2.41224268207139       -2.25990261674307
H           10.26770886495484       -0.22302459976451       -2.52616603394134
H            9.24806594309854        1.79729702612332       -1.54493070874856
H            7.15352570194893        1.63182270391649       -0.27236200769026
H            2.83880268020363       -2.91756120712535       -1.04757504400805
H           -0.98154650777040       -0.66417317479561        0.05551798009763
H           -5.30340114499575        1.56161423280119       -1.49073790472052
H           -7.65074252627454        1.69429628529497       -0.80106276377058
H           -9.21834236123718       -1.96308748694877        1.06138828099146
H          -11.56739599472207       -1.82933532383839        1.76706387707624

          :  Hamiltonian                  GFN2-xTB          :
         :: gradient norm              0.000033876711 Eh/a0 ::
         :: HOMO-LUMO gap              1.400650035952 eV    ::
         :: SCC energy              -153.880111188836 Eh    ::
         :: -> dispersion             -0.136062590273 Eh    ::
         :: repulsion energy           2.856606311764 Eh    ::

    * Orbital Energies and Occupations

         #    Occupation            Energy/Eh            Energy/eV
      -------------------------------------------------------------
         1        2.0000           -0.6778731             -18.4459
       ...           ...                  ...                  ...
       129        2.0000           -0.4071796             -11.0799
       130        2.0000           -0.4053462             -11.0300
       131        2.0000           -0.4040525             -10.9948
       132        2.0000           -0.4021141             -10.9421
       133        2.0000           -0.4020042             -10.9391
       134        2.0000           -0.4014867             -10.9250
       135        2.0000           -0.3978200             -10.8252
       136        2.0000           -0.3910522             -10.6411
       137        2.0000           -0.3851663             -10.4809
       138        2.0000           -0.3821615             -10.3991
       139        2.0000           -0.3643490              -9.9144
       140        2.0000           -0.3507921              -9.5455
       141        2.0000           -0.3447601              -9.3814 (HOMO)
       142                         -0.2932872              -7.9808 (LUMO)
       143                         -0.2639529              -7.1825
       144                         -0.2483881              -6.7590
       145                         -0.2473655              -6.7312
       146                         -0.2324637              -6.3257
       147                         -0.2302318              -6.2649
       148                         -0.2265393              -6.1644
       149                         -0.2254078              -6.1337
       150                         -0.2238078              -6.0901
       151                         -0.2221161              -6.0441
       152                         -0.2211956              -6.0190
       ...                                ...                  ...
       278                          0.7469471              20.3255
      -------------------------------------------------------------
                  HL-Gap            0.0514729 Eh            1.4006 eV

     #   Z          covCN         q      C6AA      α(0)
     1   6 C        2.920    -0.032    28.795     8.800
     2   6 C        2.918    -0.030    28.746     8.792
     3   6 C        2.925    -0.035    28.863     8.810
     4   6 C        2.976     0.010    27.779     8.646
     5   6 C        2.976     0.001    27.995     8.679
     6   6 C        2.924    -0.034    28.855     8.809
     7   6 C        2.920    -0.049    29.205     8.862
     8   6 C        2.925     0.063    26.586     8.456
     9   7 N        2.753    -0.072    22.641     7.067
    10   6 C        2.924     0.063    26.596     8.457
    11   6 C        2.921    -0.049    29.214     8.863
    12   6 C        2.924    -0.034    28.855     8.809
    13   6 C        2.976     0.001    27.993     8.679
    14   6 C        2.976     0.010    27.778     8.645
    15   6 C        2.925    -0.035    28.860     8.810
    16   6 C        2.918    -0.030    28.746     8.792
    17   6 C        2.920    -0.032    28.794     8.800
    18   6 C        2.918    -0.030    28.744     8.792
    19   6 C        2.925    -0.034    28.857     8.810
    20   6 C        2.924    -0.034    28.854     8.809
    21   6 C        2.920    -0.049    29.208     8.863
    22   6 C        2.927     0.062    26.618     8.461
    23   6 C        2.922    -0.057    29.425     8.896
    24   6 C        2.912    -0.033    28.819     8.803
    25   6 C        3.067    -0.024    28.523     8.757
    26   6 C        3.067    -0.015    28.310     8.725
    27   6 C        2.913    -0.034    28.839     8.806
    28   6 C        2.920    -0.040    28.990     8.829
    29   6 C        2.924    -0.033    28.832     8.806
    30   6 C        2.910    -0.050    29.241     8.867
    31   6 C        3.073     0.046    26.898     8.504
    32   7 N        2.803    -0.040    22.021     6.970
    33   6 C        2.910     0.066    26.522     8.445
    34   6 C        2.919    -0.041    29.029     8.835
    35   6 C        2.916    -0.039    28.972     8.826
    36   6 C        2.965     0.076    26.302     8.412
    37   7 N        1.851    -0.233    26.958     7.695
    38   6 C        2.952     0.085    26.106     8.380
    39   6 C        2.982     0.008    27.831     8.654
    40   6 C        2.925    -0.026    28.647     8.777
    41   6 C        2.919    -0.028    28.692     8.784
    42   6 C        2.920    -0.028    28.694     8.784
    43   6 C        2.919    -0.028    28.701     8.785
    44   6 C        2.923    -0.029    28.730     8.790
    45   6 C        2.951     0.087    26.052     8.372
    46   6 C        2.982     0.008    27.831     8.654
    47   6 C        2.925    -0.026    28.641     8.777
    48   6 C        2.919    -0.028    28.691     8.784
    49   6 C        2.920    -0.027    28.688     8.783
    50   6 C        2.919    -0.028    28.698     8.785
    51   6 C        2.923    -0.029    28.721     8.789
    52   7 N        1.852    -0.236    27.023     7.705
    53   6 C        2.964     0.079    26.232     8.401
    54   6 C        2.921    -0.058    29.433     8.897
    55   6 C        3.071     0.047    26.864     8.498
    56   6 C        2.914    -0.071    29.778     8.948
    57   6 C        2.920    -0.048    29.203     8.862
    58   6 C        2.924    -0.034    28.853     8.809
    59   6 C        2.925    -0.035    28.863     8.810
    60   6 C        2.918    -0.030    28.746     8.792
    61   1 H        0.926     0.028     2.614     2.528
    62   1 H        0.926     0.028     2.612     2.527
    63   1 H        0.926     0.030     2.588     2.516
    64   1 H        0.926     0.034     2.536     2.490
    65   1 H        0.926     0.032     2.560     2.502
    66   1 H        0.926     0.032     2.559     2.502
    67   1 H        0.926     0.034     2.536     2.490
    68   1 H        0.926     0.030     2.587     2.515
    69   1 H        0.926     0.028     2.609     2.526
    70   1 H        0.926     0.028     2.612     2.527
    71   1 H        0.926     0.028     2.608     2.525
    72   1 H        0.926     0.030     2.586     2.515
    73   1 H        0.926     0.033     2.542     2.493
    74   1 H        0.926     0.032     2.562     2.503
    75   1 H        0.926     0.033     2.547     2.496
    76   1 H        0.926     0.035     2.514     2.480
    77   1 H        0.926     0.031     2.568     2.506
    78   1 H        0.926     0.029     2.603     2.523
    79   1 H        0.926     0.030     2.584     2.514
    80   1 H        0.926     0.030     2.591     2.517
    81   1 H        0.926     0.049     2.338     2.391
    82   1 H        0.926     0.056     2.242     2.341
    83   1 H        0.926     0.046     2.368     2.406
    84   1 H        0.926     0.035     2.513     2.479
    85   1 H        0.926     0.034     2.531     2.488
    86   1 H        0.926     0.033     2.541     2.493
    87   1 H        0.926     0.029     2.598     2.520
    88   1 H        0.926     0.047     2.364     2.404
    89   1 H        0.926     0.036     2.508     2.477
    90   1 H        0.926     0.034     2.527     2.486
    91   1 H        0.926     0.033     2.538     2.491
    92   1 H        0.926     0.030     2.590     2.517
    93   1 H        0.926     0.060     2.201     2.320
    94   1 H        0.926     0.031     2.568     2.506
    95   1 H        0.926     0.032     2.560     2.502
    96   1 H        0.926     0.034     2.536     2.491
    97   1 H        0.926     0.030     2.585     2.514
    98   1 H        0.926     0.028     2.610     2.527

molecular dipole:
                 x           y           z       tot (Debye)
 q only:        0.489       0.239       0.102
   full:        0.538       0.300       0.133       1.602

 projected vibrational frequencies (cm⁻¹)
eigval :       -0.00    -0.00    -0.00     0.00     0.00     0.00
eigval :        4.72     8.17    10.21    17.91    19.31    21.15
eigval :       28.31    32.75    39.25    40.82    45.84    54.59
eigval :       63.68    65.29    67.87    71.41    80.61    82.65
eigval :       88.61    96.20   103.37   105.53   118.81   138.28
eigval :      149.84   158.17   171.80   183.06   196.28   201.06
eigval :      210.15   218.53   235.16   237.50   251.24   262.53
eigval :      283.42   296.52   300.04   304.33   320.88   330.54
eigval :      341.91   364.67   370.19   370.50   371.17   376.17
eigval :      377.09   379.32   383.62   384.44   389.31   393.46
eigval :      408.37   422.92   427.10   432.29   448.40   455.07
eigval :      468.38   474.28   489.67   493.13   507.86   531.98
eigval :      532.89   534.57   537.51   543.69   555.27   564.32
eigval :      570.67   584.80   586.16   588.42   589.04   591.31
eigval :      592.45   600.24   607.73   610.03   617.03   631.53
eigval :      645.62   661.25   665.73   666.38   670.03   671.59
eigval :      677.58   684.14   687.14   695.75   705.25   715.26
eigval :      723.59   738.49   747.64   750.25   756.79   757.57
eigval :      760.22   774.56   776.90   784.01   817.55   820.80
eigval :      821.85   828.85   840.74   862.41   865.52   869.17
eigval :      870.08   873.26   875.97   876.91   878.38   878.85
eigval :      886.40   888.46   899.73   900.20   901.91   904.61
eigval :      905.09   909.17   916.96   917.53   918.96   922.92
eigval :      925.54   926.73   927.85   928.77   929.22   931.41
eigval :      931.77   931.88   932.05   932.25   932.60   942.71
eigval :      962.04   972.33   974.08   985.70   997.25  1009.97
eigval :     1018.17  1019.24  1035.75  1072.64  1076.24  1076.88
eigval :     1079.64  1082.58  1088.45  1088.55  1097.29  1111.46
eigval :     1120.10  1120.42  1121.94  1122.18  1143.14  1144.02
eigval :     1146.18  1156.72  1162.73  1180.35  1181.39  1181.45
eigval :     1182.77  1182.80  1184.14  1194.15  1194.41  1196.79
eigval :     1197.65  1204.71  1207.31  1209.85  1234.48  1236.60
eigval :     1245.30  1267.46  1270.66  1270.97  1275.44  1276.63
eigval :     1279.00  1282.26  1282.47  1284.69  1290.13  1292.82
eigval :     1304.05  1311.73  1316.29  1319.09  1319.54  1320.47
eigval :     1322.06  1326.16  1332.62  1337.00  1352.35  1359.60
eigval :     1363.41  1387.37  1404.26  1407.49  1410.70  1421.88
eigval :     1430.28  1431.79  1434.60  1435.23  1438.70  1453.46
eigval :     1465.09  1466.29  1471.61  1474.25  1478.83  1484.09
eigval :     1486.12  1501.52  1502.47  1516.20  1532.31  1553.76
eigval :     1560.56  1565.28  1580.85  1581.11  1582.38  1582.59
eigval :     1586.80  1591.58  1594.06  1595.42  1596.99  1597.65
eigval :     1600.05  1604.02  1605.55  1610.44  3069.64  3069.76
eigval :     3071.01  3071.05  3074.57  3074.99  3076.49  3077.07
eigval :     3077.65  3077.76  3077.77  3078.25  3078.34  3080.34
eigval :     3080.62  3083.40  3083.65  3083.83  3085.32  3085.90
eigval :     3086.83  3088.76  3089.53  3089.86  3090.31  3090.97
eigval :     3091.40  3091.48  3091.79  3092.59  3093.17  3095.88
eigval :     3097.07  3098.50  3098.77  3098.87  3104.20  3106.63

   temp. (K)  partition function   enthalpy   heat capacity  entropy
                                   cal/mol     cal/K/mol   cal/K/mol   J/K/mol
 298.15  VIB  0.333E+24            28188.640    176.204    178.360
         ROT  0.206E+09              888.752      2.981     41.025
         INT  0.687E+32            29077.393    179.185    219.385
         TR   0.205E+29             1481.254      4.968     45.770
         TOT                       30558.6466   184.1535   265.1552  1109.4092

       T/K    H(0)-H(T)+PV         H(T)/Eh          T*S/Eh         G(T)/Eh
   ------------------------------------------------------------------------
    298.15    0.486983E-01    0.804573E+00    0.125984E+00    0.678589E+00
   ------------------------------------------------------------------------

         :::::::::::::::::::::::::::::::::::::::::::::::::::::
         ::                  THERMODYNAMIC                  ::
         :::::::::::::::::::::::::::::::::::::::::::::::::::::
         :: total free energy        -150.344915968467 Eh   ::
         ::.................................................::
         :: total energy             -151.023504877071 Eh   ::
         :: zero point energy           0.755874378733 Eh   ::
         :: G(RRHO) w/o ZPVE           -0.077285470129 Eh   ::
         :: G(RRHO) contrib.            0.678588908604 Eh   ::
         :::::::::::::::::::::::::::::::::::::::::::::::::::::

           -------------------------------------------------
          | TOTAL ENERGY             -151.023504877071 Eh   |
          | TOTAL ENTHALPY           -150.218932195149 Eh   |
          | TOTAL FREE ENERGY        -150.344915968467 Eh   |
          | GRADIENT NORM               0.000033879000 Eh/α |
          | HOMO-LUMO GAP               1.400649019622 eV   |
           -------------------------------------------------

 * finished run on 2025/09/04 at 10:47:04.108
