   * xtb version 6.7.1 (edcfbbe) compiled by 'albert@albert-system' on 2024-07-22

   ID    Z sym.   atoms
    1    6 C      1-8, 10-31, 33-36, 38-51, 53-60
    2    7 N      9, 32, 37, 52
    3    1 H      61-98

          program call               : xtb data2507/gas/BDQC-2/BDQC-2_gas_S0_crest.xyz --gfn 2 --ohess vtight --parallel 40 --molden --ceasefiles --namespace data2507/gas/BDQC-2/BDQC-2_gas_S0_finalOpt
          :  Hamiltonian                  GFN2-xTB          :
 * total energy  :  -151.0310470 Eh     change       -0.3239023E-08 Eh
 * total energy  :  -151.0310490 Eh     change       -0.1997829E-05 Eh
 * total energy  :  -151.0310517 Eh     change       -0.2777417E-05 Eh
 * total energy  :  -151.0310533 Eh     change       -0.1523452E-05 Eh
 * total energy  :  -151.0310557 Eh     change       -0.2404600E-05 Eh
 * total energy  :  -151.0310586 Eh     change       -0.2907642E-05 Eh
 * total energy  :  -151.0310605 Eh     change       -0.1926440E-05 Eh
 * total energy  :  -151.0310619 Eh     change       -0.1405936E-05 Eh
 * total energy  :  -151.0310635 Eh     change       -0.1534612E-05 Eh
 * total energy  :  -151.0310649 Eh     change       -0.1426531E-05 Eh
 * total energy  :  -151.0310680 Eh     change       -0.8370592E-06 Eh
 * total energy  :  -151.0310691 Eh     change       -0.1120230E-05 Eh
 * total energy  :  -151.0310707 Eh     change       -0.1528634E-05 Eh
 * total energy  :  -151.0310722 Eh     change       -0.1566234E-05 Eh
 * total energy  :  -151.0310733 Eh     change       -0.1042279E-05 Eh
 * total energy  :  -151.0310739 Eh     change       -0.5830822E-06 Eh
 * total energy  :  -151.0310742 Eh     change       -0.3826727E-06 Eh
 * total energy  :  -151.0310745 Eh     change       -0.2866827E-06 Eh
 * total energy  :  -151.0310745 Eh     change       -0.4255867E-08 Eh
   *** GEOMETRY OPTIMIZATION CONVERGED AFTER 22 ITERATIONS ***

 final structure:
================
98
 xtb: 6.7.1 (edcfbbe)
C          -10.54423486346353        3.50627196640073        1.43733418274094
C          -10.43741879486958        2.15356888770399        1.16061701606018
C           -9.20940343950175        1.60244014168817        0.84682328324915
C           -8.06475606719217        2.39596822776662        0.80027682485439
C           -6.76097213933852        1.81098405110259        0.46287622711062
C           -6.38716976589388        0.56123843435380        0.95472523541997
C           -5.16386280266301        0.00783511299387        0.64227764803100
C           -4.27516050786178        0.68413351649559       -0.19431316497587
N           -3.03858405842628        0.13669509119946       -0.53463064116173
C           -1.91929416774149        0.97606804545723       -0.65713200291824
C           -1.68779388512831        1.99403086453258        0.26587787124701
C           -0.55272947746562        2.77266048798321        0.17196586130552
C            0.37182344307140        2.57266961350020       -0.85055060381772
C            1.58285187724784        3.40263022781100       -0.93440769280395
C            1.96239392289402        3.98575902354259       -2.14045986475890
C            3.09336777230520        4.77734272345092       -2.21258409768248
C            3.86929819262260        4.98831173892899       -1.08548873979949
C            3.50157987564694        4.41097296729757        0.11794892840922
C            2.36560007775962        3.62670453395436        0.19519193590482
C            0.12052092122246        1.57271588121581       -1.78753398963256
C           -1.00402164776226        0.78042271914845       -1.69080832224998
C           -2.84761626329494       -1.24441174692324       -0.62865729012685
C           -3.85764000014010       -2.07945683631104       -1.13229272321173
C           -3.68413531704331       -3.44465276143208       -1.20773318137941
C           -2.46989483994177       -3.99812359743363       -0.81711628894406
C           -1.94806327757976       -5.33415790479807       -0.74635853218877
C           -2.47010433753180       -6.58129479284378       -1.06177751465423
C           -1.67300326661143       -7.69605327584578       -0.89000857276316
C           -0.36584618990644       -7.57797728110898       -0.42537624833187
C            0.17761896074909       -6.34733240727054       -0.10542920136877
C           -0.62569986592823       -5.22742101931713       -0.25220669651390
N           -0.33068155833197       -3.89574165477271       -0.02815383076521
C            0.88418592476687       -3.34457947385815        0.39065387576315
C            1.52190459265175       -3.83747150469507        1.55145522102184
C            2.66085522387507       -3.25080824137051        2.02519628606708
C            3.21093851572106       -2.14001124864124        1.35502054141716
N            4.23526922261219       -1.45140836107966        1.88623043272633
C            4.73824920907710       -0.44200948018264        1.21613333872436
C            5.70619831968307        0.40681601903206        1.91618854812770
C            6.60644460880127       -0.16292025530590        2.81343175731440
C            7.51374112313826        0.63142361682183        3.48822317582619
C            7.52211076105133        2.00210277935305        3.28699223030430
C            6.61189665337222        2.57723935737131        2.41452240659133
C            5.70749987799936        1.78834831994969        1.73034204988903
C            4.30596360794483       -0.17694395675922       -0.12856407204610
C            5.05112450212118        0.68104906057121       -1.05406367824932
C            6.44374842360897        0.73727556306781       -1.03130479176200
C            7.11994329112189        1.53013992591194       -1.93837370953901
C            6.42069119392747        2.26626614361152       -2.88126575282052
C            5.03839594169216        2.19355147966156       -2.92576560892589
C            4.35679430015966        1.40465156536049       -2.02034608723624
N            3.22754412912871       -0.75409144026609       -0.59989541023364
C            2.61527885785138       -1.69540857380139        0.14138679646233
C            1.43268469349944       -2.29658665407662       -0.31352164016120
C           -1.44017125301874       -3.14571353023857       -0.36328138825278
C           -1.62932527911441       -1.78382185289553       -0.22839124839361
C           -4.64297496211716        1.93672453344556       -0.68864995161602
C           -5.86140318862093        2.48947886537385       -0.35813207215664
C           -8.18522440987248        3.75600606541525        1.07911842244099
C           -9.41347412217614        4.30470392106644        1.39638481731628
H          -11.50397824431747        3.93614624277690        1.68358100954165
H          -11.31667427244260        1.52597437523206        1.18684731689502
H           -9.13665426252629        0.54981763997990        0.61433954432088
H           -7.05326441744403        0.02967752073337        1.61853075020601
H           -4.88304305848155       -0.95090489090923        1.05287333125259
H           -2.39746203956499        2.15815236379101        1.06384248163908
H           -0.38091662690939        3.55477945337852        0.89727525780772
H            1.35227734237007        3.83084788620214       -3.01902157828831
H            3.36922860115007        5.23771933035375       -3.15044557652943
H            4.75543850767086        5.60271921652342       -1.14385623859849
H            4.09898597591325        4.57996287517589        1.00254379578767
H            2.08704598761302        3.16820913614278        1.13374169811189
H            0.82372056158621        1.40206685451837       -2.58963791062097
H           -1.18275625937600       -0.00362273066863       -2.41240705157876
H           -4.78547475218817       -1.63465655528166       -1.45909834955344
H           -4.47911691340303       -4.07510902586393       -1.57590873977163
H           -3.47830479885224       -6.67201637856444       -1.43698834015941
H           -2.06219737132311       -8.67507689938645       -1.12696414872890
H            0.23873332929706       -8.46616525002912       -0.31589248963599
H            1.19853424569329       -6.26428238333745        0.23577261420219
H            1.06970978912215       -4.66372967514602        2.07942077190549
H            3.13983953318127       -3.59541421228412        2.92841047351135
H            6.58516875316110       -1.23157224158092        2.96296120483665
H            8.21611848229712        0.18200098689821        4.17489851334603
H            8.23225564439025        2.62239891036602        3.81374789768523
H            6.60832480192900        3.64743176556118        2.26707654527127
H            4.99123548383204        2.24014080582800        1.05972106391205
H            6.99728035458981        0.14634865780327       -0.31636704249100
H            8.19912047591906        1.56910227917482       -1.91347542008234
H            6.95431377865815        2.88642557733963       -3.58639775292561
H            4.49095601575572        2.75147149885106       -3.67028397805502
H            3.28079170116472        1.33939244759887       -2.03898745858755
H            0.98359908141207       -1.93415025727614       -1.22473583155539
H           -0.85903526143119       -1.15038413035067        0.18335758308137
H           -3.96482229582809        2.46853942441409       -1.34017616365099
H           -6.13520732703421        3.45035084125971       -0.76863124183331
H           -7.30452430129884        4.38179430396149        1.06652539073617
H           -9.48959430947484        5.36013410789577        1.61538600081264

          :  Hamiltonian                  GFN2-xTB          :
         :: gradient norm              0.000045591213 Eh/a0 ::
         :: HOMO-LUMO gap              1.386123344558 eV    ::
         :: SCC energy              -153.889096545305 Eh    ::
         :: -> dispersion             -0.147050525434 Eh    ::
         :: repulsion energy           2.858022009642 Eh    ::

    * Orbital Energies and Occupations

         #    Occupation            Energy/Eh            Energy/eV
      -------------------------------------------------------------
         1        2.0000           -0.6768259             -18.4174
       ...           ...                  ...                  ...
       129        2.0000           -0.4068002             -11.0696
       130        2.0000           -0.4049016             -11.0179
       131        2.0000           -0.4044081             -11.0045
       132        2.0000           -0.4029479             -10.9648
       133        2.0000           -0.4008114             -10.9066
       134        2.0000           -0.4004524             -10.8969
       135        2.0000           -0.3978383             -10.8257
       136        2.0000           -0.3889029             -10.5826
       137        2.0000           -0.3869362             -10.5291
       138        2.0000           -0.3813435             -10.3769
       139        2.0000           -0.3631564              -9.8820
       140        2.0000           -0.3513538              -9.5608
       141        2.0000           -0.3441079              -9.3637 (HOMO)
       142                         -0.2931688              -7.9775 (LUMO)
       143                         -0.2658359              -7.2338
       144                         -0.2475561              -6.7363
       145                         -0.2464873              -6.7073
       146                         -0.2322521              -6.3199
       147                         -0.2295904              -6.2475
       148                         -0.2264031              -6.1607
       149                         -0.2251900              -6.1277
       150                         -0.2240605              -6.0970
       151                         -0.2222382              -6.0474
       152                         -0.2210020              -6.0138
       ...                                ...                  ...
       278                          0.7484152              20.3654
      -------------------------------------------------------------
                  HL-Gap            0.0509391 Eh            1.3861 eV

     #   Z          covCN         q      C6AA      α(0)
     1   6 C        2.920    -0.032    28.801     8.801
     2   6 C        2.918    -0.030    28.749     8.793
     3   6 C        2.925    -0.035    28.866     8.811
     4   6 C        2.976     0.010    27.778     8.645
     5   6 C        2.976     0.000    28.018     8.683
     6   6 C        2.924    -0.034    28.857     8.809
     7   6 C        2.920    -0.050    29.240     8.867
     8   6 C        2.922     0.063    26.584     8.455
     9   7 N        2.753    -0.073    22.662     7.070
    10   6 C        2.928     0.063    26.579     8.455
    11   6 C        2.920    -0.046    29.151     8.854
    12   6 C        2.925    -0.034    28.845     8.808
    13   6 C        2.977     0.003    27.948     8.672
    14   6 C        2.977     0.012    27.742     8.640
    15   6 C        2.925    -0.033    28.822     8.804
    16   6 C        2.919    -0.028    28.700     8.785
    17   6 C        2.920    -0.031    28.785     8.798
    18   6 C        2.919    -0.030    28.742     8.792
    19   6 C        2.925    -0.033    28.829     8.805
    20   6 C        2.924    -0.032    28.790     8.799
    21   6 C        2.921    -0.045    29.121     8.849
    22   6 C        2.928     0.062    26.606     8.459
    23   6 C        2.921    -0.058    29.451     8.899
    24   6 C        2.912    -0.033    28.825     8.804
    25   6 C        3.063    -0.024    28.547     8.762
    26   6 C        3.070    -0.015    28.310     8.724
    27   6 C        2.912    -0.034    28.840     8.806
    28   6 C        2.920    -0.040    29.001     8.831
    29   6 C        2.924    -0.034    28.847     8.808
    30   6 C        2.910    -0.051    29.258     8.869
    31   6 C        3.073     0.046    26.887     8.502
    32   7 N        2.803    -0.042    22.046     6.974
    33   6 C        2.911     0.066    26.529     8.446
    34   6 C        2.918    -0.042    29.033     8.836
    35   6 C        2.915    -0.039    28.979     8.827
    36   6 C        2.964     0.075    26.324     8.416
    37   7 N        1.851    -0.232    26.919     7.690
    38   6 C        2.951     0.085    26.115     8.382
    39   6 C        2.982     0.008    27.841     8.655
    40   6 C        2.925    -0.026    28.660     8.779
    41   6 C        2.919    -0.028    28.697     8.785
    42   6 C        2.920    -0.028    28.698     8.785
    43   6 C        2.919    -0.028    28.689     8.783
    44   6 C        2.923    -0.030    28.758     8.794
    45   6 C        2.951     0.087    26.061     8.373
    46   6 C        2.982     0.007    27.854     8.657
    47   6 C        2.923    -0.030    28.744     8.792
    48   6 C        2.919    -0.029    28.713     8.787
    49   6 C        2.920    -0.027    28.682     8.782
    50   6 C        2.919    -0.027    28.671     8.781
    51   6 C        2.926    -0.025    28.625     8.774
    52   7 N        1.853    -0.234    26.985     7.699
    53   6 C        2.964     0.078    26.246     8.403
    54   6 C        2.922    -0.057    29.408     8.893
    55   6 C        3.082     0.047    26.849     8.495
    56   6 C        2.916    -0.072    29.802     8.952
    57   6 C        2.921    -0.050    29.234     8.867
    58   6 C        2.924    -0.034    28.854     8.809
    59   6 C        2.925    -0.035    28.867     8.811
    60   6 C        2.918    -0.030    28.750     8.793
    61   1 H        0.926     0.028     2.620     2.531
    62   1 H        0.926     0.028     2.615     2.529
    63   1 H        0.926     0.030     2.588     2.516
    64   1 H        0.926     0.033     2.546     2.495
    65   1 H        0.926     0.032     2.551     2.498
    66   1 H        0.926     0.033     2.550     2.497
    67   1 H        0.926     0.033     2.543     2.494
    68   1 H        0.926     0.031     2.576     2.510
    69   1 H        0.926     0.029     2.604     2.523
    70   1 H        0.926     0.028     2.619     2.531
    71   1 H        0.926     0.028     2.616     2.529
    72   1 H        0.926     0.027     2.624     2.533
    73   1 H        0.926     0.036     2.501     2.473
    74   1 H        0.926     0.034     2.534     2.489
    75   1 H        0.926     0.034     2.536     2.490
    76   1 H        0.926     0.034     2.524     2.484
    77   1 H        0.926     0.031     2.572     2.508
    78   1 H        0.926     0.028     2.612     2.527
    79   1 H        0.926     0.029     2.599     2.521
    80   1 H        0.926     0.027     2.629     2.536
    81   1 H        0.926     0.049     2.335     2.390
    82   1 H        0.926     0.056     2.247     2.344
    83   1 H        0.926     0.048     2.350     2.397
    84   1 H        0.926     0.035     2.518     2.481
    85   1 H        0.926     0.034     2.536     2.490
    86   1 H        0.926     0.031     2.566     2.505
    87   1 H        0.926     0.033     2.547     2.496
    88   1 H        0.926     0.030     2.582     2.513
    89   1 H        0.926     0.033     2.539     2.492
    90   1 H        0.926     0.034     2.529     2.487
    91   1 H        0.926     0.035     2.510     2.478
    92   1 H        0.926     0.049     2.337     2.391
    93   1 H        0.926     0.058     2.226     2.333
    94   1 H        0.926     0.029     2.596     2.519
    95   1 H        0.926     0.030     2.586     2.515
    96   1 H        0.926     0.033     2.548     2.496
    97   1 H        0.926     0.029     2.594     2.518
    98   1 H        0.926     0.028     2.618     2.530

molecular dipole:
                 x           y           z       tot (Debye)
 q only:        0.579       0.415      -0.019
   full:        0.655       0.456       0.054       2.032

 projected vibrational frequencies (cm⁻¹)
eigval :       -0.00    -0.00     0.00     0.00     0.00     0.00
eigval :        6.70    15.75    17.01    20.16    23.56    29.42
eigval :       34.09    36.80    45.02    48.56    57.26    64.46
eigval :       65.74    67.31    72.36    76.77    81.81    90.97
eigval :       96.74    98.61   102.76   105.19   126.33   132.61
eigval :      151.38   157.31   177.07   177.77   193.76   201.55
eigval :      215.65   218.19   223.84   244.34   250.73   265.71
eigval :      283.58   294.60   303.92   307.22   316.20   334.89
eigval :      346.53   357.77   370.69   372.06   373.61   374.99
eigval :      379.39   380.81   382.07   389.10   391.36   395.78
eigval :      402.33   422.29   426.02   433.94   449.76   453.55
eigval :      463.86   474.67   488.87   500.08   507.88   531.55
eigval :      534.34   535.28   537.67   543.91   552.63   561.28
eigval :      571.98   584.69   586.27   588.90   590.76   591.71
eigval :      593.57   597.48   607.34   609.19   616.64   630.81
eigval :      643.07   659.61   665.50   667.70   670.41   671.18
eigval :      679.55   684.49   689.82   695.16   704.23   713.45
eigval :      724.16   738.24   747.95   748.28   756.95   759.08
eigval :      761.17   773.92   775.84   783.50   817.08   819.75
eigval :      821.81   826.96   842.22   861.70   863.20   869.40
eigval :      870.89   871.63   874.40   877.39   878.19   882.51
eigval :      884.86   893.20   899.34   899.92   901.07   902.18
eigval :      906.30   909.52   916.31   917.88   918.54   919.00
eigval :      925.68   926.45   926.68   927.20   929.38   931.01
eigval :      931.80   932.11   932.98   934.79   935.92   941.97
eigval :      962.42   972.14   974.46   987.31   998.44  1010.76
eigval :     1018.22  1018.78  1036.95  1071.78  1075.91  1076.77
eigval :     1080.07  1083.00  1088.53  1088.69  1097.78  1111.20
eigval :     1119.77  1120.72  1121.07  1122.25  1138.67  1142.90
eigval :     1144.34  1158.38  1162.96  1179.60  1180.06  1181.50
eigval :     1182.84  1183.31  1184.34  1192.64  1195.12  1197.28
eigval :     1198.30  1200.67  1206.92  1210.43  1234.15  1238.88
eigval :     1248.54  1267.54  1268.66  1270.12  1273.83  1278.01
eigval :     1280.45  1281.83  1282.61  1286.19  1288.52  1298.66
eigval :     1303.71  1312.58  1315.09  1319.26  1319.61  1321.70
eigval :     1324.89  1325.17  1334.26  1339.06  1351.93  1360.20
eigval :     1364.32  1386.64  1401.71  1404.11  1410.47  1424.02
eigval :     1431.09  1433.13  1434.29  1435.25  1439.16  1453.74
eigval :     1465.45  1466.17  1470.61  1474.74  1477.94  1484.05
eigval :     1486.69  1501.37  1503.24  1516.78  1526.19  1554.16
eigval :     1561.06  1564.80  1580.25  1581.33  1582.32  1583.86
eigval :     1587.68  1591.65  1592.33  1594.92  1596.07  1598.10
eigval :     1602.70  1603.48  1605.59  1611.45  3067.79  3069.00
eigval :     3069.32  3070.71  3073.50  3074.81  3075.26  3076.14
eigval :     3076.69  3076.83  3077.69  3077.98  3078.25  3080.36
eigval :     3080.94  3081.22  3081.89  3083.58  3085.67  3087.06
eigval :     3087.30  3088.42  3088.90  3089.10  3089.11  3090.13
eigval :     3090.34  3091.32  3091.50  3092.37  3094.63  3096.01
eigval :     3097.12  3098.24  3100.03  3102.47  3106.31  3113.93

   temp. (K)  partition function   enthalpy   heat capacity  entropy
                                   cal/mol     cal/K/mol   cal/K/mol   J/K/mol
 298.15  VIB  0.116E+23            28035.084    177.286    175.505
         ROT  0.168E+09              888.752      2.981     40.621
         INT  0.195E+31            28923.837    180.267    216.126
         TR   0.205E+29             1481.254      4.968     45.770
         TOT                       30405.0905   185.2350   261.8960  1095.7727

       T/K    H(0)-H(T)+PV         H(T)/Eh          T*S/Eh         G(T)/Eh
   ------------------------------------------------------------------------
    298.15    0.484536E-01    0.804598E+00    0.124435E+00    0.680163E+00
   ------------------------------------------------------------------------

         :::::::::::::::::::::::::::::::::::::::::::::::::::::
         ::                  THERMODYNAMIC                  ::
         :::::::::::::::::::::::::::::::::::::::::::::::::::::
         :: total free energy        -150.350911384147 Eh   ::
         ::.................................................::
         :: total energy             -151.031074535663 Eh   ::
         :: zero point energy           0.756144773870 Eh   ::
         :: G(RRHO) w/o ZPVE           -0.075981622354 Eh   ::
         :: G(RRHO) contrib.            0.680163151516 Eh   ::
         :::::::::::::::::::::::::::::::::::::::::::::::::::::

           -------------------------------------------------
          | TOTAL ENERGY             -151.031074535663 Eh   |
          | TOTAL ENTHALPY           -150.226476165832 Eh   |
          | TOTAL FREE ENERGY        -150.350911384147 Eh   |
          | GRADIENT NORM               0.000045589452 Eh/α |
          | HOMO-LUMO GAP               1.386123546629 eV   |
           -------------------------------------------------

 * finished run on 2025/09/04 at 10:55:27.592
