   * xtb version 6.7.1 (edcfbbe) compiled by 'albert@albert-system' on 2024-07-22

   ID    Z sym.   atoms
    1    6 C      1-8, 10-31, 33-36, 38-51, 53-60
    2    7 N      9, 32, 37, 52
    3    1 H      61-98

          program call               : xtb data2507/gas/BDQC-2/BDQC-2_gas_S0_finalOpt.xtbopt.xyz --gfn 2 --spinpol --tblite --uhf 2 --ohess vtight --parallel 40 --molden --ceasefiles --namespace data2507/gas/BDQC-2/BDQC-2_gas_T1_preOpt
 * total energy  :  -150.9741860 Eh     change       -0.1011662E-07 Eh
 * total energy  :  -150.9775965 Eh     change       -0.3410519E-02 Eh
 * total energy  :  -150.9786514 Eh     change       -0.1054912E-02 Eh
 * total energy  :  -150.9788306 Eh     change       -0.1792094E-03 Eh
 * total energy  :  -150.9789289 Eh     change       -0.9830252E-04 Eh
 * total energy  :  -150.9789583 Eh     change       -0.2942008E-04 Eh
 * total energy  :  -150.9790051 Eh     change       -0.4672829E-04 Eh
 * total energy  :  -150.9790455 Eh     change       -0.4039889E-04 Eh
 * total energy  :  -150.9790770 Eh     change       -0.3156828E-04 Eh
 * total energy  :  -150.9790927 Eh     change       -0.1569270E-04 Eh
 * total energy  :  -150.9791651 Eh     change       -0.1939986E-06 Eh
 * total energy  :  -150.9791653 Eh     change       -0.1481906E-06 Eh
 * total energy  :  -150.9791653 Eh     change        0.1460586E-07 Eh
 * total energy  :  -150.9791652 Eh     change        0.4987632E-07 Eh
 * total energy  :  -150.9791653 Eh     change       -0.1084476E-06 Eh
 * total energy  :  -150.9791653 Eh     change        0.4073371E-07 Eh
 * total energy  :  -150.9791653 Eh     change        0.2681486E-07 Eh
 * total energy  :  -150.9791654 Eh     change       -0.1138918E-06 Eh
 * total energy  :  -150.9791654 Eh     change       -0.4787032E-07 Eh
   *** GEOMETRY OPTIMIZATION CONVERGED AFTER 48 ITERATIONS ***

 final structure:
================
98
 xtb: 6.7.1 (edcfbbe)
C          -10.52234485812727        3.48558908250044        1.48725928318849
C          -10.42491938839468        2.13964855964506        1.17593930755625
C           -9.20172342963689        1.58948083775071        0.84234362401769
C           -8.05298213653787        2.37796507624977        0.80945964062383
C           -6.75378436800308        1.79472087863517        0.45354511605233
C           -6.38517344231409        0.53102418441479        0.91418354029293
C           -5.16456495025734       -0.01945596075332        0.58849907671427
C           -4.27118305337741        0.67559761856919       -0.22911618053641
N           -3.03625014363365        0.13492237338910       -0.57645978292840
C           -1.91745535169368        0.97542795403931       -0.69154182134074
C           -1.68361192900130        1.98092644664399        0.24497908292357
C           -0.54871674243443        2.76007818307541        0.15793618246344
C            0.36993255056630        2.57618191721931       -0.87316428830621
C            1.57914953503814        3.40964086180740       -0.95113030537547
C            1.93947020162324        4.02766881622419       -2.14533687079185
C            3.06967544622689        4.82096270521304       -2.21141203576278
C            3.86281617937199        4.99800432828356       -1.09055023674811
C            3.51394151727003        4.38511814110708        0.10085768084818
C            2.37866768997230        3.59957812721266        0.17288379180834
C            0.11552941813899        1.58898717725173       -1.82293300893959
C           -1.00571703099817        0.79150472127265       -1.73043743194437
C           -2.84141771429992       -1.24584474937902       -0.67920593211101
C           -3.84464354058370       -2.07656975268636       -1.20483230006795
C           -3.67182390570647       -3.44160510197979       -1.28299751971367
C           -2.46914834424304       -4.00007196897763       -0.86348424544140
C           -1.95303039359842       -5.33552804148502       -0.77634179499349
C           -2.46850468073812       -6.58525803563358       -1.09644552525584
C           -1.67842406461109       -7.69885359898115       -0.89382215362970
C           -0.38432924422279       -7.58007266257592       -0.38991893297626
C            0.15252460112704       -6.34944532949433       -0.06388692098150
C           -0.64234535706852       -5.22792316876843       -0.24804227473515
N           -0.35074802086412       -3.90021789021667       -0.02204498745149
C            0.85152314099124       -3.34627103532544        0.44461086883008
C            1.42598022499441       -3.77305342402240        1.63318489430310
C            2.56760988614125       -3.14976262643241        2.11598823088541
C            3.15677675767020       -2.09235905388144        1.43080245162292
N            4.19899288305644       -1.40640775339616        1.89474599210181
C            4.76542064487102       -0.41262087646710        1.21902564684279
C            5.78037960407452        0.38239889633684        1.90754204961649
C            6.67054996916556       -0.24329791107606        2.78006530291286
C            7.60801023905201        0.50012747366364        3.47094741604828
C            7.66414859379103        1.87494692719507        3.31099731059943
C            6.76660620571992        2.50571734411031        2.46303375399820
C            5.82781501944776        1.76995709158056        1.76798641569167
C            4.32099026908357       -0.13450763734577       -0.09167505105744
C            5.02363632664510        0.74158723604676       -1.02320179576552
C            6.41507442419931        0.85315911844169       -1.03302466465616
C            7.04245310610524        1.65506157746029       -1.96525262180666
C            6.30083410629440        2.34110807916353       -2.91447693561788
C            4.92258206934481        2.20644000179578       -2.93478449556404
C            4.28766790110323        1.41528024395113       -1.99922444738694
N            3.22282318655513       -0.74249902227718       -0.53397610312782
C            2.59070019087132       -1.68571808049556        0.16051054281688
C            1.44546586856694       -2.32010516959159       -0.29437208471710
C           -1.44581344097644       -3.15028546724483       -0.38269095472284
C           -1.63044308495160       -1.78608137904126       -0.25846979916169
C           -4.63493369561788        1.94156133176867       -0.69421969656082
C           -5.85176820192661        2.48954902807340       -0.35184842246826
C           -8.16403319499970        3.73153545093996        1.12234272163111
C           -9.38737755693542        4.27873531888656        1.46026871237975
H          -11.47819042555300        3.91435102631418        1.74974995133696
H          -11.30756523031428        1.51663794910286        1.19115096605652
H           -9.13620653144628        0.54267740789328        0.58320309987032
H           -7.05325732724658       -0.01356929309758        1.56506108204351
H           -4.88633120720124       -0.98783797315637        0.97718390160213
H           -2.38937981531533        2.13181145700566        1.04894103750500
H           -0.37181152999078        3.53021762105776        0.89454252189746
H            1.31606196582890        3.89766683850872       -3.01869052145009
H            3.33246317772576        5.30709328577047       -3.13988927591190
H            4.74889031182415        5.61273745757216       -1.14476701269010
H            4.12622536791252        4.52689907748572        0.97992131882861
H            2.11490950168167        3.11174686096927        1.10068640431786
H            0.81368804169115        1.43342625764875       -2.63246291770354
H           -1.18669012995303        0.01590921620155       -2.46036181200769
H           -4.76438702972519       -1.62760041673589       -1.54862775014167
H           -4.45932112700809       -4.06840249922254       -1.67291307766219
H           -3.46658906094639       -6.67791061506504       -1.49766920452891
H           -2.06211841934549       -8.67927667013872       -1.13413279986501
H            0.21251657597039       -8.46988532459539       -0.25390778378006
H            1.16011531687283       -6.26143339240726        0.31334207222248
H            0.96506629781293       -4.56882101775780        2.19763030558609
H            2.99912128533987       -3.44984123862996        3.05770227891348
H            6.61905207810529       -1.31486564751655        2.90101802627208
H            8.29802306242524        0.00511858236291        4.13875537661581
H            8.39875842316635        2.45434690812169        3.85035653415636
H            6.79722297111713        3.57957139573326        2.34818874758245
H            5.12170094899743        2.26466192329187        1.11771067128629
H            7.00583852478733        0.29850470797773       -0.31958519103578
H            8.11968568811671        1.73613999064661       -1.95955554163970
H            6.79725433814092        2.96523682359298       -3.64266383478557
H            4.34004741009544        2.71891368297319       -3.68570534002320
H            3.21470498373709        1.30678260891507       -2.00437964059461
H            1.03466798677963       -2.02639637504322       -1.24728962837897
H           -0.86488899453299       -1.15674941559768        0.16808953407503
H           -3.95548719250926        2.48567552714195       -1.33399165961298
H           -6.12265512924427        3.46047148098274       -0.73969002936150
H           -7.27981474159565        4.35239635083088        1.12116124696011
H           -9.45625025532734        5.32855748628041        1.70644767593905

 projected vibrational frequencies (cm⁻¹)
eigval :       -0.00    -0.00    -0.00     0.00     0.00     0.00
eigval :        6.86    15.27    16.82    20.41    23.54    29.38
eigval :       31.81    36.78    43.15    48.71    55.42    64.32
eigval :       65.75    66.21    72.00    76.12    81.62    89.30
eigval :       96.12    99.91   104.49   105.42   125.98   134.00
eigval :      150.53   157.23   174.79   178.52   193.19   200.94
eigval :      212.38   215.41   222.99   239.99   248.26   261.30
eigval :      281.62   288.65   294.50   303.85   306.63   333.50
eigval :      343.57   351.48   369.17   372.05   373.05   373.85
eigval :      379.15   380.81   383.47   387.73   389.96   393.65
eigval :      401.48   422.56   424.97   433.36   442.21   453.18
eigval :      458.82   474.10   489.54   500.27   513.84   529.00
eigval :      531.80   533.12   535.19   538.17   545.52   556.45
eigval :      569.95   583.11   584.35   586.00   588.65   589.62
eigval :      592.84   597.70   606.65   608.69   613.81   617.06
eigval :      629.42   642.13   664.45   665.29   666.86   667.75
eigval :      668.63   670.79   673.45   684.69   688.08   704.56
eigval :      714.12   718.23   737.85   747.73   756.19   756.93
eigval :      757.42   759.95   773.29   781.79   794.96   801.98
eigval :      817.68   820.18   825.54   830.85   855.81   865.14
eigval :      867.50   869.16   870.23   870.99   873.77   877.86
eigval :      878.91   881.59   885.39   895.90   899.98   900.31
eigval :      900.94   902.16   908.16   916.07   917.45   918.48
eigval :      919.49   921.42   924.47   926.33   926.84   927.17
eigval :      928.41   931.27   931.91   932.21   933.63   935.50
eigval :      961.94   971.91   973.26   988.06  1000.51  1006.20
eigval :     1010.62  1018.34  1035.01  1069.24  1075.67  1076.35
eigval :     1080.83  1083.52  1088.33  1088.67  1100.12  1113.98
eigval :     1119.82  1119.91  1121.15  1122.37  1128.93  1138.01
eigval :     1144.42  1156.13  1163.02  1177.46  1179.82  1180.93
eigval :     1182.57  1182.68  1183.01  1191.49  1194.01  1196.91
eigval :     1198.39  1199.63  1205.95  1215.83  1228.38  1234.06
eigval :     1238.56  1252.34  1261.66  1268.18  1269.76  1272.97
eigval :     1279.23  1281.46  1282.33  1284.89  1286.87  1287.80
eigval :     1296.56  1303.90  1314.46  1315.33  1317.97  1319.19
eigval :     1319.56  1320.85  1325.05  1327.45  1332.26  1336.18
eigval :     1356.95  1362.06  1373.41  1397.98  1403.72  1410.58
eigval :     1412.84  1431.02  1431.47  1431.94  1433.75  1436.22
eigval :     1448.78  1459.57  1463.34  1463.55  1469.96  1472.74
eigval :     1480.02  1484.63  1499.44  1500.00  1513.76  1535.52
eigval :     1550.62  1557.78  1559.30  1571.54  1572.31  1581.59
eigval :     1583.78  1585.09  1586.67  1589.25  1590.05  1591.48
eigval :     1597.83  1602.19  1603.61  1608.84  3069.33  3069.36
eigval :     3070.79  3072.00  3072.81  3074.31  3076.47  3076.58
eigval :     3076.65  3077.41  3078.24  3079.21  3079.66  3080.52
eigval :     3081.74  3081.83  3081.93  3084.76  3085.30  3087.71
eigval :     3088.49  3089.45  3089.59  3089.72  3090.41  3092.00
eigval :     3092.29  3092.95  3093.22  3093.35  3094.72  3095.47
eigval :     3096.32  3097.01  3097.91  3102.03  3103.79  3109.24

   temp. (K)  partition function   enthalpy   heat capacity  entropy
                                   cal/mol     cal/K/mol   cal/K/mol   J/K/mol
 298.15  VIB  0.165E+23            28219.878    178.342    176.536
         ROT  0.168E+09              888.752      2.981     40.623
         INT  0.277E+31            29108.631    181.323    217.160
         TR   0.205E+29             1481.254      4.968     45.770
         TOT                       30589.8846   186.2908   262.9294  1100.0966

       T/K    H(0)-H(T)+PV         H(T)/Eh          T*S/Eh         G(T)/Eh
   ------------------------------------------------------------------------
    298.15    0.487481E-01    0.802323E+00    0.124926E+00    0.677396E+00
   ------------------------------------------------------------------------

         :::::::::::::::::::::::::::::::::::::::::::::::::::::
         ::                  THERMODYNAMIC                  ::
         :::::::::::::::::::::::::::::::::::::::::::::::::::::
         :: total free energy        -150.301769120077 Eh   ::
         ::.................................................::
         :: total energy             -150.979165426179 Eh   ::
         :: zero point energy           0.753574462888 Eh   ::
         :: G(RRHO) w/o ZPVE           -0.076178156785 Eh   ::
         :: G(RRHO) contrib.            0.677396306103 Eh   ::
         :::::::::::::::::::::::::::::::::::::::::::::::::::::

           -------------------------------------------------
          | TOTAL ENERGY             -150.979165426179 Eh   |
          | TOTAL ENTHALPY           -150.176842879184 Eh   |
          | TOTAL FREE ENERGY        -150.301769120077 Eh   |
          | GRADIENT NORM               0.000038425532 Eh/α |
           -------------------------------------------------

 * finished run on 2025/09/04 at 10:55:44.911
