   * xtb version 6.7.1 (edcfbbe) compiled by 'albert@albert-system' on 2024-07-22

   ID    Z sym.   atoms
    1    6 C      1-13, 15-53
    2    7 N      14
    3    1 H      54-90

          program call               : xtb data2507/toluene/FSF4A/FSF4A_toluene_S0_finalOpt.xtbopt.xyz --gfn 2 --uhf 2 --gbsa toluene --ohess vtight --parallel 40 --molden --ceasefiles --namespace data2507/toluene/FSF4A/FSF4A_toluene_T1_preOpt
      * Solvation model:               GBSA
        Solvent                        toluene
        Solvent mass                       9.2140E+01 g/mol
          :  Hamiltonian                  GFN2-xTB          :
 * total energy  :  -133.1590958 Eh     change       -0.4217222E-07 Eh
 * total energy  :  -133.1636649 Eh     change       -0.4569043E-02 Eh
 * total energy  :  -133.1650071 Eh     change       -0.1342209E-02 Eh
 * total energy  :  -133.1651200 Eh     change       -0.1128782E-03 Eh
 * total energy  :  -133.1651935 Eh     change       -0.7350605E-04 Eh
 * total energy  :  -133.1652174 Eh     change       -0.2397447E-04 Eh
 * total energy  :  -133.1652409 Eh     change       -0.2350408E-04 Eh
 * total energy  :  -133.1652544 Eh     change       -0.1348020E-04 Eh
 * total energy  :  -133.1652660 Eh     change       -0.1156255E-04 Eh
 * total energy  :  -133.1652755 Eh     change       -0.9481977E-05 Eh
 * total energy  :  -133.1653258 Eh     change       -0.7387103E-06 Eh
 * total energy  :  -133.1653264 Eh     change       -0.5837608E-06 Eh
 * total energy  :  -133.1653269 Eh     change       -0.4657697E-06 Eh
 * total energy  :  -133.1653274 Eh     change       -0.4696487E-06 Eh
 * total energy  :  -133.1653279 Eh     change       -0.5191985E-06 Eh
 * total energy  :  -133.1653284 Eh     change       -0.5173781E-06 Eh
 * total energy  :  -133.1653288 Eh     change       -0.4043799E-06 Eh
 * total energy  :  -133.1653291 Eh     change       -0.2594812E-06 Eh
 * total energy  :  -133.1653291 Eh     change       -0.1064166E-08 Eh
   *** GEOMETRY OPTIMIZATION CONVERGED AFTER 44 ITERATIONS ***

 final structure:
================
90
 xtb: 6.7.1 (edcfbbe)
C           -5.22542191973836        0.00885226222340        2.29586229958520
C           -5.36780575853343       -0.26148365582519        0.79284633354223
C           -6.31869292466847        0.76073990569887        0.15799772790568
C           -5.82989013471899       -1.67942398180380        0.53664630494901
C           -6.99927823452901       -2.28575073954429        0.91057648502704
C           -7.21370155906065       -3.62398170798073        0.56752683903723
C           -6.24948984535172       -4.33771529843760       -0.14655995387384
C           -5.06926833131228       -3.74774684608687       -0.53380118082122
C           -4.84216239145498       -2.39907460277596       -0.19825229765250
C           -3.75345308201205       -1.54403928115720       -0.46581791387268
C           -2.54295331135964       -1.75173703196766       -1.17134154387653
C           -1.65201344436648       -0.72910005626583       -1.29210324797805
C           -1.91405641012287        0.55201777943863       -0.72810495981907
N           -1.00381495240586        1.56844816324613       -0.85989651585802
C           -1.44433409900539        2.89606368013908       -0.95244988840809
C           -2.60314664224594        3.19189975859083       -1.67459454757416
C           -3.02614539012705        4.49590417155722       -1.82240470744566
C           -2.28866942958715        5.53058972906975       -1.25847042070391
C           -1.13989692941773        5.24648540754799       -0.54398186448385
C           -0.70133483936606        3.93804352871127       -0.36284431139170
C            0.48211617163698        3.68531448672245        0.47374897975901
C            0.41659243454513        2.81407552571714        1.55911807590566
C            1.51038409260767        2.63129275194792        2.38160142097669
C            2.68878493384759        3.31907458564467        2.13569845639235
C            2.76539671801390        4.18710580550613        1.05831261964064
C            1.67050416013140        4.37550258906030        0.23715932579962
C            0.34460736130245        1.30213838417167       -1.10026184570427
C            0.98417716697400        2.00674853690324       -2.12966832703777
C            2.27620653462430        1.73108893857460       -2.51013396989040
C            2.99142744442258        0.70448838708147       -1.87800119036599
C            2.38848019168421        0.01989540065998       -0.85627820295359
C            1.07771888860372        0.30310394937508       -0.40994555810052
C            0.80968876791051       -0.49979956628450        0.75588606916699
C           -0.27011682412359       -0.56905132116290        1.64039489600970
C           -0.21596243658249       -1.44309894033183        2.70851742120439
C            0.89216549050121       -2.25141146646656        2.92976156187158
C            1.98135416389585       -2.18976351129801        2.06591946395209
C            1.93297276842071       -1.32253836371908        1.00214787403879
C            2.99456482389767       -1.09559343511288       -0.04219927793514
C            4.36092649524783       -0.78140900128610        0.51180074231459
C            4.72729453448218        0.25710291238563        1.33956740263592
C            6.05707935167986        0.35669670114323        1.72743821930643
C            6.99535506885469       -0.56827633349939        1.29299260462481
C            6.63073579361482       -1.61353162836174        0.45908481232875
C            5.30569205597325       -1.71845926296447        0.06714893637842
C            4.63051371116345       -2.68329566171508       -0.78675467376595
C            5.10436284954628       -3.79645318864317       -1.46264221631350
C            4.21258973987982       -4.54929709231502       -2.21022054324430
C            2.87183329896638       -4.20102890348697       -2.28141436454250
C            2.39022418726757       -3.08693299490978       -1.60639469813952
C            3.27415037508043       -2.33434948855338       -0.86456740241842
C           -3.13715839387912        0.76550954315408       -0.02306061353448
C           -4.02189681308060       -0.25337782703885        0.10161068117195
H           -4.56065916834635       -0.72439646699232        2.74826996524413
H           -4.81724130638735        1.00275544490836        2.46528427315437
H           -6.19528519681859       -0.05724251224658        2.78332024088472
H           -7.30524963999007        0.68821423085246        0.60951424710055
H           -5.94125095481408        1.77019678183001        0.30472350670148
H           -6.41208115164287        0.57422021297635       -0.91017459873327
H           -7.75484295298592       -1.74851012937768        1.46632993342056
H           -8.13213929805258       -4.11123362961370        0.85956742351456
H           -6.44027944457764       -5.37216572406674       -0.39754581815877
H           -4.32579190070211       -4.30245864996254       -1.08700760687043
H           -2.34706393647691       -2.70970078161955       -1.62877472078844
H           -0.74455962289837       -0.85820472400407       -1.86270837024330
H           -3.14702335870344        2.38420451926397       -2.14246994357166
H           -3.91880243647674        4.70968544688649       -2.39020371698584
H           -2.61196067676485        6.55365526661244       -1.37664013749032
H           -0.57590441663081        6.04706544257951       -0.08808338729249
H           -0.50537352372527        2.29434452240222        1.77230535462026
H            1.44201125211268        1.95235667217408        3.21961445161117
H            3.54076098594002        3.18670995227042        2.78676848876372
H            3.68313274074759        4.72232260839236        0.86079843223608
H            1.73479100585997        5.04937484260747       -0.60495683202535
H            0.42260343471723        2.76545609166839       -2.65625673822034
H            2.73225182091182        2.28882501560523       -3.31333756658891
H            3.99811563531466        0.46459238821316       -2.18593787997651
H           -1.14886595053504        0.03874071251404        1.50236961412337
H           -1.05351225875630       -1.49721956013870        3.39001475865383
H            0.90996541133063       -2.92567855889912        3.77324559371940
H            2.85201009699771       -2.80904579101395        2.23120388797427
H            3.99317614245319        0.97616631022295        1.67158278659609
H            6.36615811897008        1.16419134076666        2.37539052556740
H            8.02453808806465       -0.47090720312876        1.60809378919694
H            7.36553934808305       -2.33003422051681        0.12228578089144
H            6.14667787851071       -4.07440685099928       -1.40738902569775
H            4.56488663925189       -5.42105294620896       -2.74291106624271
H            2.19383395887595       -4.80428435594003       -2.86778035099951
H            1.34458164054962       -2.81964507973578       -1.65609116450428
H           -3.31958012916603        1.73089365246171        0.42656158474338

          :  Hamiltonian                  GFN2-xTB          :
         :: gradient norm              0.000028725428 Eh/a0 ::
         :: HOMO-LUMO gap              0.203644365754 eV    ::
         :: SCC energy              -135.692074610555 Eh    ::
         :: -> dispersion             -0.144538804724 Eh    ::
         :: -> Gsolv                  -0.048638342348 Eh    ::
         :: repulsion energy           2.526745548545 Eh    ::

    * Orbital Energies and Occupations

         #    Occupation            Energy/Eh            Energy/eV
      -------------------------------------------------------------
         1        2.0000           -0.6797618             -18.4973
       ...           ...                  ...                  ...
       114        2.0000           -0.4073725             -11.0852
       115        2.0000           -0.4045880             -11.0094
       116        2.0000           -0.4030159             -10.9666
       117        2.0000           -0.4027496             -10.9594
       118        2.0000           -0.3937727             -10.7151
       119        2.0000           -0.3930795             -10.6962
       120        2.0000           -0.3926481             -10.6845
       121        2.0000           -0.3895166             -10.5993
       122        2.0000           -0.3854852             -10.4896
       123        2.0000           -0.3789132             -10.3108
       124        2.0000           -0.3724413             -10.1346
       125        1.0000           -0.3491849              -9.5018
       126        0.9782           -0.2593015              -7.0560 (HOMO)
       127        0.0167           -0.2518176              -6.8523 (LUMO)
       128        0.0050           -0.2506556              -6.8207
       129        0.0000           -0.2461544              -6.6982
       130                         -0.2334086              -6.3514
       131                         -0.2239286              -6.0934
       132                         -0.2236713              -6.0864
       133                         -0.2210737              -6.0157
       134                         -0.2190009              -5.9593
       135                         -0.2168959              -5.9020
       136                         -0.2124631              -5.7814
       137                         -0.2114414              -5.7536
       ...                                ...                  ...
       249                          0.7353265              20.0093
      -------------------------------------------------------------
                  HL-Gap            0.0074838 Eh            0.2036 eV

     #   Z          covCN         q      C6AA      α(0)
     1   6 C        3.758    -0.098    22.424     6.751
     2   6 C        3.930     0.018    20.202     6.388
     3   6 C        3.758    -0.100    22.459     6.757
     4   6 C        3.053    -0.004    28.066     8.688
     5   6 C        2.910    -0.038    28.934     8.820
     6   6 C        2.920    -0.042    29.040     8.837
     7   6 C        2.915    -0.034    28.858     8.809
     8   6 C        2.910    -0.041    29.026     8.834
     9   6 C        3.029    -0.007    28.163     8.705
    10   6 C        3.031    -0.006    28.147     8.702
    11   6 C        2.906    -0.038    28.935     8.820
    12   6 C        2.914    -0.040    28.995     8.830
    13   6 C        2.927     0.044    27.016     8.524
    14   7 N        2.752     0.000    21.261     6.848
    15   6 C        2.935     0.053    26.802     8.490
    16   6 C        2.920    -0.038    28.956     8.824
    17   6 C        2.917    -0.032    28.787     8.798
    18   6 C        2.916    -0.031    28.767     8.795
    19   6 C        2.925    -0.032    28.800     8.801
    20   6 C        2.975     0.002    27.979     8.676
    21   6 C        2.977     0.008    27.836     8.654
    22   6 C        2.925    -0.032    28.806     8.802
    23   6 C        2.918    -0.029    28.729     8.790
    24   6 C        2.920    -0.033    28.827     8.805
    25   6 C        2.918    -0.030    28.750     8.793
    26   6 C        2.925    -0.036    28.903     8.816
    27   6 C        2.924     0.044    27.009     8.523
    28   6 C        2.920    -0.045    29.106     8.847
    29   6 C        2.918    -0.042    29.042     8.837
    30   6 C        2.912    -0.040    28.983     8.828
    31   6 C        3.057     0.004    27.867     8.657
    32   6 C        3.025    -0.015    28.359     8.735
    33   6 C        3.029    -0.004    28.093     8.694
    34   6 C        2.914    -0.042    29.042     8.837
    35   6 C        2.918    -0.035    28.866     8.810
    36   6 C        2.921    -0.041    29.025     8.835
    37   6 C        2.912    -0.037    28.916     8.818
    38   6 C        3.059     0.001    27.946     8.669
    39   6 C        3.976     0.009    20.349     6.409
    40   6 C        3.056     0.004    27.875     8.659
    41   6 C        2.914    -0.035    28.861     8.809
    42   6 C        2.923    -0.033    28.812     8.802
    43   6 C        2.921    -0.034    28.852     8.808
    44   6 C        2.914    -0.036    28.886     8.813
    45   6 C        3.036    -0.001    28.013     8.681
    46   6 C        3.035    -0.001    28.007     8.680
    47   6 C        2.914    -0.035    28.878     8.812
    48   6 C        2.921    -0.034    28.849     8.808
    49   6 C        2.922    -0.033    28.829     8.805
    50   6 C        2.914    -0.034    28.842     8.806
    51   6 C        3.057     0.005    27.844     8.654
    52   6 C        2.909    -0.048    29.197     8.860
    53   6 C        3.045    -0.003    28.058     8.688
    54   1 H        0.925     0.033     2.548     2.496
    55   1 H        0.925     0.042     2.428     2.437
    56   1 H        0.925     0.042     2.420     2.433
    57   1 H        0.925     0.043     2.414     2.430
    58   1 H        0.925     0.043     2.409     2.427
    59   1 H        0.925     0.034     2.533     2.489
    60   1 H        0.926     0.024     2.668     2.554
    61   1 H        0.926     0.022     2.696     2.568
    62   1 H        0.925     0.022     2.704     2.571
    63   1 H        0.926     0.022     2.700     2.570
    64   1 H        0.926     0.030     2.582     2.513
    65   1 H        0.926     0.031     2.574     2.509
    66   1 H        0.926     0.045     2.382     2.414
    67   1 H        0.926     0.044     2.400     2.423
    68   1 H        0.926     0.043     2.411     2.428
    69   1 H        0.926     0.043     2.406     2.426
    70   1 H        0.926     0.029     2.596     2.519
    71   1 H        0.926     0.027     2.633     2.537
    72   1 H        0.926     0.028     2.615     2.529
    73   1 H        0.926     0.031     2.576     2.510
    74   1 H        0.926     0.032     2.565     2.504
    75   1 H        0.926     0.034     2.537     2.491
    76   1 H        0.926     0.033     2.537     2.491
    77   1 H        0.926     0.027     2.626     2.534
    78   1 H        0.926     0.026     2.642     2.542
    79   1 H        0.926     0.023     2.686     2.563
    80   1 H        0.926     0.023     2.691     2.565
    81   1 H        0.926     0.019     2.750     2.593
    82   1 H        0.926     0.029     2.595     2.519
    83   1 H        0.926     0.031     2.573     2.508
    84   1 H        0.926     0.032     2.564     2.504
    85   1 H        0.926     0.032     2.558     2.501
    86   1 H        0.926     0.033     2.546     2.495
    87   1 H        0.926     0.032     2.557     2.500
    88   1 H        0.926     0.031     2.565     2.505
    89   1 H        0.926     0.025     2.652     2.547
    90   1 H        0.926     0.033     2.540     2.492

molecular dipole:
                 x           y           z       tot (Debye)
 q only:       -0.385       1.631      -0.433
   full:       -0.326       1.520      -0.439       4.106

 projected vibrational frequencies (cm⁻¹)
eigval :       -0.00    -0.00     0.00     0.00     0.00     0.00
eigval :       13.81    16.01    21.80    28.62    31.92    35.47
eigval :       42.78    48.53    57.51    62.69    71.15    81.56
eigval :       84.87    89.70    97.32   102.43   117.92   128.88
eigval :      134.46   138.57   147.41   155.27   161.69   180.47
eigval :      200.80   206.80   211.59   223.65   229.90   233.89
eigval :      237.22   246.89   256.76   273.08   289.33   293.70
eigval :      299.85   307.22   317.73   320.90   331.38   366.43
eigval :      369.69   374.50   384.90   387.00   401.20   407.15
eigval :      414.17   429.33   438.25   449.88   453.97   459.65
eigval :      467.42   483.83   497.64   505.46   507.88   514.81
eigval :      515.76   523.12   530.15   539.66   546.68   546.91
eigval :      564.97   571.56   581.33   583.07   587.25   591.00
eigval :      597.07   606.92   616.20   626.48   651.63   664.57
eigval :      668.29   672.62   682.49   688.62   695.04   697.22
eigval :      705.06   716.94   732.11   737.21   743.38   744.69
eigval :      752.10   754.92   757.20   763.35   771.31   781.12
eigval :      781.72   786.63   794.16   818.36   837.16   853.85
eigval :      860.48   869.20   873.53   875.59   877.71   882.31
eigval :      884.36   890.25   890.94   892.42   896.45   899.42
eigval :      901.42   904.01   908.17   909.59   911.98   915.91
eigval :      916.77   920.59   922.13   925.24   925.56   928.33
eigval :      929.43   951.85   960.61   963.59   967.28   995.26
eigval :     1007.60  1011.05  1024.80  1041.61  1043.20  1055.25
eigval :     1073.31  1074.56  1079.29  1080.90  1084.33  1087.56
eigval :     1089.76  1102.74  1118.56  1121.94  1134.08  1137.97
eigval :     1142.42  1149.63  1167.53  1168.39  1173.72  1174.31
eigval :     1175.37  1176.70  1177.85  1181.54  1185.44  1193.18
eigval :     1196.61  1207.20  1207.90  1210.59  1214.56  1223.60
eigval :     1232.51  1240.41  1243.75  1252.83  1258.08  1263.27
eigval :     1265.04  1276.32  1277.16  1281.21  1283.48  1293.31
eigval :     1300.16  1318.48  1320.70  1325.73  1326.90  1341.72
eigval :     1348.18  1351.39  1365.00  1373.81  1380.02  1391.23
eigval :     1397.55  1403.73  1407.16  1410.21  1417.14  1425.34
eigval :     1427.60  1429.09  1431.78  1443.02  1447.19  1458.14
eigval :     1460.94  1467.64  1468.66  1481.22  1483.82  1488.34
eigval :     1493.36  1495.44  1503.03  1509.60  1521.72  1538.63
eigval :     1544.64  1561.29  1565.10  1571.58  1577.58  1582.35
eigval :     1582.93  1587.63  1594.74  1602.39  1610.68  3024.27
eigval :     3027.05  3028.64  3029.26  3035.28  3037.37  3060.38
eigval :     3063.93  3064.26  3066.18  3067.04  3067.56  3067.97
eigval :     3070.01  3072.76  3074.04  3074.57  3074.75  3075.51
eigval :     3077.17  3078.27  3079.12  3080.38  3081.76  3082.10
eigval :     3083.01  3083.16  3084.88  3085.50  3087.43  3089.68
eigval :     3090.58  3090.86  3092.44  3095.55  3099.37  3113.18

   temp. (K)  partition function   enthalpy   heat capacity  entropy
                                   cal/mol     cal/K/mol   cal/K/mol   J/K/mol
 298.15  VIB  0.214E+19            25060.704    162.047    153.730
         ROT  0.758E+08              888.752      2.981     39.037
         INT  0.162E+27            25949.457    165.028    192.767
         TR   0.170E+29             1481.254      4.968     45.393
         TOT                       27430.7107   169.9961   238.1602   996.4622

       T/K    H(0)-H(T)+PV         H(T)/Eh          T*S/Eh         G(T)/Eh
   ------------------------------------------------------------------------
    298.15    0.437136E-01    0.746818E+00    0.113158E+00    0.633661E+00
   ------------------------------------------------------------------------

         :::::::::::::::::::::::::::::::::::::::::::::::::::::
         ::                  THERMODYNAMIC                  ::
         :::::::::::::::::::::::::::::::::::::::::::::::::::::
         :: total free energy        -132.531668370765 Eh   ::
         ::.................................................::
         :: total energy             -133.165329063120 Eh   ::
         :: zero point energy           0.703104657301 Eh   ::
         :: G(RRHO) w/o ZPVE           -0.069443964946 Eh   ::
         :: G(RRHO) contrib.            0.633660692355 Eh   ::
         :::::::::::::::::::::::::::::::::::::::::::::::::::::

           -------------------------------------------------
          | TOTAL ENERGY             -133.165329063120 Eh   |
          | TOTAL ENTHALPY           -132.418510785802 Eh   |
          | TOTAL FREE ENERGY        -132.531668370765 Eh   |
          | GRADIENT NORM               0.000029163613 Eh/α |
          | HOMO-LUMO GAP               0.203645862702 eV   |
           -------------------------------------------------

 * finished run on 2025/09/04 at 13:50:49.791
