   * xtb version 6.7.1 (edcfbbe) compiled by 'albert@albert-system' on 2024-07-22

   ID    Z sym.   atoms
    1    6 C      1-13, 15-53
    2    7 N      14
    3    1 H      54-90

          program call               : xtb data2507/toluene/FSF4A/FSF4A.xyz --gfn 2 --gbsa toluene --ohess vtight --parallel 40 --molden --ceasefiles --namespace data2507/toluene/FSF4A/FSF4A_toluene_S0_preOpt
      * Solvation model:               GBSA
        Solvent                        toluene
        Solvent mass                       9.2140E+01 g/mol
          :  Hamiltonian                  GFN2-xTB          :
 * total energy  :  -133.2369229 Eh     change       -0.2980812E-08 Eh
 * total energy  :  -133.2496067 Eh     change       -0.1268380E-01 Eh
 * total energy  :  -133.2538419 Eh     change       -0.4235201E-02 Eh
 * total energy  :  -133.2552509 Eh     change       -0.1408970E-02 Eh
 * total energy  :  -133.2560546 Eh     change       -0.8036822E-03 Eh
 * total energy  :  -133.2564407 Eh     change       -0.3861214E-03 Eh
 * total energy  :  -133.2567297 Eh     change       -0.2890153E-03 Eh
 * total energy  :  -133.2570018 Eh     change       -0.2721380E-03 Eh
 * total energy  :  -133.2572892 Eh     change       -0.2873546E-03 Eh
 * total energy  :  -133.2575417 Eh     change       -0.2524758E-03 Eh
 * total energy  :  -133.2586507 Eh     change       -0.7239225E-06 Eh
 * total energy  :  -133.2586515 Eh     change       -0.8140025E-06 Eh
 * total energy  :  -133.2586525 Eh     change       -0.9529052E-06 Eh
 * total energy  :  -133.2586535 Eh     change       -0.1014164E-05 Eh
 * total energy  :  -133.2586545 Eh     change       -0.9720204E-06 Eh
 * total energy  :  -133.2586555 Eh     change       -0.9980404E-06 Eh
 * total energy  :  -133.2586563 Eh     change       -0.8316655E-06 Eh
 * total energy  :  -133.2586570 Eh     change       -0.6416205E-06 Eh
 * total energy  :  -133.2586570 Eh     change       -0.4599912E-08 Eh
   *** GEOMETRY OPTIMIZATION CONVERGED AFTER 68 ITERATIONS ***

 final structure:
================
90
 xtb: 6.7.1 (edcfbbe)
C           -5.07695042299261       -0.00247552206507        2.14727070010168
C           -5.19905217345723       -0.36821280996616        0.66421512521400
C           -6.13684406988034        0.60955049171284       -0.05261096748531
C           -5.66004829562744       -1.79908669658988        0.48964556012553
C           -6.83912349741412       -2.38338331519266        0.89875846040648
C           -7.05195977804190       -3.72902391509899        0.62607160328168
C           -6.09598459625980       -4.47589964954603       -0.04500982187925
C           -4.90690841898895       -3.89706282725803       -0.45914678958917
C           -4.69200876654239       -2.55465510254939       -0.19046179285512
C           -3.56700481955098       -1.69020908725258       -0.50012722721634
C           -2.37488794502181       -1.93663654795597       -1.16178580903248
C           -1.47245000790626       -0.90369072370224       -1.33274782845757
C           -1.73774558011657        0.37485116919339       -0.83711001075101
N           -0.81667100758261        1.41141829732402       -0.98849897409934
C           -1.27955850913608        2.71760005713616       -1.23707225255705
C           -2.40014817248503        2.92801846702617       -2.03924553890677
C           -2.83670511210077        4.20750756748973       -2.32245099691533
C           -2.14558154777370        5.30111041508450       -1.82601348217814
C           -1.02861306911368        5.10143094817086       -1.03533156466469
C           -0.58754924097831        3.82131587427363       -0.71752487016405
C            0.57517956540305        3.66510141609348        0.17690941196240
C            0.47150578632775        2.92073807698349        1.34764266856426
C            1.54199083622489        2.82658110621240        2.21689013623990
C            2.73077400948864        3.47567086156911        1.92739096843284
C            2.84638193687508        4.21300579793601        0.76047783389139
C            1.77416657543174        4.31185157409634       -0.10684031907740
C            0.53386420135644        1.13577137835221       -1.25686991827323
C            1.13835049529977        1.74872387804925       -2.35795742999659
C            2.44755966649972        1.48970035158071       -2.71155706416534
C            3.20315058301069        0.57937184636122       -1.98686316834507
C            2.62135890359321       -0.02111359498355       -0.89268305900806
C            1.30582183420156        0.25751387867970       -0.48798966294158
C            1.04607604757178       -0.48266138732639        0.74315564823607
C           -0.04133319072523       -0.52033892942338        1.60381482290493
C            0.02080709674269       -1.31640689010723        2.73664434058006
C            1.14923938559715       -2.06642240466102        3.02645962263510
C            2.25016556970326       -2.02699941766364        2.18235161679111
C            2.19006719629542       -1.23481417120225        1.05718810456238
C            3.26087936843521       -1.03966921960383        0.01703649708863
C            4.60259656980685       -0.62018834810098        0.56246396573904
C            4.90521629304744        0.48732669595824        1.32375495398731
C            6.22392836155206        0.68107597763977        1.71394635425572
C            7.21380294728542       -0.21824091155470        1.34571774404411
C            6.91298610295360       -1.33275462526958        0.57852593797487
C            5.59935043326774       -1.53264290982353        0.18589277755855
C            4.98358834796500       -2.58728621124788       -0.60510686156066
C            5.52210479742416       -3.71356653124972       -1.20623891227269
C            4.67745006955738       -4.56136282002606       -1.90560316671086
C            3.31997187352035       -4.29331798116173       -2.00239433379058
C            2.77387661236902       -3.16557275326987       -1.40345990884060
C            3.61128154413852       -2.31870567248011       -0.71090073245197
C           -2.94230786210451        0.61833416417518       -0.16278999853927
C           -3.84407064307860       -0.40542138042401       -0.00682535775156
H           -4.41599880432837       -0.70324630560940        2.65360661284306
H           -4.67244204002532        1.00116699325932        2.25680350425361
H           -6.05266016035916       -0.03847403089342        2.62607509894593
H           -6.22291097359212        0.34449737281729       -1.10476388966049
H           -7.12741281434104        0.57930508435915        0.39496936199999
H           -5.75139270142978        1.62403228530317        0.02062498471922
H           -7.59192843821900       -1.81175538888865        1.42245703174011
H           -7.97324933333828       -4.19877028531438        0.93996288650666
H           -6.28119531375875       -5.52151230436270       -0.24719955354843
H           -4.16359325650447       -4.48195528234439       -0.98118159695401
H           -2.15241403834826       -2.91811975182795       -1.55406555840082
H           -0.54996659634650       -1.07930292556821       -1.86618430231276
H           -2.92089821157256        2.07425396975155       -2.44863471149257
H           -3.70780309795402        4.34979729598962       -2.94495756995186
H           -2.47622823267238        6.30363187855027       -2.05260215565665
H           -0.49324657185926        5.94879441817889       -0.63144581626739
H           -0.46001991862613        2.43027590039413        1.58662523414940
H            1.44676596896166        2.24763203973809        3.12448759081439
H            3.56250653130596        3.41550915594390        2.61461840937568
H            3.77404554396973        4.71635527165143        0.52859329573573
H            1.86483654693311        4.88665630102090       -1.01751271461566
H            0.55176291728982        2.43338424591737       -2.95391877738157
H            2.87439099490405        1.98361005031514       -3.57186683792253
H            4.21934899531789        0.34722454141967       -2.26835756493997
H           -0.93170400213960        0.05264340916935        1.40846294551746
H           -0.82665345551805       -1.34923432931743        3.40634023497132
H            1.17491423048373       -2.68033147351289        3.91503740642829
H            3.13899894750994       -2.60058530370130        2.40353682185903
H            4.13124418455043        1.18609301199165        1.60426868952190
H            6.48355520622583        1.54294611670902        2.31149206431763
H            8.23322688037272       -0.04666129113321        1.66067316567116
H            7.68763998700982       -2.02938246090494        0.29357372622590
H            6.57795543834340       -3.92824049007616       -1.13203236149575
H            5.08070302363466       -5.44407803386410       -2.38087541885396
H            2.67965100190077       -4.96955835068141       -2.55011457317349
H            1.71589419615114       -2.95824674276637       -1.47536018815622
H           -3.14570691798943        1.60589547392706        0.22585449110065

          :  Hamiltonian                  GFN2-xTB          :
         :: gradient norm              0.000049324248 Eh/a0 ::
         :: HOMO-LUMO gap              2.519674215442 eV    ::
         :: SCC energy              -135.803621604602 Eh    ::
         :: -> dispersion             -0.143953746885 Eh    ::
         :: -> Gsolv                  -0.048024529716 Eh    ::
         :: repulsion energy           2.544964642605 Eh    ::

    * Orbital Energies and Occupations

         #    Occupation            Energy/Eh            Energy/eV
      -------------------------------------------------------------
         1        2.0000           -0.6650872             -18.0979
       ...           ...                  ...                  ...
       113        2.0000           -0.4093921             -11.1401
       114        2.0000           -0.4085321             -11.1167
       115        2.0000           -0.4035017             -10.9798
       116        2.0000           -0.4023454             -10.9484
       117        2.0000           -0.4001009             -10.8873
       118        2.0000           -0.3959075             -10.7732
       119        2.0000           -0.3945983             -10.7376
       120        2.0000           -0.3938929             -10.7184
       121        2.0000           -0.3892227             -10.5913
       122        2.0000           -0.3857765             -10.4975
       123        2.0000           -0.3809779             -10.3669
       124        2.0000           -0.3774036             -10.2697
       125        2.0000           -0.3467089              -9.4344 (HOMO)
       126                         -0.2541126              -6.9148 (LUMO)
       127                         -0.2519569              -6.8561
       128                         -0.2465188              -6.7081
       129                         -0.2402425              -6.5373
       130                         -0.2295196              -6.2455
       131                         -0.2254181              -6.1339
       132                         -0.2239158              -6.0931
       133                         -0.2221276              -6.0444
       134                         -0.2204802              -5.9996
       135                         -0.2182308              -5.9384
       136                         -0.2157225              -5.8701
       ...                                ...                  ...
       249                          0.7362610              20.0347
      -------------------------------------------------------------
                  HL-Gap            0.0925963 Eh            2.5197 eV

     #   Z          covCN         q      C6AA      α(0)
     1   6 C        3.758    -0.097    22.410     6.749
     2   6 C        3.935     0.019    20.197     6.386
     3   6 C        3.758    -0.098    22.420     6.751
     4   6 C        3.055    -0.003    28.058     8.687
     5   6 C        2.915    -0.036    28.884     8.813
     6   6 C        2.921    -0.036    28.906     8.817
     7   6 C        2.921    -0.035    28.880     8.813
     8   6 C        2.914    -0.038    28.936     8.821
     9   6 C        3.036    -0.002    28.030     8.684
    10   6 C        3.035    -0.012    28.279     8.722
    11   6 C        2.913    -0.035    28.872     8.811
    12   6 C        2.923    -0.053    29.319     8.880
    13   6 C        2.924     0.066    26.511     8.444
    14   7 N        2.751    -0.080    22.789     7.090
    15   6 C        2.930     0.062    26.608     8.459
    16   6 C        2.921    -0.047    29.175     8.858
    17   6 C        2.919    -0.033    28.814     8.803
    18   6 C        2.917    -0.038    28.950     8.823
    19   6 C        2.926    -0.035    28.873     8.812
    20   6 C        2.978    -0.006    28.174     8.707
    21   6 C        2.978     0.012    27.746     8.640
    22   6 C        2.925    -0.031    28.778     8.797
    23   6 C        2.918    -0.030    28.740     8.791
    24   6 C        2.920    -0.032    28.786     8.798
    25   6 C        2.918    -0.030    28.757     8.794
    26   6 C        2.925    -0.035    28.869     8.811
    27   6 C        2.921     0.064    26.576     8.454
    28   6 C        2.925    -0.052    29.281     8.874
    29   6 C        2.922    -0.033    28.823     8.804
    30   6 C        2.913    -0.042    29.050     8.838
    31   6 C        3.062     0.006    27.836     8.652
    32   6 C        3.028    -0.015    28.349     8.734
    33   6 C        3.032     0.004    27.905     8.665
    34   6 C        2.916    -0.036    28.888     8.814
    35   6 C        2.920    -0.034    28.836     8.806
    36   6 C        2.922    -0.033    28.824     8.804
    37   6 C        2.914    -0.034    28.853     8.808
    38   6 C        3.059     0.005    27.855     8.655
    39   6 C        3.978     0.010    20.343     6.408
    40   6 C        3.055     0.005    27.862     8.656
    41   6 C        2.914    -0.034    28.854     8.808
    42   6 C        2.923    -0.032    28.795     8.800
    43   6 C        2.921    -0.034    28.838     8.806
    44   6 C        2.914    -0.035    28.872     8.811
    45   6 C        3.036    -0.000    27.994     8.678
    46   6 C        3.035     0.000    27.989     8.678
    47   6 C        2.914    -0.035    28.865     8.810
    48   6 C        2.921    -0.034    28.836     8.806
    49   6 C        2.923    -0.033    28.813     8.803
    50   6 C        2.914    -0.033    28.831     8.805
    51   6 C        3.057     0.006    27.833     8.652
    52   6 C        2.918    -0.054    29.347     8.884
    53   6 C        3.054    -0.001    28.004     8.679
    54   1 H        0.925     0.034     2.530     2.488
    55   1 H        0.925     0.042     2.418     2.432
    56   1 H        0.925     0.043     2.410     2.428
    57   1 H        0.925     0.034     2.535     2.490
    58   1 H        0.925     0.043     2.407     2.426
    59   1 H        0.925     0.043     2.409     2.427
    60   1 H        0.926     0.028     2.609     2.526
    61   1 H        0.926     0.027     2.629     2.536
    62   1 H        0.926     0.026     2.645     2.543
    63   1 H        0.926     0.026     2.647     2.544
    64   1 H        0.926     0.028     2.619     2.531
    65   1 H        0.926     0.023     2.692     2.566
    66   1 H        0.926     0.033     2.539     2.492
    67   1 H        0.926     0.035     2.521     2.483
    68   1 H        0.926     0.034     2.531     2.488
    69   1 H        0.926     0.035     2.520     2.483
    70   1 H        0.926     0.032     2.563     2.503
    71   1 H        0.926     0.029     2.605     2.524
    72   1 H        0.926     0.030     2.585     2.514
    73   1 H        0.926     0.031     2.569     2.507
    74   1 H        0.926     0.030     2.580     2.512
    75   1 H        0.926     0.031     2.571     2.508
    76   1 H        0.926     0.035     2.516     2.481
    77   1 H        0.926     0.029     2.601     2.522
    78   1 H        0.926     0.035     2.518     2.481
    79   1 H        0.926     0.031     2.578     2.511
    80   1 H        0.926     0.032     2.564     2.504
    81   1 H        0.926     0.027     2.635     2.538
    82   1 H        0.926     0.030     2.586     2.515
    83   1 H        0.926     0.032     2.556     2.500
    84   1 H        0.926     0.033     2.547     2.496
    85   1 H        0.926     0.033     2.538     2.491
    86   1 H        0.926     0.034     2.526     2.485
    87   1 H        0.926     0.033     2.540     2.492
    88   1 H        0.926     0.032     2.553     2.498
    89   1 H        0.926     0.025     2.652     2.547
    90   1 H        0.926     0.029     2.597     2.520

molecular dipole:
                 x           y           z       tot (Debye)
 q only:       -0.066       0.591       0.121
   full:       -0.034       0.539       0.031       1.374

 projected vibrational frequencies (cm⁻¹)
eigval :       -0.00    -0.00     0.00     0.00     0.00     0.00
eigval :       12.15    14.72    18.76    29.97    33.31    36.07
eigval :       42.27    46.03    56.38    63.62    69.27    80.82
eigval :       84.90    91.92    96.57   103.44   117.44   126.56
eigval :      131.69   136.87   151.01   153.54   165.60   181.09
eigval :      199.47   203.86   210.97   221.64   231.52   235.38
eigval :      238.72   246.62   258.63   274.18   291.43   297.58
eigval :      304.54   312.89   323.20   329.50   338.61   369.17
eigval :      370.48   373.89   387.69   402.40   411.10   414.37
eigval :      419.40   434.35   447.09   454.53   462.43   467.28
eigval :      467.77   482.96   503.23   513.65   517.88   527.14
eigval :      532.09   537.59   538.47   542.63   552.81   558.34
eigval :      570.57   584.55   585.76   587.44   591.54   594.41
eigval :      608.61   615.53   626.43   632.32   656.60   670.02
eigval :      685.39   688.74   691.13   692.85   706.83   716.21
eigval :      721.82   726.17   738.38   741.01   749.80   754.95
eigval :      761.53   766.96   776.17   777.70   779.24   785.65
eigval :      786.24   797.51   822.25   825.04   874.76   875.53
eigval :      876.20   880.42   881.13   884.33   884.58   888.90
eigval :      890.90   899.51   906.22   906.78   908.16   909.43
eigval :      912.27   913.49   915.42   916.48   923.55   926.42
eigval :      926.56   927.41   928.08   929.07   932.10   936.40
eigval :      945.74   961.88   965.60   974.23   989.43  1008.20
eigval :     1008.53  1011.45  1035.44  1047.67  1068.17  1072.72
eigval :     1076.82  1078.08  1083.19  1084.95  1096.39  1104.65
eigval :     1111.55  1117.80  1122.10  1137.12  1140.07  1142.77
eigval :     1149.13  1160.73  1173.57  1176.74  1177.59  1178.33
eigval :     1178.42  1179.35  1180.02  1183.80  1186.52  1197.03
eigval :     1200.23  1207.75  1219.48  1226.18  1228.86  1234.07
eigval :     1243.24  1248.71  1251.03  1258.87  1264.93  1269.07
eigval :     1270.50  1279.23  1283.12  1284.22  1287.52  1301.10
eigval :     1311.51  1316.53  1318.05  1325.44  1330.85  1332.73
eigval :     1365.46  1367.74  1371.52  1391.57  1405.54  1408.05
eigval :     1418.37  1428.07  1430.40  1431.72  1433.05  1436.67
eigval :     1437.11  1456.43  1456.97  1457.89  1460.99  1470.37
eigval :     1471.62  1473.10  1483.53  1487.61  1491.99  1494.07
eigval :     1500.30  1564.69  1568.71  1575.11  1582.25  1584.01
eigval :     1584.53  1586.87  1592.84  1594.27  1595.21  1599.03
eigval :     1599.89  1601.28  1602.68  1603.38  1610.16  3024.32
eigval :     3027.68  3029.03  3029.86  3035.39  3038.08  3062.85
eigval :     3066.52  3067.38  3068.72  3068.91  3069.03  3069.69
eigval :     3073.05  3073.38  3073.41  3073.50  3074.15  3074.99
eigval :     3075.36  3075.82  3076.04  3076.92  3080.05  3081.96
eigval :     3083.42  3083.65  3084.14  3085.13  3085.47  3088.28
eigval :     3089.14  3091.67  3092.65  3093.15  3093.86  3128.19

   temp. (K)  partition function   enthalpy   heat capacity  entropy
                                   cal/mol     cal/K/mol   cal/K/mol   J/K/mol
 298.15  VIB  0.237E+19            24798.942    159.937    152.673
         ROT  0.764E+08              888.752      2.981     39.054
         INT  0.181E+27            25687.694    162.918    191.727
         TR   0.170E+29             1481.254      4.968     45.393
         TOT                       27168.9483   167.8861   237.1203   992.1114

       T/K    H(0)-H(T)+PV         H(T)/Eh          T*S/Eh         G(T)/Eh
   ------------------------------------------------------------------------
    298.15    0.432965E-01    0.751260E+00    0.112664E+00    0.638596E+00
   ------------------------------------------------------------------------

         :::::::::::::::::::::::::::::::::::::::::::::::::::::
         ::                  THERMODYNAMIC                  ::
         :::::::::::::::::::::::::::::::::::::::::::::::::::::
         :: total free energy        -132.620060921489 Eh   ::
         ::.................................................::
         :: total energy             -133.258656961718 Eh   ::
         :: zero point energy           0.707963078340 Eh   ::
         :: G(RRHO) w/o ZPVE           -0.069367038111 Eh   ::
         :: G(RRHO) contrib.            0.638596040229 Eh   ::
         :::::::::::::::::::::::::::::::::::::::::::::::::::::

           -------------------------------------------------
          | TOTAL ENERGY             -133.258656961718 Eh   |
          | TOTAL ENTHALPY           -132.507397408282 Eh   |
          | TOTAL FREE ENERGY        -132.620060921489 Eh   |
          | GRADIENT NORM               0.000049323372 Eh/α |
          | HOMO-LUMO GAP               2.519673953379 eV   |
           -------------------------------------------------

 * finished run on 2025/09/04 at 13:42:13.863
