   * xtb version 6.7.1 (edcfbbe) compiled by 'albert@albert-system' on 2024-07-22

   ID    Z sym.   atoms
    1    6 C      1-13, 15-53
    2    7 N      14
    3    1 H      54-90

          program call               : xtb data2507/toluene/FSF4A/FSF4A_toluene_S0_crest.xyz --gfn 2 --gbsa toluene --ohess vtight --parallel 40 --molden --ceasefiles --namespace data2507/toluene/FSF4A/FSF4A_toluene_S0_finalOpt
      * Solvation model:               GBSA
        Solvent                        toluene
        Solvent mass                       9.2140E+01 g/mol
          :  Hamiltonian                  GFN2-xTB          :
 * total energy  :  -133.2583860 Eh     change       -0.3442750E-08 Eh
 * total energy  :  -133.2584493 Eh     change       -0.6333796E-04 Eh
 * total energy  :  -133.2585280 Eh     change       -0.7864966E-04 Eh
 * total energy  :  -133.2585556 Eh     change       -0.2760335E-04 Eh
 * total energy  :  -133.2586020 Eh     change       -0.4641662E-04 Eh
 * total energy  :  -133.2586137 Eh     change       -0.1172712E-04 Eh
 * total energy  :  -133.2586261 Eh     change       -0.1239873E-04 Eh
 * total energy  :  -133.2586321 Eh     change       -0.5965821E-05 Eh
 * total energy  :  -133.2586381 Eh     change       -0.5989717E-05 Eh
 * total energy  :  -133.2586426 Eh     change       -0.4482237E-05 Eh
 * total energy  :  -133.2586677 Eh     change       -0.3161800E-06 Eh
 * total energy  :  -133.2586680 Eh     change       -0.3319949E-06 Eh
 * total energy  :  -133.2586683 Eh     change       -0.2502279E-06 Eh
 * total energy  :  -133.2586684 Eh     change       -0.1840384E-06 Eh
 * total energy  :  -133.2586686 Eh     change       -0.1420194E-06 Eh
 * total energy  :  -133.2586687 Eh     change       -0.1262057E-06 Eh
 * total energy  :  -133.2586688 Eh     change       -0.1303709E-06 Eh
 * total energy  :  -133.2586690 Eh     change       -0.1294745E-06 Eh
 * total energy  :  -133.2586691 Eh     change       -0.9747379E-07 Eh
   *** GEOMETRY OPTIMIZATION CONVERGED AFTER 40 ITERATIONS ***

 final structure:
================
90
 xtb: 6.7.1 (edcfbbe)
C           -5.22606010550651       -0.04803612144658        2.31294185551437
C           -5.38514606236546       -0.27851305077889        0.80625207666530
C           -6.31488137043345        0.77782100868572        0.19891080457144
C           -5.88169042993332       -1.67889181212890        0.51838169274019
C           -7.06591257530372       -2.27154204894459        0.89963098930031
C           -7.31438507934365       -3.58360771814382        0.51612754730858
C           -6.38825514924285       -4.28951042746045       -0.23622498669930
C           -5.19405067591148       -3.70220035308650       -0.62273111549497
C           -4.94358501587383       -2.39316865028348       -0.24318746334469
C           -3.80522218459940       -1.52900688634859       -0.49990287071448
C           -2.63053725288113       -1.74396564535875       -1.20235056041811
C           -1.70914450175253       -0.71881797304440       -1.30457771389105
C           -1.93763970238772        0.51911926612511       -0.69971408484039
N           -0.99588803834948        1.54530213669481       -0.78456700815295
C           -1.43114784206386        2.87637681302756       -0.92337048660113
C           -2.56828146292248        3.17183688706571       -1.67400841067117
C           -2.98258357115847        4.47816647830605       -1.84608831760146
C           -2.25224280043753        5.51577706219871       -1.28934129570563
C           -1.11696610863443        5.23238759577972       -0.55210160547693
C           -0.69759475790007        3.92268571401624       -0.34482359596173
C            0.48711563731162        3.67511510516942        0.49902844482069
C            0.39865530446156        2.85154336449344        1.61672724793035
C            1.49140364655952        2.66939767283164        2.44320444838847
C            2.68759671489815        3.30918737802836        2.16371519848375
C            2.78769395930863        4.12591625882723        1.04948130090124
C            1.69358457460803        4.31203788782409        0.22488494146873
C            0.34253693316592        1.25691793572713       -1.09727411446274
C            0.94677386516264        1.93212057257824       -2.16117169371586
C            2.24180245693080        1.66175524216111       -2.55642267762993
C            2.98037108785820        0.67701154312970       -1.91628344286612
C            2.39924347728771        0.01483686149578       -0.85779089464020
C            1.10043494981269        0.30331481216303       -0.40862219135264
C            0.83989768301484       -0.51134275347688        0.77423623356076
C           -0.23144231490162       -0.57392983525007        1.65345042909186
C           -0.17036103974895       -1.44185286120958        2.73224007772637
C            0.94015797695403       -2.24182669248320        2.94853733478925
C            2.02437517372169       -2.18056677638243        2.08440851547236
C            1.96602704250218       -1.31567620746947        1.01401577164698
C            3.02207630449310       -1.08389282200317       -0.03442446124060
C            4.38684192991540       -0.74914547317053        0.51201892776886
C            4.74371985125380        0.30055501099892        1.32968585263915
C            6.07415039715218        0.41959026276790        1.70986749387797
C            7.02174376141626       -0.49669130928269        1.27764186215834
C            6.66619367584149       -1.55321081509801        0.45386420468454
C            5.34068912879571       -1.67794587696336        0.07003384703747
C            4.67317084986391       -2.65829667772380       -0.77291239183551
C            5.15719718762283       -3.77089778506661       -1.44208671135251
C            4.27100189515068       -4.53973151722563       -2.18016618744895
C            2.92609877594945       -4.20748498831189       -2.24873630767335
C            2.43408419360332       -3.09410969611806       -1.58013652644997
C            3.31269437554815       -2.32622364762249       -0.84762906245185
C           -3.12354466396038        0.72954068088382        0.01727147871154
C           -4.04456974267789       -0.28529499763474        0.10564620253795
H           -4.57154181206514       -0.80454357561349        2.74142927461944
H           -4.79720847197206        0.93337774317956        2.50226959637658
H           -6.19308033681621       -0.10648346986814        2.80692123630371
H           -7.29697888123664        0.72754108231074        0.66304753864580
H           -5.90605896189842        1.77375899608512        0.35392424278919
H           -6.42727221953361        0.60994859539912       -0.87060878817587
H           -7.79554391239982       -1.73188153437208        1.48624312943805
H           -8.24003232676900       -4.05931942062388        0.80733867010583
H           -6.60090471210682       -5.30945479614931       -0.52426918439530
H           -4.47411975787642       -4.25500946386575       -1.20859505131145
H           -2.43693267873656       -2.69358686630649       -1.67926238303771
H           -0.80058469569204       -0.86801022743821       -1.86907940346799
H           -3.12024424612120        2.36338699228283       -2.13174454570571
H           -3.86760963073127        4.68603511792703       -2.42927356922530
H           -2.56593230353674        6.53951407431488       -1.42852420183238
H           -0.54964609927486        6.03492302528926       -0.10268645375280
H           -0.53800965634375        2.36790668138838        1.84922870919866
H            1.40766231705773        2.02948907707802        3.31006749093542
H            3.53762197529756        3.17994064654731        2.81831009454955
H            3.72077754539947        4.62273680845621        0.82539299305637
H            1.77285833656126        4.94812168389182       -0.64522732265230
H            0.37182101902780        2.67652765002709       -2.69344874601938
H            2.67043936507814        2.20646223879733       -3.38456025690369
H            3.98414244897411        0.43703520002571       -2.23339465469824
H           -1.10812578611937        0.03541968996207        1.51402360081914
H           -1.00417985228501       -1.49254927476730        3.41771376606886
H            0.96511691444007       -2.91197344446571        3.79549291655058
H            2.89920101587189       -2.79353516688489        2.24842237819608
H            4.00238875470125        1.01314445690424        1.65950217985266
H            6.37624102776652        1.23580061393455        2.35001743290634
H            8.05116959817493       -0.38377543125886        1.58645143952359
H            7.40822115612110       -2.26291659216493        0.11881097976100
H            6.20292723132135       -4.03581418939201       -1.38979741535381
H            4.63123626075267       -5.41119319390863       -2.70786252332113
H            2.25292910858922       -4.82249978276862       -2.82831966497079
H            1.38541885335211       -2.83830273173508       -1.62866873068225
H           -3.29760363445483        1.68498578773721        0.49127344409930

          :  Hamiltonian                  GFN2-xTB          :
         :: gradient norm              0.000029569197 Eh/a0 ::
         :: HOMO-LUMO gap              2.518447188305 eV    ::
         :: SCC energy              -135.803619403754 Eh    ::
         :: -> dispersion             -0.144032267675 Eh    ::
         :: -> Gsolv                  -0.047993250985 Eh    ::
         :: repulsion energy           2.544950330370 Eh    ::

    * Orbital Energies and Occupations

         #    Occupation            Energy/Eh            Energy/eV
      -------------------------------------------------------------
         1        2.0000           -0.6650691             -18.0975
       ...           ...                  ...                  ...
       113        2.0000           -0.4094435             -11.1415
       114        2.0000           -0.4084476             -11.1144
       115        2.0000           -0.4034609             -10.9787
       116        2.0000           -0.4023119             -10.9475
       117        2.0000           -0.4000886             -10.8870
       118        2.0000           -0.3959456             -10.7742
       119        2.0000           -0.3945995             -10.7376
       120        2.0000           -0.3939227             -10.7192
       121        2.0000           -0.3890995             -10.5879
       122        2.0000           -0.3857479             -10.4967
       123        2.0000           -0.3809854             -10.3671
       124        2.0000           -0.3774165             -10.2700
       125        2.0000           -0.3467284              -9.4350 (HOMO)
       126                         -0.2541771              -6.9165 (LUMO)
       127                         -0.2519643              -6.8563
       128                         -0.2465475              -6.7089
       129                         -0.2400764              -6.5328
       130                         -0.2294773              -6.2444
       131                         -0.2254610              -6.1351
       132                         -0.2239567              -6.0942
       133                         -0.2220794              -6.0431
       134                         -0.2205350              -6.0011
       135                         -0.2181317              -5.9357
       136                         -0.2157591              -5.8711
       ...                                ...                  ...
       249                          0.7361717              20.0323
      -------------------------------------------------------------
                  HL-Gap            0.0925513 Eh            2.5184 eV

     #   Z          covCN         q      C6AA      α(0)
     1   6 C        3.758    -0.097    22.410     6.749
     2   6 C        3.935     0.019    20.196     6.386
     3   6 C        3.758    -0.098    22.421     6.751
     4   6 C        3.055    -0.003    28.057     8.687
     5   6 C        2.915    -0.036    28.884     8.813
     6   6 C        2.921    -0.036    28.905     8.817
     7   6 C        2.921    -0.035    28.880     8.813
     8   6 C        2.914    -0.038    28.935     8.821
     9   6 C        3.036    -0.002    28.030     8.684
    10   6 C        3.035    -0.012    28.276     8.722
    11   6 C        2.913    -0.035    28.873     8.811
    12   6 C        2.923    -0.053    29.318     8.879
    13   6 C        2.924     0.066    26.512     8.444
    14   7 N        2.751    -0.080    22.789     7.090
    15   6 C        2.929     0.062    26.609     8.460
    16   6 C        2.921    -0.048    29.182     8.859
    17   6 C        2.919    -0.033    28.815     8.803
    18   6 C        2.917    -0.038    28.955     8.824
    19   6 C        2.926    -0.035    28.873     8.812
    20   6 C        2.978    -0.007    28.180     8.708
    21   6 C        2.978     0.012    27.746     8.640
    22   6 C        2.925    -0.031    28.780     8.798
    23   6 C        2.918    -0.030    28.740     8.791
    24   6 C        2.920    -0.032    28.787     8.799
    25   6 C        2.919    -0.030    28.758     8.794
    26   6 C        2.925    -0.035    28.869     8.811
    27   6 C        2.921     0.064    26.574     8.454
    28   6 C        2.925    -0.051    29.278     8.873
    29   6 C        2.922    -0.033    28.823     8.804
    30   6 C        2.913    -0.042    29.049     8.838
    31   6 C        3.062     0.005    27.839     8.652
    32   6 C        3.028    -0.015    28.346     8.733
    33   6 C        3.032     0.004    27.905     8.665
    34   6 C        2.916    -0.036    28.888     8.814
    35   6 C        2.920    -0.034    28.837     8.806
    36   6 C        2.922    -0.033    28.825     8.804
    37   6 C        2.914    -0.034    28.854     8.808
    38   6 C        3.059     0.005    27.852     8.655
    39   6 C        3.978     0.010    20.343     6.408
    40   6 C        3.055     0.005    27.863     8.657
    41   6 C        2.914    -0.034    28.856     8.809
    42   6 C        2.923    -0.032    28.795     8.800
    43   6 C        2.921    -0.034    28.838     8.806
    44   6 C        2.914    -0.035    28.872     8.811
    45   6 C        3.036    -0.000    27.994     8.678
    46   6 C        3.035     0.000    27.988     8.678
    47   6 C        2.914    -0.035    28.865     8.810
    48   6 C        2.921    -0.034    28.836     8.806
    49   6 C        2.923    -0.033    28.813     8.803
    50   6 C        2.914    -0.033    28.831     8.805
    51   6 C        3.057     0.006    27.832     8.652
    52   6 C        2.918    -0.054    29.341     8.883
    53   6 C        3.053    -0.001    28.004     8.679
    54   1 H        0.925     0.034     2.530     2.487
    55   1 H        0.925     0.042     2.418     2.432
    56   1 H        0.925     0.043     2.409     2.427
    57   1 H        0.925     0.043     2.407     2.426
    58   1 H        0.925     0.043     2.409     2.427
    59   1 H        0.925     0.034     2.535     2.490
    60   1 H        0.926     0.028     2.608     2.525
    61   1 H        0.926     0.027     2.629     2.535
    62   1 H        0.926     0.026     2.644     2.543
    63   1 H        0.926     0.026     2.646     2.544
    64   1 H        0.926     0.028     2.618     2.530
    65   1 H        0.926     0.023     2.691     2.565
    66   1 H        0.926     0.033     2.540     2.492
    67   1 H        0.926     0.035     2.523     2.484
    68   1 H        0.926     0.034     2.534     2.489
    69   1 H        0.926     0.034     2.523     2.484
    70   1 H        0.926     0.032     2.563     2.503
    71   1 H        0.926     0.029     2.606     2.525
    72   1 H        0.926     0.030     2.584     2.514
    73   1 H        0.926     0.031     2.570     2.507
    74   1 H        0.926     0.030     2.581     2.512
    75   1 H        0.926     0.031     2.571     2.508
    76   1 H        0.926     0.035     2.516     2.480
    77   1 H        0.926     0.029     2.600     2.521
    78   1 H        0.926     0.035     2.516     2.480
    79   1 H        0.926     0.031     2.576     2.510
    80   1 H        0.926     0.032     2.564     2.504
    81   1 H        0.926     0.027     2.635     2.539
    82   1 H        0.926     0.030     2.585     2.514
    83   1 H        0.926     0.032     2.556     2.500
    84   1 H        0.926     0.033     2.547     2.496
    85   1 H        0.926     0.033     2.538     2.491
    86   1 H        0.926     0.034     2.526     2.485
    87   1 H        0.926     0.033     2.540     2.492
    88   1 H        0.926     0.032     2.553     2.499
    89   1 H        0.926     0.026     2.651     2.546
    90   1 H        0.926     0.029     2.594     2.519

molecular dipole:
                 x           y           z       tot (Debye)
 q only:       -0.055       0.562       0.174
   full:       -0.023       0.516       0.081       1.329

 projected vibrational frequencies (cm⁻¹)
eigval :       -0.00    -0.00    -0.00    -0.00     0.00     0.00
eigval :        9.11    15.27    17.26    26.32    31.26    36.65
eigval :       41.37    46.76    56.56    62.49    69.41    80.12
eigval :       84.98    90.01    94.14   101.71   119.54   125.69
eigval :      130.48   137.22   150.59   153.70   166.02   180.31
eigval :      199.87   203.86   211.20   221.33   231.70   235.96
eigval :      238.28   247.52   259.66   275.27   290.68   296.19
eigval :      304.11   312.02   322.98   329.71   340.37   368.65
eigval :      369.98   374.22   387.43   402.15   411.36   414.15
eigval :      419.24   434.33   447.92   455.16   462.44   467.69
eigval :      468.46   482.50   502.94   513.74   518.06   526.80
eigval :      532.17   538.19   538.86   541.11   553.61   558.77
eigval :      570.57   584.46   585.68   587.30   591.34   594.50
eigval :      608.80   615.69   626.50   632.66   656.68   670.50
eigval :      685.71   688.21   690.76   692.58   707.24   715.76
eigval :      721.24   726.10   738.90   741.23   749.89   754.64
eigval :      760.64   767.10   773.67   778.83   779.26   786.44
eigval :      786.99   801.76   822.55   825.48   873.95   875.77
eigval :      876.58   877.62   881.17   884.28   885.64   889.64
eigval :      891.26   899.02   904.13   907.72   908.79   909.60
eigval :      910.63   911.22   916.57   921.28   923.06   925.61
eigval :      925.96   927.12   927.95   930.16   931.95   935.73
eigval :      945.60   961.78   965.90   974.15   989.48  1008.07
eigval :     1008.49  1011.53  1035.29  1047.52  1068.44  1073.09
eigval :     1077.24  1078.77  1082.82  1085.57  1097.28  1105.09
eigval :     1111.94  1117.01  1122.24  1137.50  1140.64  1142.56
eigval :     1150.21  1161.73  1173.34  1176.44  1176.74  1178.33
eigval :     1179.65  1180.25  1182.76  1184.10  1186.92  1196.37
eigval :     1200.60  1207.90  1219.17  1226.44  1229.29  1234.48
eigval :     1244.36  1249.13  1252.08  1258.62  1264.73  1269.13
eigval :     1270.60  1279.03  1283.77  1284.28  1288.06  1301.87
eigval :     1311.58  1316.42  1318.01  1325.36  1330.72  1332.45
eigval :     1365.34  1367.66  1371.36  1392.00  1405.96  1408.71
eigval :     1418.77  1427.79  1430.43  1431.76  1433.08  1436.83
eigval :     1437.22  1456.47  1457.31  1458.15  1461.06  1470.41
eigval :     1471.64  1473.13  1483.60  1487.60  1492.05  1494.01
eigval :     1500.60  1564.77  1568.98  1575.14  1582.24  1583.88
eigval :     1584.51  1587.28  1592.80  1594.15  1595.07  1599.02
eigval :     1599.87  1601.30  1602.62  1603.28  1610.01  3024.36
eigval :     3027.94  3028.80  3029.94  3035.61  3038.09  3063.79
eigval :     3066.11  3067.43  3068.39  3068.97  3069.15  3069.69
eigval :     3072.19  3072.88  3073.62  3073.66  3074.19  3074.31
eigval :     3075.41  3075.62  3075.68  3076.67  3079.22  3081.94
eigval :     3082.57  3083.82  3083.96  3084.96  3085.43  3087.81
eigval :     3088.43  3091.45  3092.13  3093.08  3094.13  3126.35

   temp. (K)  partition function   enthalpy   heat capacity  entropy
                                   cal/mol     cal/K/mol   cal/K/mol   J/K/mol
 298.15  VIB  0.413E+19            24817.722    159.819    153.177
         ROT  0.764E+08              888.752      2.981     39.052
         INT  0.316E+27            25706.474    162.800    192.229
         TR   0.170E+29             1481.254      4.968     45.393
         TOT                       27187.7280   167.7682   237.6223   994.2115

       T/K    H(0)-H(T)+PV         H(T)/Eh          T*S/Eh         G(T)/Eh
   ------------------------------------------------------------------------
    298.15    0.433264E-01    0.751286E+00    0.112902E+00    0.638384E+00
   ------------------------------------------------------------------------

         :::::::::::::::::::::::::::::::::::::::::::::::::::::
         ::                  THERMODYNAMIC                  ::
         :::::::::::::::::::::::::::::::::::::::::::::::::::::
         :: total free energy        -132.620285420791 Eh   ::
         ::.................................................::
         :: total energy             -133.258669074391 Eh   ::
         :: zero point energy           0.707959252519 Eh   ::
         :: G(RRHO) w/o ZPVE           -0.069575598920 Eh   ::
         :: G(RRHO) contrib.            0.638383653599 Eh   ::
         :::::::::::::::::::::::::::::::::::::::::::::::::::::

           -------------------------------------------------
          | TOTAL ENERGY             -133.258669074391 Eh   |
          | TOTAL ENTHALPY           -132.507383419403 Eh   |
          | TOTAL FREE ENERGY        -132.620285420791 Eh   |
          | GRADIENT NORM               0.000029577250 Eh/α |
          | HOMO-LUMO GAP               2.518448055758 eV   |
           -------------------------------------------------

 * finished run on 2025/09/04 at 13:50:39.312
