   * xtb version 6.7.1 (edcfbbe) compiled by 'albert@albert-system' on 2024-07-22

   ID    Z sym.   atoms
    1    6 C      1-13, 15-53
    2    7 N      14
    3    1 H      54-90

          program call               : xtb data2507/toluene/FSF4A/FSF4A_toluene_T1_crest.xyz --gfn 2 --uhf 2 --gbsa toluene --ohess vtight --parallel 40 --molden --ceasefiles --namespace data2507/toluene/FSF4A/FSF4A_toluene_T1_finalOpt
      * Solvation model:               GBSA
        Solvent                        toluene
        Solvent mass                       9.2140E+01 g/mol
          :  Hamiltonian                  GFN2-xTB          :
 * total energy  :  -133.1649404 Eh     change       -0.5531945E-08 Eh
 * total energy  :  -133.1650117 Eh     change       -0.7128344E-04 Eh
 * total energy  :  -133.1650958 Eh     change       -0.8407156E-04 Eh
 * total energy  :  -133.1651416 Eh     change       -0.4587456E-04 Eh
 * total energy  :  -133.1651701 Eh     change       -0.2843865E-04 Eh
 * total energy  :  -133.1651973 Eh     change       -0.2724139E-04 Eh
 * total energy  :  -133.1652119 Eh     change       -0.1457345E-04 Eh
 * total energy  :  -133.1652258 Eh     change       -0.1391620E-04 Eh
 * total energy  :  -133.1652408 Eh     change       -0.1502829E-04 Eh
 * total energy  :  -133.1652503 Eh     change       -0.9421145E-05 Eh
 * total energy  :  -133.1653290 Eh     change       -0.2556516E-06 Eh
 * total energy  :  -133.1653292 Eh     change       -0.2177811E-06 Eh
 * total energy  :  -133.1653294 Eh     change       -0.2093431E-06 Eh
 * total energy  :  -133.1653296 Eh     change       -0.1298369E-06 Eh
 * total energy  :  -133.1653297 Eh     change       -0.1370729E-06 Eh
 * total energy  :  -133.1653299 Eh     change       -0.1627049E-06 Eh
 * total energy  :  -133.1653300 Eh     change       -0.1748244E-06 Eh
 * total energy  :  -133.1653302 Eh     change       -0.1448674E-06 Eh
 * total energy  :  -133.1653302 Eh     change       -0.6705534E-09 Eh
   *** GEOMETRY OPTIMIZATION CONVERGED AFTER 44 ITERATIONS ***

 final structure:
================
90
 xtb: 6.7.1 (edcfbbe)
C           -5.21358827893928       -0.05517004357339        2.28831073038274
C           -5.35403413375040       -0.31198396310653        0.78275010133875
C           -6.31819966762030        0.70468921096082        0.15916626212730
C           -5.79884294828360       -1.73298375980274        0.51313676876244
C           -6.95969422556641       -2.35779472036295        0.88330368118707
C           -7.15758022063401       -3.69531560279783        0.52784583880820
C           -6.18552709719252       -4.38990790408178       -0.19438998567669
C           -5.01383503251994       -3.78104057084110       -0.57833041706076
C           -4.80345553227268       -2.43289961404966       -0.23027249495668
C           -3.72590701424954       -1.56171020969747       -0.49094714527574
C           -2.51448170965643       -1.74745583792944       -1.20070944310002
C           -1.63497240385100       -0.71372471457174       -1.30992528560753
C           -1.91002645541049        0.55736309033496       -0.72962076179580
N           -1.00711152166296        1.58256273476712       -0.84447511649704
C           -1.45639041722599        2.90803783034372       -0.92080574629956
C           -2.61714494191132        3.20472624788754       -1.63963982511659
C           -3.05018474600969        4.50729165329165       -1.77012885772800
C           -2.32090394690572        5.54002648471113       -1.19227338285432
C           -1.16991404081107        5.25523460403451       -0.48159779754817
C           -0.72129817036174        3.94796111776919       -0.31780083818222
C            0.46564116146558        3.69438936624928        0.51381970164022
C            0.40906847829275        2.81158590418623        1.59022194803494
C            1.50673198460266        2.62723459656209        2.40724942434801
C            2.67998500133437        3.32493143529865        2.16472398458513
C            2.74745681897116        4.20494399517736        1.09653477790457
C            1.64866362771666        4.39498614442453        0.28099543468716
C            0.34409660424806        1.32709191248659       -1.08060008303277
C            0.98671515881484        2.04795755443216       -2.09669742188099
C            2.28178124302881        1.78171503111881       -2.47355728281549
C            2.99662089053587        0.74779889375204       -1.85273500319758
C            2.39039922776771        0.04663268703595       -0.84429554390231
C            1.07703846313122        0.32108748353390       -0.40011322534247
C            0.80466131706254       -0.49903196057858        0.75254148071109
C           -0.27714273519343       -0.57940752828258        1.63369272864271
C           -0.22720712518344       -1.47012423132555        2.68813891453515
C            0.87822056117281       -2.28495231329033        2.89859599129780
C            1.96995984564217       -2.21135808000270        2.03891848612639
C            1.92616549732818       -1.32678267841494        0.98936621770959
C            2.99314801216970       -1.08162371224049       -0.04552049309870
C            4.35462789871993       -0.77785194994272        0.52607711261774
C            4.71386718032374        0.24499267989970        1.37619971961651
C            6.03904699629694        0.33350033835615        1.78213843850591
C            6.97971027791852       -0.58726250229960        1.34386554981934
C            6.62235495296086       -1.61644345078639        0.48713504134578
C            5.30215328474644       -1.70973196308102        0.07647642106021
C            4.63473205172896       -2.65780829132528       -0.80182642810364
C            5.11453444034573       -3.75864379910593       -1.49348047817292
C            4.22972540314546       -4.49692579979590       -2.26348936411991
C            2.88986079642248       -4.14654129720638       -2.34097286004534
C            2.40246646895765       -3.04435382941671       -1.65072660798842
C            3.27955988875890       -2.30591781801831       -0.88691215286243
C           -3.13588499528777        0.74982461492385       -0.02334442341095
C           -4.00900804235331       -0.28038271863543        0.09035664973702
H           -6.18250007610381       -0.13600712860681        2.77543382899342
H           -4.54136572965126       -0.78628063032907        2.73301434637342
H           -4.81536402720763        0.94103377374770        2.46761866149234
H           -7.30331446774376        0.61528539232782        0.61082869408621
H           -5.95314006310974        1.71720503004974        0.31581629479883
H           -6.41035485063254        0.52788446986513       -0.91075936801636
H           -7.72095358611819       -1.83559281986026        1.44558935511689
H           -8.06906310430138       -4.19716847561896        0.81692822193960
H           -6.36336251209539       -5.42436835085444       -0.45467078879212
H           -4.26433844499722       -4.32089088316787       -1.13807627316409
H           -2.30899556277216       -2.69752593856017       -1.67022115546347
H           -0.72703868364683       -0.82577276168401       -1.88337251389771
H           -3.15480588654949        2.39923536172023       -2.11834480799426
H           -3.94424899911651        4.72177751768553       -2.33544381797055
H           -2.65195659448578        6.56206830344181       -1.29700124342193
H           -0.61182694408705        6.05400273072811       -0.01535133278602
H           -0.50873419277587        2.28344936208354        1.80068255008254
H            1.44529675984628        1.93911610080894        3.23829220663961
H            3.53527270081701        3.19075311794255        2.81104312650001
H            3.66102503483684        4.74823607848199        0.90181947427775
H            1.70575699735042        5.07840630041813       -0.55391456866315
H            0.42542586617673        2.81190814243288       -2.61596601672248
H            2.74055813376495        2.35225682621263       -3.26614414653723
H            4.00537860021651        0.51495101388546       -2.15933579516246
H           -1.15369802569053        0.03331767325880        1.50403101869516
H           -1.06596390214121       -1.53252902036745        3.36741396135245
H            0.89223411095443       -2.97315508908948        3.73078900570062
H            2.83914087645863       -2.83467980550794        2.19658757929264
H            3.97778673047807        0.96020710783392        1.71216460121611
H            6.34254422443279        1.12873597316824        2.44767106889170
H            8.00501271194671       -0.49931009262259        1.67404035458700
H            7.35877994169839       -2.32997575259420        0.14757779928666
H            6.15618633362782       -4.03807384647986       -1.43325078000331
H            4.58669077491848       -5.35881768373143       -2.80896466200216
H            2.21712403860606       -4.73859751431557       -2.94457285721169
H            1.35756336857518       -2.77538740651783       -1.70589913004226
H           -3.32895823084741        1.70808342746825        0.43697559116470

          :  Hamiltonian                  GFN2-xTB          :
         :: gradient norm              0.000028686719 Eh/a0 ::
         :: HOMO-LUMO gap              0.205006315826 eV    ::
         :: SCC energy              -135.692146296720 Eh    ::
         :: -> dispersion             -0.144574312792 Eh    ::
         :: -> Gsolv                  -0.048618652574 Eh    ::
         :: repulsion energy           2.526816122091 Eh    ::

    * Orbital Energies and Occupations

         #    Occupation            Energy/Eh            Energy/eV
      -------------------------------------------------------------
         1        2.0000           -0.6797650             -18.4973
       ...           ...                  ...                  ...
       114        2.0000           -0.4073690             -11.0851
       115        2.0000           -0.4045067             -11.0072
       116        2.0000           -0.4030046             -10.9663
       117        2.0000           -0.4027442             -10.9592
       118        2.0000           -0.3937640             -10.7149
       119        2.0000           -0.3930589             -10.6957
       120        2.0000           -0.3926257             -10.6839
       121        2.0000           -0.3895062             -10.5990
       122        2.0000           -0.3854816             -10.4895
       123        2.0000           -0.3788924             -10.3102
       124        2.0000           -0.3723907             -10.1333
       125        1.0000           -0.3491840              -9.5018
       126        0.9787           -0.2593216              -7.0565 (HOMO)
       127        0.0163           -0.2517877              -6.8515 (LUMO)
       128        0.0049           -0.2506421              -6.8203
       129        0.0000           -0.2461019              -6.6968
       130                         -0.2334112              -6.3514
       131                         -0.2239085              -6.0929
       132                         -0.2237131              -6.0875
       133                         -0.2210740              -6.0157
       134                         -0.2189723              -5.9585
       135                         -0.2168239              -5.9001
       136                         -0.2124159              -5.7801
       137                         -0.2114421              -5.7536
       ...                                ...                  ...
       249                          0.7353343              20.0095
      -------------------------------------------------------------
                  HL-Gap            0.0075340 Eh            0.2050 eV

     #   Z          covCN         q      C6AA      α(0)
     1   6 C        3.758    -0.098    22.423     6.751
     2   6 C        3.930     0.018    20.202     6.388
     3   6 C        3.758    -0.100    22.459     6.757
     4   6 C        3.053    -0.004    28.066     8.688
     5   6 C        2.910    -0.038    28.933     8.820
     6   6 C        2.920    -0.042    29.040     8.837
     7   6 C        2.915    -0.034    28.858     8.809
     8   6 C        2.910    -0.041    29.025     8.834
     9   6 C        3.029    -0.007    28.162     8.705
    10   6 C        3.031    -0.006    28.147     8.702
    11   6 C        2.906    -0.038    28.934     8.820
    12   6 C        2.914    -0.040    28.995     8.830
    13   6 C        2.927     0.044    27.018     8.524
    14   7 N        2.752     0.000    21.259     6.848
    15   6 C        2.934     0.053    26.800     8.490
    16   6 C        2.920    -0.039    28.958     8.824
    17   6 C        2.917    -0.032    28.786     8.798
    18   6 C        2.916    -0.031    28.766     8.795
    19   6 C        2.925    -0.032    28.800     8.801
    20   6 C        2.975     0.002    27.978     8.676
    21   6 C        2.977     0.008    27.835     8.654
    22   6 C        2.925    -0.032    28.806     8.802
    23   6 C        2.918    -0.029    28.729     8.790
    24   6 C        2.920    -0.033    28.826     8.804
    25   6 C        2.918    -0.030    28.751     8.793
    26   6 C        2.925    -0.036    28.903     8.816
    27   6 C        2.924     0.044    27.010     8.523
    28   6 C        2.920    -0.044    29.105     8.847
    29   6 C        2.918    -0.042    29.043     8.837
    30   6 C        2.912    -0.040    28.983     8.828
    31   6 C        3.057     0.004    27.869     8.657
    32   6 C        3.025    -0.015    28.359     8.735
    33   6 C        3.029    -0.004    28.094     8.694
    34   6 C        2.914    -0.042    29.043     8.837
    35   6 C        2.918    -0.035    28.866     8.810
    36   6 C        2.921    -0.041    29.026     8.835
    37   6 C        2.912    -0.037    28.917     8.818
    38   6 C        3.060     0.001    27.946     8.669
    39   6 C        3.976     0.009    20.349     6.409
    40   6 C        3.056     0.004    27.875     8.659
    41   6 C        2.914    -0.035    28.861     8.809
    42   6 C        2.923    -0.033    28.813     8.803
    43   6 C        2.921    -0.034    28.852     8.808
    44   6 C        2.914    -0.036    28.886     8.813
    45   6 C        3.036    -0.001    28.014     8.681
    46   6 C        3.035    -0.001    28.008     8.680
    47   6 C        2.914    -0.035    28.878     8.812
    48   6 C        2.921    -0.034    28.850     8.808
    49   6 C        2.922    -0.033    28.830     8.805
    50   6 C        2.914    -0.034    28.842     8.806
    51   6 C        3.057     0.005    27.845     8.654
    52   6 C        2.909    -0.048    29.195     8.860
    53   6 C        3.045    -0.003    28.058     8.688
    54   1 H        0.925     0.042     2.420     2.433
    55   1 H        0.925     0.033     2.548     2.496
    56   1 H        0.925     0.042     2.429     2.437
    57   1 H        0.925     0.043     2.414     2.430
    58   1 H        0.925     0.043     2.409     2.427
    59   1 H        0.925     0.034     2.533     2.489
    60   1 H        0.926     0.024     2.668     2.554
    61   1 H        0.926     0.022     2.696     2.568
    62   1 H        0.925     0.022     2.704     2.571
    63   1 H        0.926     0.022     2.701     2.570
    64   1 H        0.926     0.030     2.582     2.513
    65   1 H        0.926     0.031     2.575     2.509
    66   1 H        0.926     0.045     2.381     2.413
    67   1 H        0.926     0.044     2.399     2.422
    68   1 H        0.926     0.043     2.411     2.428
    69   1 H        0.926     0.043     2.406     2.426
    70   1 H        0.926     0.029     2.596     2.519
    71   1 H        0.926     0.027     2.633     2.537
    72   1 H        0.926     0.028     2.615     2.529
    73   1 H        0.926     0.031     2.575     2.510
    74   1 H        0.926     0.032     2.564     2.504
    75   1 H        0.926     0.033     2.537     2.491
    76   1 H        0.926     0.033     2.538     2.491
    77   1 H        0.926     0.027     2.626     2.534
    78   1 H        0.926     0.026     2.642     2.542
    79   1 H        0.926     0.023     2.687     2.563
    80   1 H        0.926     0.023     2.691     2.565
    81   1 H        0.926     0.019     2.751     2.594
    82   1 H        0.926     0.029     2.596     2.520
    83   1 H        0.926     0.031     2.573     2.509
    84   1 H        0.926     0.032     2.564     2.504
    85   1 H        0.926     0.032     2.558     2.501
    86   1 H        0.926     0.033     2.547     2.496
    87   1 H        0.926     0.032     2.557     2.501
    88   1 H        0.926     0.031     2.565     2.505
    89   1 H        0.926     0.025     2.652     2.547
    90   1 H        0.926     0.033     2.540     2.492

molecular dipole:
                 x           y           z       tot (Debye)
 q only:       -0.401       1.641      -0.417
   full:       -0.340       1.530      -0.423       4.125

 projected vibrational frequencies (cm⁻¹)
eigval :       -0.00    -0.00    -0.00     0.00     0.00     0.00
eigval :       12.76    15.98    21.14    25.14    31.99    33.60
eigval :       42.19    46.69    57.24    61.35    68.52    80.91
eigval :       83.97    89.13    97.65   103.05   116.94   128.68
eigval :      133.32   134.32   147.41   154.91   160.97   180.34
eigval :      200.95   206.41   211.57   223.24   229.64   233.71
eigval :      237.27   245.63   256.76   271.52   289.37   293.74
eigval :      300.50   306.97   317.79   320.79   330.99   366.50
eigval :      369.87   374.61   384.92   386.91   401.51   406.71
eigval :      414.19   428.51   438.68   449.69   453.20   460.49
eigval :      466.83   484.32   497.28   505.41   507.00   514.25
eigval :      515.10   523.69   529.88   538.83   546.46   546.94
eigval :      565.01   571.50   581.40   583.07   587.33   591.10
eigval :      597.05   606.76   616.10   626.37   651.47   664.44
eigval :      667.61   672.40   683.37   688.68   693.40   694.53
eigval :      705.06   717.32   731.50   737.17   743.42   744.76
eigval :      752.64   755.07   757.58   761.85   770.18   778.99
eigval :      781.26   783.14   794.92   818.34   837.72   854.00
eigval :      862.45   870.28   873.14   874.08   876.56   882.23
eigval :      883.91   890.15   891.53   892.76   897.35   899.73
eigval :      900.27   904.05   906.73   907.99   909.97   915.48
eigval :      917.24   920.42   922.49   924.14   925.67   926.44
eigval :      929.72   952.13   960.70   963.76   967.43   995.16
eigval :     1007.53  1010.78  1024.84  1041.45  1042.54  1056.03
eigval :     1073.00  1074.25  1077.57  1080.89  1085.21  1087.77
eigval :     1089.69  1102.71  1118.83  1122.01  1134.07  1138.03
eigval :     1142.49  1149.71  1166.88  1168.32  1173.44  1174.38
eigval :     1175.74  1176.63  1178.41  1180.56  1185.17  1193.09
eigval :     1196.78  1207.08  1207.82  1210.75  1215.44  1222.60
eigval :     1231.79  1240.28  1244.10  1252.63  1258.01  1263.19
eigval :     1264.73  1276.55  1277.10  1281.37  1282.72  1293.22
eigval :     1299.67  1318.41  1320.68  1325.78  1327.00  1341.82
eigval :     1348.05  1351.58  1364.74  1374.19  1380.16  1391.43
eigval :     1397.54  1403.86  1407.13  1409.96  1417.12  1425.61
eigval :     1427.32  1428.80  1431.82  1443.10  1447.08  1458.21
eigval :     1460.88  1467.63  1468.78  1481.17  1484.08  1487.90
eigval :     1493.61  1495.40  1502.83  1509.78  1521.97  1538.72
eigval :     1544.93  1561.32  1565.27  1571.61  1577.57  1582.36
eigval :     1582.92  1587.64  1594.72  1602.35  1610.61  3024.23
eigval :     3027.09  3028.58  3029.22  3035.27  3037.40  3060.48
eigval :     3063.96  3064.37  3066.21  3067.23  3067.57  3067.97
eigval :     3070.08  3073.23  3074.18  3074.64  3074.86  3076.10
eigval :     3077.35  3078.96  3079.97  3080.24  3081.68  3082.10
eigval :     3082.97  3083.43  3085.03  3085.33  3087.69  3089.44
eigval :     3090.85  3091.38  3092.53  3095.47  3099.04  3113.44

   temp. (K)  partition function   enthalpy   heat capacity  entropy
                                   cal/mol     cal/K/mol   cal/K/mol   J/K/mol
 298.15  VIB  0.333E+19            25097.610    161.923    154.158
         ROT  0.757E+08              888.752      2.981     39.035
         INT  0.252E+27            25986.362    164.904    193.192
         TR   0.170E+29             1481.254      4.968     45.393
         TOT                       27467.6164   169.8717   238.5855   998.2416

       T/K    H(0)-H(T)+PV         H(T)/Eh          T*S/Eh         G(T)/Eh
   ------------------------------------------------------------------------
    298.15    0.437724E-01    0.746770E+00    0.113360E+00    0.633410E+00
   ------------------------------------------------------------------------

         :::::::::::::::::::::::::::::::::::::::::::::::::::::
         ::                  THERMODYNAMIC                  ::
         :::::::::::::::::::::::::::::::::::::::::::::::::::::
         :: total free energy        -132.531920127626 Eh   ::
         ::.................................................::
         :: total energy             -133.165330175195 Eh   ::
         :: zero point energy           0.702997272224 Eh   ::
         :: G(RRHO) w/o ZPVE           -0.069587224654 Eh   ::
         :: G(RRHO) contrib.            0.633410047570 Eh   ::
         :::::::::::::::::::::::::::::::::::::::::::::::::::::

           -------------------------------------------------
          | TOTAL ENERGY             -133.165330175195 Eh   |
          | TOTAL ENTHALPY           -132.418560469972 Eh   |
          | TOTAL FREE ENERGY        -132.531920127626 Eh   |
          | GRADIENT NORM               0.000028417536 Eh/α |
          | HOMO-LUMO GAP               0.205009669003 eV   |
           -------------------------------------------------

 * finished run on 2025/09/04 at 14:00:45.669
