   * xtb version 6.7.1 (edcfbbe) compiled by 'albert@albert-system' on 2024-07-22

   ID    Z sym.   atoms
    1    8 O      1
    2    6 C      2-21, 23-34
    3    7 N      22
    4    1 H      35-55

          program call               : xtb data2507/gas/ACRSA/ACRSA_gas_S0_crest.xyz --gfn 2 --ohess vtight --parallel 40 --molden --ceasefiles --namespace data2507/gas/ACRSA/ACRSA_gas_S0_finalOpt
          :  Hamiltonian                  GFN2-xTB          :
 * total energy  :   -86.2423245 Eh     change       -0.1680036E-08 Eh
 * total energy  :   -86.2423251 Eh     change       -0.5748770E-06 Eh
 * total energy  :   -86.2423255 Eh     change       -0.3896376E-06 Eh
 * total energy  :   -86.2423261 Eh     change       -0.6326517E-06 Eh
 * total energy  :   -86.2423265 Eh     change       -0.4119431E-06 Eh
 * total energy  :   -86.2423267 Eh     change       -0.2173992E-06 Eh
 * total energy  :   -86.2423267 Eh     change        0.1054393E-07 Eh
 * total energy  :   -86.2423269 Eh     change       -0.1589935E-06 Eh
 * total energy  :   -86.2423270 Eh     change       -0.1650539E-06 Eh
 * total energy  :   -86.2423272 Eh     change       -0.1163261E-06 Eh
 * total energy  :   -86.2423279 Eh     change       -0.2400362E-06 Eh
 * total energy  :   -86.2423281 Eh     change       -0.1762755E-06 Eh
 * total energy  :   -86.2423282 Eh     change       -0.1339615E-06 Eh
 * total energy  :   -86.2423283 Eh     change       -0.1286259E-06 Eh
 * total energy  :   -86.2423285 Eh     change       -0.1309217E-06 Eh
 * total energy  :   -86.2423286 Eh     change       -0.1655407E-06 Eh
 * total energy  :   -86.2423289 Eh     change       -0.2505885E-06 Eh
 * total energy  :   -86.2423292 Eh     change       -0.3306402E-06 Eh
 * total energy  :   -86.2423292 Eh     change       -0.2701469E-08 Eh
   *** GEOMETRY OPTIMIZATION CONVERGED AFTER 22 ITERATIONS ***

 final structure:
================
55
 xtb: 6.7.1 (edcfbbe)
O           -5.10584931168526       -0.02490523276554       -0.03955094002313
C           -3.88727889281142       -0.01686280592830       -0.01158211731168
C           -3.10228579685606       -1.26514301069818        0.06978269821061
C           -3.79595552135002       -2.47637372287132        0.13140067007098
C           -3.11921726983765       -3.67332572162988        0.21002952477213
C           -1.73102631814166       -3.67348091918434        0.22779990610537
C           -1.03689700326557       -2.48130045123026        0.16646276781321
C           -1.70841383988129       -1.26584088309662        0.08740807384860
C           -0.88907309159065        0.00087222687141        0.01797627627964
C           -1.72218667948413        1.25907388018859       -0.04069584590610
C           -1.06364595476036        2.48328775886008       -0.08678063568466
C           -1.77048438147516        3.66814679443770       -0.14428083265183
C           -3.15863392593093        3.65151286482156       -0.15758619944078
C           -3.82257350909043        2.44563769493960       -0.11386095391007
C           -3.11595662991149        1.24175384310424       -0.05542490058994
C           -0.05212779509199       -0.05758699782419       -1.24720000775175
C           -0.70867922129645       -0.11694928270804       -2.46667994513460
C           -0.00753606446924       -0.16261033405534       -3.65703265047637
C            1.37650737207092       -0.14336650906869       -3.62624728272918
C            2.04628758082921       -0.08487395991740       -2.42147686127328
C            1.34405591820429       -0.04673753662052       -1.21348611615762
N            2.02738387050081        0.01014928647605       -0.00929794000825
C            3.45120007994620        0.00847937364034       -0.02229061594905
C            4.14709548951729        1.20875294212789        0.04131832082347
C            5.53059592601690        1.20277793725225        0.03003284723297
C            6.21993858280194        0.00392128104972       -0.04662719236091
C            5.52545915859801       -1.19266291013191       -0.11128627830713
C            4.14197794167457       -1.19402313106770       -0.09825138066909
C            1.36637846109171        0.06575038389432        1.20731719393029
C            2.09028737395949        0.11193185582364        2.40215732870753
C            1.44205944299632        0.17042996162410        3.61869197617702
C            0.05869219746778        0.18123747083131        3.67464345596323
C           -0.66367357729532        0.12727953491932        2.49738720184174
C           -0.02901922823616        0.06821242081655        1.26633861460494
H           -4.87528990895507       -2.44030082704228        0.11545113170290
H           -3.66300979250107       -4.60489380759213        0.25756242897445
H           -1.19097930106162       -4.60694563472287        0.28950611416889
H            0.04373137718652       -2.48575500521395        0.18054374548361
H            0.01691082115909        2.50035994821909       -0.07720386150043
H           -1.24043095784893        4.60869748048101       -0.17905229364016
H           -3.71234753273446        4.57735043616978       -0.20235163933260
H           -4.90147289103508        2.39672155324416       -0.12368269572190
H           -1.78938665125532       -0.12621973655302       -2.47534862687323
H           -0.53521876716186       -0.20934794406770       -4.59675764289489
H            1.94176803818929       -0.17273048540572       -4.54580302083560
H            3.12549083586143       -0.06603732798714       -2.41054748440520
H            3.59916830892075        2.13756923242599        0.10146670990053
H            6.07128355235279        2.13606387606126        0.07993378305553
H            7.29949001020152        0.00214050046868       -0.05593348950323
H            6.06208905341473       -2.12773665293935       -0.17057908010057
H            3.58994201168153       -2.12096903185952       -0.14900990361414
H            3.16920776121357        0.09966748814625        2.37173593407827
H            2.02377546424085        0.20657786998864        4.52769195940167
H           -0.45198736511136        0.22794872048867        4.62372620527437
H           -1.74412134677156        0.12963221710923        2.52508628263589

          :  Hamiltonian                  GFN2-xTB          :
         :: gradient norm              0.000041126682 Eh/a0 ::
         :: HOMO-LUMO gap              1.837294046019 eV    ::
         :: SCC energy               -87.830277474544 Eh    ::
         :: -> dispersion             -0.083295009821 Eh    ::
         :: repulsion energy           1.587948270044 Eh    ::

    * Orbital Energies and Occupations

         #    Occupation            Energy/Eh            Energy/eV
      -------------------------------------------------------------
         1        2.0000           -0.6921340             -18.8339
       ...           ...                  ...                  ...
        68        2.0000           -0.4296019             -11.6901
        69        2.0000           -0.4237685             -11.5313
        70        2.0000           -0.4200516             -11.4302
        71        2.0000           -0.4173657             -11.3571
        72        2.0000           -0.4118255             -11.2063
        73        2.0000           -0.4107629             -11.1774
        74        2.0000           -0.4106024             -11.1731
        75        2.0000           -0.4093792             -11.1398
        76        2.0000           -0.3991931             -10.8626
        77        2.0000           -0.3979590             -10.8290
        78        2.0000           -0.3978054             -10.8248
        79        2.0000           -0.3796236             -10.3301
        80        2.0000           -0.3527415              -9.5986 (HOMO)
        81                         -0.2852222              -7.7613 (LUMO)
        82                         -0.2431514              -6.6165
        83                         -0.2421701              -6.5898
        84                         -0.2399248              -6.5287
        85                         -0.2302623              -6.2658
        86                         -0.2291094              -6.2344
        87                         -0.2260288              -6.1506
        88                         -0.2256040              -6.1390
        89                         -0.2187044              -5.9513
        90                         -0.1953501              -5.3157
        91                         -0.1734556              -4.7200
       ...                                ...                  ...
       157                          0.7079705              19.2649
      -------------------------------------------------------------
                  HL-Gap            0.0675193 Eh            1.8373 eV

     #   Z          covCN         q      C6AA      α(0)
     1   8 O        0.858    -0.388    21.445     6.209
     2   6 C        2.831     0.223    23.307     7.911
     3   6 C        2.976    -0.020    28.507     8.758
     4   6 C        2.926    -0.020    28.496     8.754
     5   6 C        2.917    -0.030    28.758     8.794
     6   6 C        2.920    -0.023    28.590     8.768
     7   6 C        2.924    -0.033    28.812     8.803
     8   6 C        2.988     0.016    27.653     8.626
     9   6 C        3.929     0.014    20.282     6.400
    10   6 C        2.988     0.016    27.653     8.626
    11   6 C        2.924    -0.033    28.812     8.803
    12   6 C        2.920    -0.023    28.590     8.768
    13   6 C        2.917    -0.030    28.758     8.794
    14   6 C        2.926    -0.020    28.496     8.754
    15   6 C        2.976    -0.020    28.507     8.758
    16   6 C        2.991    -0.010    28.263     8.721
    17   6 C        2.926    -0.035    28.862     8.810
    18   6 C        2.918    -0.042    29.044     8.838
    19   6 C        2.920    -0.031    28.784     8.798
    20   6 C        2.924    -0.058    29.437     8.897
    21   6 C        2.925     0.060    26.652     8.466
    22   7 N        2.753    -0.073    22.650     7.068
    23   6 C        2.928     0.069    26.453     8.435
    24   6 C        2.922    -0.037    28.916     8.818
    25   6 C        2.920    -0.027    28.681     8.782
    26   6 C        2.920    -0.030    28.738     8.791
    27   6 C        2.920    -0.027    28.681     8.782
    28   6 C        2.922    -0.037    28.916     8.818
    29   6 C        2.925     0.060    26.654     8.466
    30   6 C        2.924    -0.058    29.438     8.898
    31   6 C        2.920    -0.031    28.784     8.798
    32   6 C        2.918    -0.042    29.045     8.838
    33   6 C        2.926    -0.034    28.859     8.810
    34   6 C        2.991    -0.010    28.267     8.721
    35   1 H        0.926     0.062     2.176     2.307
    36   1 H        0.926     0.038     2.476     2.461
    37   1 H        0.926     0.036     2.503     2.474
    38   1 H        0.926     0.030     2.585     2.514
    39   1 H        0.926     0.030     2.585     2.514
    40   1 H        0.926     0.036     2.503     2.474
    41   1 H        0.926     0.038     2.476     2.461
    42   1 H        0.926     0.062     2.176     2.307
    43   1 H        0.926     0.028     2.621     2.532
    44   1 H        0.926     0.031     2.570     2.507
    45   1 H        0.926     0.031     2.566     2.505
    46   1 H        0.926     0.027     2.624     2.533
    47   1 H        0.926     0.041     2.441     2.443
    48   1 H        0.926     0.040     2.455     2.450
    49   1 H        0.926     0.039     2.464     2.455
    50   1 H        0.926     0.040     2.455     2.450
    51   1 H        0.926     0.041     2.442     2.444
    52   1 H        0.926     0.027     2.626     2.534
    53   1 H        0.926     0.031     2.568     2.506
    54   1 H        0.926     0.031     2.573     2.508
    55   1 H        0.926     0.027     2.624     2.533

molecular dipole:
                 x           y           z       tot (Debye)
 q only:        2.076       0.009       0.019
   full:        2.286       0.010       0.023       5.810

 projected vibrational frequencies (cm⁻¹)
eigval :       -0.00    -0.00    -0.00     0.00     0.00     0.00
eigval :        9.34     9.83    10.36    45.07    45.52    55.42
eigval :       67.66    70.29   102.38   117.45   121.41   140.84
eigval :      169.63   197.50   224.33   229.14   249.77   250.27
eigval :      263.34   279.67   319.18   355.26   369.07   373.20
eigval :      379.08   387.20   399.22   408.58   412.44   418.80
eigval :      439.96   452.96   455.78   483.55   497.38   506.12
eigval :      526.48   549.41   590.55   593.09   598.25   598.86
eigval :      600.67   626.66   629.58   646.15   660.59   670.21
eigval :      673.72   691.21   702.68   713.34   736.18   752.39
eigval :      765.64   773.83   774.06   782.90   799.14   865.68
eigval :      865.91   875.88   885.24   887.27   896.09   896.10
eigval :      901.68   905.23   911.05   911.34   913.25   921.21
eigval :      921.51   923.70   924.25   929.03   931.43   931.60
eigval :      933.73   946.05   954.85   996.80  1078.59  1089.14
eigval :     1094.40  1094.61  1106.37  1107.65  1113.92  1117.94
eigval :     1123.77  1138.33  1177.08  1179.01  1180.63  1181.63
eigval :     1183.88  1184.32  1185.84  1192.99  1213.85  1226.65
eigval :     1228.12  1231.22  1254.29  1266.32  1266.59  1267.31
eigval :     1271.67  1273.53  1309.89  1320.25  1326.99  1333.48
eigval :     1335.43  1337.33  1343.49  1425.04  1427.10  1432.72
eigval :     1437.23  1438.57  1464.72  1469.11  1470.73  1482.10
eigval :     1494.83  1571.64  1573.48  1582.26  1583.78  1589.32
eigval :     1591.03  1591.94  1594.30  1595.67  1604.14  1678.81
eigval :     3073.71  3073.90  3077.01  3077.45  3080.63  3081.75
eigval :     3081.78  3081.85  3082.05  3082.24  3089.18  3089.26
eigval :     3089.62  3093.56  3095.20  3095.48  3096.50  3097.13
eigval :     3100.08  3101.79  3102.36

   temp. (K)  partition function   enthalpy   heat capacity  entropy
                                   cal/mol     cal/K/mol   cal/K/mol   J/K/mol
 298.15  VIB  0.419E+12            14652.283     95.898     91.103
         ROT  0.186E+08              888.752      2.981     36.243
         INT  0.778E+19            15541.035     98.879    127.346
         TR   0.879E+28             1481.254      4.968     44.084
         TOT                       17022.2891   103.8469   171.4297   717.2618

       T/K    H(0)-H(T)+PV         H(T)/Eh          T*S/Eh         G(T)/Eh
   ------------------------------------------------------------------------
    298.15    0.271267E-01    0.448768E+00    0.814518E-01    0.367316E+00
   ------------------------------------------------------------------------

         :::::::::::::::::::::::::::::::::::::::::::::::::::::
         ::                  THERMODYNAMIC                  ::
         :::::::::::::::::::::::::::::::::::::::::::::::::::::
         :: total free energy         -85.875013271893 Eh   ::
         ::.................................................::
         :: total energy              -86.242329204501 Eh   ::
         :: zero point energy           0.421640962874 Eh   ::
         :: G(RRHO) w/o ZPVE           -0.054325030266 Eh   ::
         :: G(RRHO) contrib.            0.367315932608 Eh   ::
         :::::::::::::::::::::::::::::::::::::::::::::::::::::

           -------------------------------------------------
          | TOTAL ENERGY              -86.242329204501 Eh   |
          | TOTAL ENTHALPY            -85.793561497317 Eh   |
          | TOTAL FREE ENERGY         -85.875013271893 Eh   |
          | GRADIENT NORM               0.000041102422 Eh/α |
          | HOMO-LUMO GAP               1.837294506231 eV   |
           -------------------------------------------------

 * finished run on 2025/09/12 at 23:53:07.648
