   * xtb version 6.7.1 (edcfbbe) compiled by 'albert@albert-system' on 2024-07-22

   ID    Z sym.   atoms
    1    8 O      1
    2    6 C      2-21, 23-34
    3    7 N      22
    4    1 H      35-55

          program call               : xtb data2507/gas/ACRSA/ACRSA.xyz --gfn 2 --ohess vtight --parallel 40 --molden --ceasefiles --namespace data2507/gas/ACRSA/ACRSA_gas_S0_preOpt
          :  Hamiltonian                  GFN2-xTB          :
 * total energy  :   -86.2234191 Eh     change       -0.2521318E-08 Eh
 * total energy  :   -86.2373209 Eh     change       -0.1390179E-01 Eh
 * total energy  :   -86.2416440 Eh     change       -0.4323089E-02 Eh
 * total energy  :   -86.2421118 Eh     change       -0.4678215E-03 Eh
 * total energy  :   -86.2422884 Eh     change       -0.1765813E-03 Eh
 * total energy  :   -86.2423200 Eh     change       -0.3158922E-04 Eh
 * total energy  :   -86.2423280 Eh     change       -0.7963928E-05 Eh
 * total energy  :   -86.2423208 Eh     change        0.7202270E-05 Eh
 * total energy  :   -86.2423290 Eh     change       -0.8221608E-05 Eh
 * total energy  :   -86.2423277 Eh     change        0.1344785E-05 Eh
 * total energy  :   -86.2423291 Eh     change       -0.1455193E-05 Eh
 * total energy  :   -86.2423286 Eh     change        0.5250872E-06 Eh
 * total energy  :   -86.2423291 Eh     change       -0.5249019E-06 Eh
 * total energy  :   -86.2423290 Eh     change        0.1145021E-06 Eh
 * total energy  :   -86.2423291 Eh     change       -0.1180247E-06 Eh
 * total energy  :   -86.2423291 Eh     change       -0.1337312E-08 Eh
   *** GEOMETRY OPTIMIZATION CONVERGED AFTER 16 ITERATIONS ***

 final structure:
================
55
 xtb: 6.7.1 (edcfbbe)
O           -5.34539537196825       -0.00062081316345       -0.00196480018330
C           -4.12646628932507       -0.00043825967199       -0.00100987918020
C           -3.34788852062872       -1.25533459236460       -0.00030601523257
C           -4.04780215043432       -2.46453419066039       -0.00030246297065
C           -3.37714145496641       -3.66748830899386        0.00034884876376
C           -1.98885468968761       -3.67576749093320        0.00097962102422
C           -1.28861442940362       -2.48559827166473        0.00096063222174
C           -1.95394969367899       -1.26419085504801        0.00034244978277
C           -1.12789947774762        0.00001216583194        0.00025987920138
C           -1.95432863521374        1.26396463436659        0.00023720008483
C           -1.28935756978835        2.48557030556912        0.00075250180672
C           -1.98995356525366        3.67553033316385        0.00067286664562
C           -3.37823798306408        3.66683628563565        0.00004468835209
C           -4.04853997613979        2.46368209051639       -0.00050590783137
C           -3.34826491624152        1.25469176454083       -0.00040964220754
C           -0.27947541503169        0.00007649239400       -1.25833180827754
C           -0.92467300117520        0.00005942668368       -2.48525667169154
C           -0.21236238548822        0.00009262395749       -3.66991789438411
C            1.17147188509187        0.00014354605561       -3.62566003727195
C            1.83017546924866        0.00016111405649       -2.41336297196109
C            1.11638811998308        0.00012520374193       -1.21162222958098
N            1.78833620081536        0.00014709203493       -0.00008097761005
C            3.21258827133110        0.00012369694893       -0.00025543594982
C            3.90569760600887        1.20356364568785       -0.00028940823872
C            5.28927928346658        1.19993469055386       -0.00046788367175
C            5.98110616472291        0.00006116679980       -0.00061649078231
C            5.28922548144819       -1.19978093865262       -0.00057944609094
C            3.90564350717165       -1.20334682402523       -0.00039944139956
C            1.11667297138315        0.00021720762565        1.21161693503589
C            1.83072871819057        0.00032157140803        2.41319796631181
C            1.17229525150747        0.00039938329252        3.62564373575466
C           -0.21153114034487        0.00037313434987        3.67020629046292
C           -0.92410346121753        0.00025878314780        2.48570067794706
C           -0.27917966948024        0.00017949044105        1.25863195558385
H           -5.12701684476335       -2.42204206360060       -0.00082079313796
H           -3.92572104997512       -4.59745437070487        0.00034688354409
H           -1.45355043370087       -4.61398454399584        0.00148031567987
H           -0.20792891920880       -2.49628937313968        0.00145404263254
H           -0.20867481023260        2.49658066717430        0.00124331007622
H           -1.45492990861109        4.61390737414544        0.00109457389674
H           -3.92709547957942        4.59663839228575       -0.00003426822868
H           -5.12774194484250        2.42086759152737       -0.00102005165899
H           -2.00530796712572        0.00001535591488       -2.50413976692898
H           -0.73130076585571        0.00007625015659       -4.61565133991303
H            1.74520304805989        0.00016998993436       -4.54042365899482
H            2.90941932589170        0.00020403496075       -2.39113112190550
H            3.35563024879375        2.13304794808725       -0.00017508760259
H            5.82804021779899        2.13566017084927       -0.00049942380472
H            7.06070440352793        0.00003692640977       -0.00076536218494
H            5.82794377827581       -2.13553092844613       -0.00069701803280
H            3.35553507916357       -2.13280683013748       -0.00037287306183
H            2.90996693566951        0.00033860799219        2.39071752886442
H            1.74623237574006        0.00047917890182        4.54028092081245
H           -0.73026136036850        0.00043380028209        4.61605433386408
H           -2.00473506274733        0.00022551777692        2.50480101162113

          :  Hamiltonian                  GFN2-xTB          :
         :: gradient norm              0.000057561719 Eh/a0 ::
         :: HOMO-LUMO gap              1.836231686455 eV    ::
         :: SCC energy               -87.830335208490 Eh    ::
         :: -> dispersion             -0.083289476523 Eh    ::
         :: repulsion energy           1.588006094133 Eh    ::

    * Orbital Energies and Occupations

         #    Occupation            Energy/Eh            Energy/eV
      -------------------------------------------------------------
         1        2.0000           -0.6920927             -18.8328
       ...           ...                  ...                  ...
        68        2.0000           -0.4295960             -11.6899
        69        2.0000           -0.4239881             -11.5373
        70        2.0000           -0.4200222             -11.4294
        71        2.0000           -0.4174677             -11.3599
        72        2.0000           -0.4117936             -11.2055
        73        2.0000           -0.4107333             -11.1766
        74        2.0000           -0.4105730             -11.1723
        75        2.0000           -0.4093284             -11.1384
        76        2.0000           -0.3991416             -10.8612
        77        2.0000           -0.3979324             -10.8283
        78        2.0000           -0.3977684             -10.8238
        79        2.0000           -0.3795878             -10.3291
        80        2.0000           -0.3526713              -9.5967 (HOMO)
        81                         -0.2851910              -7.7604 (LUMO)
        82                         -0.2432590              -6.6194
        83                         -0.2423328              -6.5942
        84                         -0.2398882              -6.5277
        85                         -0.2302305              -6.2649
        86                         -0.2290734              -6.2334
        87                         -0.2259743              -6.1491
        88                         -0.2255588              -6.1378
        89                         -0.2186551              -5.9499
        90                         -0.1953274              -5.3151
        91                         -0.1734158              -4.7189
       ...                                ...                  ...
       157                          0.7080090              19.2659
      -------------------------------------------------------------
                  HL-Gap            0.0674802 Eh            1.8362 eV

     #   Z          covCN         q      C6AA      α(0)
     1   8 O        0.858    -0.388    21.445     6.209
     2   6 C        2.831     0.223    23.307     7.911
     3   6 C        2.976    -0.020    28.507     8.758
     4   6 C        2.926    -0.020    28.496     8.754
     5   6 C        2.917    -0.030    28.759     8.794
     6   6 C        2.920    -0.023    28.590     8.768
     7   6 C        2.924    -0.033    28.812     8.803
     8   6 C        2.988     0.016    27.653     8.626
     9   6 C        3.928     0.014    20.282     6.400
    10   6 C        2.988     0.016    27.653     8.626
    11   6 C        2.924    -0.033    28.812     8.803
    12   6 C        2.920    -0.023    28.590     8.768
    13   6 C        2.917    -0.030    28.759     8.794
    14   6 C        2.926    -0.020    28.496     8.754
    15   6 C        2.976    -0.020    28.507     8.758
    16   6 C        2.991    -0.010    28.266     8.721
    17   6 C        2.926    -0.035    28.860     8.810
    18   6 C        2.918    -0.042    29.046     8.838
    19   6 C        2.920    -0.031    28.784     8.798
    20   6 C        2.924    -0.058    29.438     8.898
    21   6 C        2.925     0.060    26.652     8.466
    22   7 N        2.753    -0.073    22.654     7.069
    23   6 C        2.928     0.069    26.450     8.434
    24   6 C        2.922    -0.037    28.913     8.818
    25   6 C        2.920    -0.027    28.679     8.782
    26   6 C        2.920    -0.029    28.735     8.791
    27   6 C        2.920    -0.027    28.679     8.782
    28   6 C        2.922    -0.037    28.913     8.818
    29   6 C        2.925     0.060    26.652     8.466
    30   6 C        2.924    -0.058    29.438     8.898
    31   6 C        2.920    -0.031    28.784     8.798
    32   6 C        2.918    -0.042    29.046     8.838
    33   6 C        2.926    -0.035    28.860     8.810
    34   6 C        2.991    -0.010    28.266     8.721
    35   1 H        0.926     0.062     2.176     2.307
    36   1 H        0.926     0.038     2.476     2.461
    37   1 H        0.926     0.036     2.503     2.474
    38   1 H        0.926     0.030     2.585     2.514
    39   1 H        0.926     0.030     2.585     2.514
    40   1 H        0.926     0.036     2.503     2.474
    41   1 H        0.926     0.038     2.476     2.461
    42   1 H        0.926     0.062     2.176     2.307
    43   1 H        0.926     0.027     2.623     2.533
    44   1 H        0.926     0.031     2.572     2.508
    45   1 H        0.926     0.031     2.568     2.506
    46   1 H        0.926     0.027     2.628     2.535
    47   1 H        0.926     0.041     2.441     2.443
    48   1 H        0.926     0.040     2.453     2.449
    49   1 H        0.926     0.039     2.463     2.454
    50   1 H        0.926     0.040     2.453     2.449
    51   1 H        0.926     0.041     2.441     2.443
    52   1 H        0.926     0.027     2.628     2.535
    53   1 H        0.926     0.031     2.568     2.506
    54   1 H        0.926     0.031     2.572     2.508
    55   1 H        0.926     0.027     2.623     2.533

molecular dipole:
                 x           y           z       tot (Debye)
 q only:        2.083       0.000       0.001
   full:        2.294       0.000       0.001       5.831

 projected vibrational frequencies (cm⁻¹)
eigval :       -0.00    -0.00    -0.00     0.00     0.00     0.00
eigval :       -6.84    10.15    10.38    44.83    45.00    55.42
eigval :       68.69    68.74   102.40   117.64   121.37   140.82
eigval :      169.24   197.11   224.26   229.00   249.51   250.18
eigval :      263.25   279.63   319.22   355.35   368.96   372.98
eigval :      379.02   387.31   399.10   408.58   412.54   418.63
eigval :      439.71   453.35   455.25   483.49   497.28   505.95
eigval :      526.49   549.40   591.51   592.10   598.25   598.96
eigval :      600.50   626.66   629.60   646.06   660.59   670.14
eigval :      673.65   691.15   702.64   713.39   736.03   752.39
eigval :      765.70   773.67   773.95   782.85   799.05   865.47
eigval :      865.65   875.63   885.20   887.23   896.00   896.07
eigval :      901.67   905.14   911.12   911.27   913.20   921.14
eigval :      921.43   923.67   924.24   928.89   931.42   931.58
eigval :      933.80   946.11   954.87   996.82  1078.51  1089.16
eigval :     1094.40  1094.61  1106.13  1107.43  1113.80  1117.94
eigval :     1123.77  1138.32  1177.08  1179.00  1180.62  1181.63
eigval :     1183.79  1184.30  1185.71  1192.87  1213.89  1226.68
eigval :     1228.10  1231.03  1254.30  1266.32  1266.63  1267.26
eigval :     1271.69  1273.38  1309.61  1320.57  1327.02  1333.49
eigval :     1335.48  1337.35  1343.94  1425.05  1427.10  1432.98
eigval :     1437.28  1438.35  1464.74  1469.12  1470.77  1482.30
eigval :     1495.03  1571.64  1573.50  1582.26  1583.83  1589.33
eigval :     1591.02  1591.95  1594.35  1595.73  1604.16  1678.75
eigval :     3073.67  3073.87  3077.03  3077.32  3080.66  3081.72
eigval :     3081.78  3081.78  3082.01  3082.32  3089.26  3089.27
eigval :     3089.63  3093.66  3094.83  3095.11  3096.53  3097.15
eigval :     3100.10  3101.74  3102.30

   temp. (K)  partition function   enthalpy   heat capacity  entropy
                                   cal/mol     cal/K/mol   cal/K/mol   J/K/mol
 298.15  VIB  0.564E+12            14659.218     95.886     91.402
         ROT  0.929E+07              888.752      2.981     34.866
         INT  0.524E+19            15547.970     98.867    126.268
         TR   0.879E+28             1481.254      4.968     44.084
         TOT                       17029.2243   103.8347   170.3514   712.7504

       T/K    H(0)-H(T)+PV         H(T)/Eh          T*S/Eh         G(T)/Eh
   ------------------------------------------------------------------------
    298.15    0.271378E-01    0.448759E+00    0.809395E-01    0.367820E+00
   ------------------------------------------------------------------------

         :::::::::::::::::::::::::::::::::::::::::::::::::::::
         ::                  THERMODYNAMIC                  ::
         :::::::::::::::::::::::::::::::::::::::::::::::::::::
         :: total free energy         -85.874509583184 Eh   ::
         ::.................................................::
         :: total energy              -86.242329114357 Eh   ::
         :: zero point energy           0.421621202473 Eh   ::
         :: G(RRHO) w/o ZPVE           -0.053801671300 Eh   ::
         :: G(RRHO) contrib.            0.367819531173 Eh   ::
         :::::::::::::::::::::::::::::::::::::::::::::::::::::

           -------------------------------------------------
          | TOTAL ENERGY              -86.242329114357 Eh   |
          | TOTAL ENTHALPY            -85.793570115599 Eh   |
          | TOTAL FREE ENERGY         -85.874509583184 Eh   |
          | GRADIENT NORM               0.000057575502 Eh/α |
          | HOMO-LUMO GAP               1.836230315830 eV   |
           -------------------------------------------------

 * finished run on 2025/09/12 at 23:50:51.748
