   * xtb version 6.7.1 (edcfbbe) compiled by 'albert@albert-system' on 2024-07-22

   ID    Z sym.   atoms
    1    8 O      1
    2    6 C      2-21, 23-34
    3    7 N      22
    4    1 H      35-55

          program call               : xtb data2507/gas/ACRSA/ACRSA_gas_T1_crest.xyz --gfn 2 --spinpol --tblite --uhf 2 --ohess vtight --parallel 40 --molden --ceasefiles --namespace data2507/gas/ACRSA/ACRSA_gas_T1_finalOpt
 * total energy  :   -86.1632291 Eh     change       -0.2050257E-08 Eh
 * total energy  :   -86.1632688 Eh     change       -0.3968343E-04 Eh
 * total energy  :   -86.1632831 Eh     change       -0.1435809E-04 Eh
 * total energy  :   -86.1632843 Eh     change       -0.1139706E-05 Eh
 * total energy  :   -86.1632838 Eh     change        0.4357434E-06 Eh
 * total energy  :   -86.1632848 Eh     change       -0.9610120E-06 Eh
 * total energy  :   -86.1632852 Eh     change       -0.3896087E-06 Eh
 * total energy  :   -86.1632857 Eh     change       -0.5468149E-06 Eh
 * total energy  :   -86.1632861 Eh     change       -0.3759124E-06 Eh
 * total energy  :   -86.1632863 Eh     change       -0.1680278E-06 Eh
 * total energy  :   -86.1632863 Eh     change       -0.8242283E-07 Eh
   *** GEOMETRY OPTIMIZATION CONVERGED AFTER 11 ITERATIONS ***

 final structure:
================
55
 xtb: 6.7.1 (edcfbbe)
O           -5.14561799932701        0.05219159169426       -0.02234282292362
C           -3.88143134903325        0.03579372109307       -0.01096467323160
C           -3.13898320008751       -1.20129393759463        0.06190783921225
C           -3.86385566207874       -2.40927220450635        0.12416242694514
C           -3.20914335562449       -3.61333077087412        0.19644078016984
C           -1.81986133929702       -3.65727410192870        0.20923140026665
C           -1.10029000229617       -2.47480992318041        0.14757069852747
C           -1.74072152523787       -1.25009640612789        0.07406975200198
C           -0.87088000666458       -0.00434044516628        0.00616683048486
C           -1.70648923997549        1.26525209549548       -0.06032586933553
C           -1.03339194455532        2.47317969081657       -0.11726290059578
C           -1.72094376159304        3.67441111786285       -0.18175179843514
C           -3.11095258474451        3.66666967327684       -0.18982922168177
C           -3.79770563200157        2.47976553360190       -0.13427264466744
C           -3.10556911839714        1.25284768255767       -0.06820356384100
C           -0.03515233052259       -0.08090086662982       -1.24605483193823
C           -0.68158985691050       -0.14985949387363       -2.47264492117942
C            0.03045971605439       -0.21557380894299       -3.65360632140719
C            1.41820093742584       -0.20997848427422       -3.61566327397744
C            2.08052010893645       -0.14203016827594       -2.40989438405348
C            1.36514721708091       -0.07915825710618       -1.20759392013661
N            2.03675301873854       -0.01392722061777       -0.00144923722960
C            3.46203932830746       -0.00785071407989       -0.00543851431068
C            4.14693255108109        1.19993254174362       -0.02245152316905
C            5.53061439524700        1.20233712063641       -0.02568378092088
C            6.22809641519193        0.00574521294992       -0.01252328524320
C            5.54244697365798       -1.19766356782545        0.00411000826638
C            4.15882385074126       -1.20891066036486        0.00797048613644
C            1.37180912149146        0.04507777443516        1.20868872656379
C            2.09373225627650        0.09554509392228        2.40766241603354
C            1.43797592402630        0.15481985145146        3.61747600917242
C            0.05047324111366        0.16463101198278        3.66284165217360
C           -0.66798801237211        0.11247295341991        2.48508534681838
C           -0.02824807045074        0.05175000669544        1.25456793865967
H           -4.94139970010250       -2.34887694798213        0.11297157543704
H           -3.77963907050455       -4.52965008537616        0.24359477669183
H           -1.30058581954383       -4.60176237777840        0.26634881137692
H           -0.01869166885377       -2.50190098625123        0.15670244219224
H            0.04852132401838        2.47253553647528       -0.11109671912619
H           -1.17647192586060        4.60534238661074       -0.22538871486048
H           -3.65662196716267        4.59782879920552       -0.24005610838718
H           -4.87651025694883        2.44729433293731       -0.13921420337312
H           -1.76129421886115       -0.15079850723040       -2.48784595915825
H           -0.48838641255178       -0.26930447152543       -4.59777857711531
H            1.98662199703432       -0.25849617123765       -4.53213905727011
H            3.15964627886590       -0.13661284012112       -2.38991017513176
H            3.59194738464553        2.12622230042216       -0.03240051157179
H            6.06411428534199        2.14063485631237       -0.03881577567581
H            7.30743380024893        0.01103210664609       -0.01516077023883
H            6.08523687616867       -2.13065675791977        0.01454410422719
H            3.61292363974904       -2.14055484062924        0.02068316113276
H            3.17271642366611        0.08676255334106        2.38190792550457
H            2.01139001054498        0.19311919868738        4.53132116084025
H           -0.46316023503715        0.21154207164201        4.61022309186637
H           -1.74760999895818        0.11796031870501        2.50569369628502

 projected vibrational frequencies (cm⁻¹)
eigval :       -0.00    -0.00    -0.00    -0.00     0.00     0.00
eigval :        9.88    12.63    14.17    46.22    50.62    61.81
eigval :       70.03    73.10   100.42   118.32   132.90   140.18
eigval :      173.46   197.61   228.42   229.20   247.95   250.05
eigval :      262.20   279.45   304.57   345.10   355.71   372.17
eigval :      381.95   389.95   398.37   400.02   409.00   424.10
eigval :      443.02   452.49   457.16   478.93   494.36   511.47
eigval :      512.88   531.29   532.98   585.63   590.90   592.52
eigval :      595.02   597.92   606.83   624.75   654.34   657.21
eigval :      667.96   684.67   694.51   694.65   710.61   753.33
eigval :      759.13   763.35   766.05   771.05   776.55   854.11
eigval :      855.21   867.04   868.01   875.37   884.01   884.54
eigval :      889.65   893.41   896.55   904.01   908.27   909.26
eigval :      909.57   913.10   914.14   922.78   922.84   928.96
eigval :      934.25   937.42   943.27   995.72  1077.79  1079.28
eigval :     1087.51  1088.23  1100.91  1102.07  1107.89  1114.20
eigval :     1125.15  1134.21  1161.61  1169.77  1174.74  1179.90
eigval :     1180.64  1182.01  1185.06  1190.79  1191.58  1194.73
eigval :     1204.16  1221.90  1230.99  1251.85  1254.08  1260.53
eigval :     1266.83  1272.58  1309.34  1315.28  1319.55  1335.96
eigval :     1338.82  1341.26  1342.24  1380.89  1405.89  1427.30
eigval :     1431.95  1433.40  1440.44  1441.03  1452.78  1465.14
eigval :     1470.38  1479.73  1522.23  1527.95  1554.36  1555.69
eigval :     1569.20  1577.30  1580.38  1583.26  1591.22  1595.65
eigval :     3057.22  3057.75  3072.95  3073.09  3084.77  3085.64
eigval :     3085.82  3086.12  3089.33  3089.68  3091.05  3091.26
eigval :     3092.57  3097.24  3097.98  3098.40  3098.49  3099.02
eigval :     3103.90  3105.34  3105.50

   temp. (K)  partition function   enthalpy   heat capacity  entropy
                                   cal/mol     cal/K/mol   cal/K/mol   J/K/mol
 298.15  VIB  0.188E+12            14778.526     97.512     91.022
         ROT  0.186E+08              888.752      2.981     36.246
         INT  0.350E+19            15667.278    100.493    127.268
         TR   0.879E+28             1481.254      4.968     44.084
         TOT                       17148.5321   105.4615   171.3520   716.9369

       T/K    H(0)-H(T)+PV         H(T)/Eh          T*S/Eh         G(T)/Eh
   ------------------------------------------------------------------------
    298.15    0.273279E-01    0.445817E+00    0.814149E-01    0.364402E+00
   ------------------------------------------------------------------------

         :::::::::::::::::::::::::::::::::::::::::::::::::::::
         ::                  THERMODYNAMIC                  ::
         :::::::::::::::::::::::::::::::::::::::::::::::::::::
         :: total free energy         -85.798884371683 Eh   ::
         ::.................................................::
         :: total energy              -86.163286363209 Eh   ::
         :: zero point energy           0.418488942179 Eh   ::
         :: G(RRHO) w/o ZPVE           -0.054086950653 Eh   ::
         :: G(RRHO) contrib.            0.364401991526 Eh   ::
         :::::::::::::::::::::::::::::::::::::::::::::::::::::

           -------------------------------------------------
          | TOTAL ENERGY              -86.163286363209 Eh   |
          | TOTAL ENTHALPY            -85.717469495687 Eh   |
          | TOTAL FREE ENERGY         -85.798884371683 Eh   |
          | GRADIENT NORM               0.000031551654 Eh/α |
           -------------------------------------------------

 * finished run on 2025/09/12 at 23:55:59.626
