   * xtb version 6.7.1 (edcfbbe) compiled by 'albert@albert-system' on 2024-07-22

   ID    Z sym.   atoms
    1    8 O      1
    2    6 C      2-21, 23-34
    3    7 N      22
    4    1 H      35-55

          program call               : xtb data2507/gas/ACRSA/ACRSA_gas_S0_finalOpt.xtbopt.xyz --gfn 2 --spinpol --tblite --uhf 2 --ohess vtight --parallel 40 --molden --ceasefiles --namespace data2507/gas/ACRSA/ACRSA_gas_T1_preOpt
 * total energy  :   -86.1593425 Eh     change       -0.1279464E-07 Eh
 * total energy  :   -86.1625259 Eh     change       -0.3183408E-02 Eh
 * total energy  :   -86.1632321 Eh     change       -0.7062501E-03 Eh
 * total energy  :   -86.1632670 Eh     change       -0.3484682E-04 Eh
 * total energy  :   -86.1632752 Eh     change       -0.8289024E-05 Eh
 * total energy  :   -86.1632771 Eh     change       -0.1856798E-05 Eh
 * total energy  :   -86.1632777 Eh     change       -0.6261233E-06 Eh
 * total energy  :   -86.1632780 Eh     change       -0.2242530E-06 Eh
 * total energy  :   -86.1632782 Eh     change       -0.2777075E-06 Eh
 * total energy  :   -86.1632787 Eh     change       -0.4438868E-06 Eh
 * total energy  :   -86.1632811 Eh     change       -0.6178769E-06 Eh
 * total energy  :   -86.1632819 Eh     change       -0.7370316E-06 Eh
 * total energy  :   -86.1632828 Eh     change       -0.9671761E-06 Eh
 * total energy  :   -86.1632839 Eh     change       -0.1113138E-05 Eh
 * total energy  :   -86.1632848 Eh     change       -0.9018108E-06 Eh
 * total energy  :   -86.1632855 Eh     change       -0.6334711E-06 Eh
 * total energy  :   -86.1632859 Eh     change       -0.4738677E-06 Eh
 * total energy  :   -86.1632863 Eh     change       -0.3463107E-06 Eh
 * total energy  :   -86.1632863 Eh     change       -0.5744425E-08 Eh
   *** GEOMETRY OPTIMIZATION CONVERGED AFTER 22 ITERATIONS ***

 final structure:
================
55
 xtb: 6.7.1 (edcfbbe)
O           -5.14576085086402       -0.01468611352861        0.07066209181109
C           -3.88162096716241       -0.01070925085933        0.04879628674893
C           -3.11754559277512       -1.23581937233812        0.09232161119703
C           -3.82131155753969       -2.45609342293639        0.15785937407503
C           -3.14596305944680       -3.65005957016738        0.20090172784720
C           -1.75624409372698       -3.67155190934290        0.18009504822315
C           -1.05731345146739       -2.47688011855361        0.11596961222631
C           -1.71877499221616       -1.26200353303122        0.07192299716988
C           -0.87100413209168       -0.00059517067213        0.00672841737801
C           -1.72886531108206        1.25438102612766       -0.04592161538855
C           -1.07706479626359        2.47320960322958       -0.11681984411458
C           -1.78540964962599        3.66305355551718       -0.16534379031975
C           -3.17491550947941        3.63266380267882       -0.14192248227300
C           -3.84081033998554        2.43465309494996       -0.07187901680784
C           -3.12741023344770        1.21923471095338       -0.02278020379073
C           -0.03879839622008       -0.05528641851359       -1.24871155604705
C           -0.68883736994434       -0.10917377601416       -2.47414703738431
C            0.01966255301743       -0.15613198086248       -3.65813637335337
C            1.40749460893582       -0.14721742657149       -3.62436059141230
C            2.07337636223420       -0.09430044336144       -2.41980093492751
C            1.36162037998208       -0.05010367524714       -1.21450869637164
N            2.03676361756633        0.00229313267486       -0.00968684987632
C            3.46199527114352        0.00752941730782       -0.01810683440260
C            4.14807980517527        1.21479983990584       -0.01087162259494
C            5.53170734066425        1.21605380284726       -0.01937351012438
C            6.22809000923074        0.01883989149392       -0.03569716112811
C            5.54131536018353       -1.18399630671155       -0.04305266819915
C            4.15768079261989       -1.19410516418306       -0.03394577693341
C            1.37522944986726        0.05587736822576        1.20261418101232
C            2.10059640309153        0.10297406236546        2.39963899829919
C            1.44841097171686        0.15845817875641        3.61155187954020
C            0.06104742958358        0.16700647673432        3.66102049590476
C           -0.66082938240169        0.11623347247393        2.48531650218150
C           -0.02468859863157        0.05960386632283        1.25271963420675
H           -4.89964810833206       -2.41293432537420        0.17283288170539
H           -3.70042703568789       -4.57599287448036        0.25138532521646
H           -1.22072793357730       -4.60806258763881        0.21391300932014
H            0.02446789914762       -2.48682792019278        0.10017611756577
H            0.00461660235339        2.48999088670326       -0.13451031507451
H           -1.25732713074229        4.60275434662706       -0.22062739181802
H           -3.73669358466018        4.55481361839633       -0.17890703623508
H           -4.91877322223012        2.38466468806038       -0.05248880063820
H           -1.76859919733569       -0.11301483773579       -2.48579150592136
H           -0.50193284960782       -0.19772757336381       -4.60140517704961
H            1.97325492817538       -0.18101225131509       -4.54314197988446
H            3.15253144082630       -0.08549259167345       -2.40318525774227
H            3.59389603036050        2.14153647489146        0.00214843312808
H            6.06603674413393        2.15395646420014       -0.01372738865001
H            7.30741172506448        0.02324124301902       -0.04273159616230
H            6.08323014203354       -2.11747194458560       -0.05558810056701
H            3.61107821608475       -2.12539864890237       -0.03987868370520
H            3.17949928138213        0.09453129936207        2.37073898356080
H            2.02449568311522        0.19470568538384        4.52379627532917
H           -0.44990553421328        0.21113154415200        4.60998120401454
H           -1.74036698894291        0.11934624070758        2.50945547826436

 projected vibrational frequencies (cm⁻¹)
eigval :       -0.00    -0.00     0.00     0.00     0.00     0.00
eigval :        9.89    13.19    14.13    46.25    50.72    61.84
eigval :       70.06    73.15   100.41   118.31   132.89   140.45
eigval :      173.52   198.09   228.66   229.00   247.90   250.10
eigval :      262.24   279.45   304.57   345.09   355.70   372.19
eigval :      381.83   389.98   398.44   400.04   409.20   424.10
eigval :      443.04   452.49   457.20   478.93   494.37   511.47
eigval :      512.92   531.31   532.96   585.66   590.77   592.70
eigval :      595.05   597.93   606.86   624.80   654.33   657.07
eigval :      667.96   684.69   694.52   694.66   711.24   753.34
eigval :      759.11   763.34   766.01   771.05   776.55   854.12
eigval :      855.20   867.05   868.04   875.38   884.02   884.56
eigval :      889.64   893.42   896.55   904.03   908.27   909.26
eigval :      909.59   913.12   914.14   922.79   922.84   928.96
eigval :      934.24   937.41   943.31   995.67  1077.73  1079.07
eigval :     1087.19  1087.89  1100.68  1102.02  1107.82  1114.17
eigval :     1125.19  1134.50  1161.45  1169.81  1174.89  1180.03
eigval :     1180.34  1182.14  1185.34  1191.20  1191.97  1194.84
eigval :     1204.57  1222.72  1231.09  1251.99  1254.10  1260.84
eigval :     1266.85  1272.69  1309.37  1315.30  1319.59  1335.98
eigval :     1338.86  1341.28  1342.15  1381.03  1406.08  1427.36
eigval :     1432.21  1433.43  1440.58  1441.16  1452.93  1465.43
eigval :     1470.37  1479.60  1522.25  1528.00  1554.48  1555.74
eigval :     1569.61  1577.34  1580.41  1583.34  1591.18  1595.44
eigval :     3057.62  3057.81  3073.24  3073.39  3084.95  3085.82
eigval :     3086.02  3086.25  3089.73  3089.96  3091.07  3091.27
eigval :     3092.69  3097.53  3098.26  3098.50  3098.64  3099.34
eigval :     3103.79  3105.30  3105.53

   temp. (K)  partition function   enthalpy   heat capacity  entropy
                                   cal/mol     cal/K/mol   cal/K/mol   J/K/mol
 298.15  VIB  0.179E+12            14776.154     97.512     90.968
         ROT  0.931E+07              888.752      2.981     34.869
         INT  0.167E+19            15664.907    100.493    125.837
         TR   0.879E+28             1481.254      4.968     44.084
         TOT                       17146.1605   105.4610   169.9208   710.9488

       T/K    H(0)-H(T)+PV         H(T)/Eh          T*S/Eh         G(T)/Eh
   ------------------------------------------------------------------------
    298.15    0.273241E-01    0.445836E+00    0.807349E-01    0.365101E+00
   ------------------------------------------------------------------------

         :::::::::::::::::::::::::::::::::::::::::::::::::::::
         ::                  THERMODYNAMIC                  ::
         :::::::::::::::::::::::::::::::::::::::::::::::::::::
         :: total free energy         -85.798184805041 Eh   ::
         ::.................................................::
         :: total energy              -86.163286300184 Eh   ::
         :: zero point energy           0.418512224138 Eh   ::
         :: G(RRHO) w/o ZPVE           -0.053410728996 Eh   ::
         :: G(RRHO) contrib.            0.365101495142 Eh   ::
         :::::::::::::::::::::::::::::::::::::::::::::::::::::

           -------------------------------------------------
          | TOTAL ENERGY              -86.163286300184 Eh   |
          | TOTAL ENTHALPY            -85.717449929964 Eh   |
          | TOTAL FREE ENERGY         -85.798184805041 Eh   |
          | GRADIENT NORM               0.000042826198 Eh/α |
           -------------------------------------------------

 * finished run on 2025/09/12 at 23:53:11.588
