   * xtb version 6.7.1 (edcfbbe) compiled by 'albert@albert-system' on 2024-07-22

   ID    Z sym.   atoms
    1    8 O      1, 9
    2    6 C      2-8, 10-16, 18-31, 33-47
    3    7 N      17, 32
    4    1 H      48-73

          program call               : xtb data2507/gas/Xm-mCP/Xm-mCP_gas_T1_crest.xyz --gfn 2 --spinpol --tblite --uhf 2 --ohess vtight --parallel 40 --molden --ceasefiles --namespace data2507/gas/Xm-mCP/Xm-mCP_gas_T1_finalOpt
 * total energy  :  -119.3208726 Eh     change       -0.2393659E-07 Eh
 * total energy  :  -119.3209181 Eh     change       -0.4552866E-04 Eh
 * total energy  :  -119.3209300 Eh     change       -0.1189407E-04 Eh
 * total energy  :  -119.3209308 Eh     change       -0.7879773E-06 Eh
 * total energy  :  -119.3209304 Eh     change        0.4353736E-06 Eh
 * total energy  :  -119.3209312 Eh     change       -0.7628233E-06 Eh
 * total energy  :  -119.3209314 Eh     change       -0.1921885E-06 Eh
 * total energy  :  -119.3209318 Eh     change       -0.4418037E-06 Eh
 * total energy  :  -119.3209321 Eh     change       -0.3421449E-06 Eh
 * total energy  :  -119.3209324 Eh     change       -0.2500143E-06 Eh
 * total energy  :  -119.3209326 Eh     change       -0.2242230E-06 Eh
 * total energy  :  -119.3209328 Eh     change       -0.2338659E-06 Eh
 * total energy  :  -119.3209331 Eh     change       -0.2590858E-06 Eh
 * total energy  :  -119.3209333 Eh     change       -0.1939070E-06 Eh
 * total energy  :  -119.3209334 Eh     change       -0.1199417E-06 Eh
 * total energy  :  -119.3209335 Eh     change       -0.1174588E-06 Eh
 * total energy  :  -119.3209336 Eh     change       -0.9172219E-07 Eh
   *** GEOMETRY OPTIMIZATION CONVERGED AFTER 17 ITERATIONS ***

 final structure:
================
73
 xtb: 6.7.1 (edcfbbe)
O            4.98283211580692        1.25999334741269       -1.12639524379744
C            5.22051259402037        0.28400417713158       -0.35334531812015
C            6.56008826224764       -0.16099377767887       -0.05145445837803
C            7.67717384225903        0.47521424746671       -0.61704307179646
C            8.95300884704469        0.04189489544893       -0.31890367478286
C            9.15202705214526       -1.02895794519527        0.53809612942443
C            8.05876828701113       -1.67404241659962        1.10511930070443
C            6.77394698766328       -1.24880489658461        0.81609226128326
O            5.74772829868215       -1.93152232820238        1.40536896593097
C            4.47242323850797       -1.54334982272950        1.14177857361518
C            3.45273581591442       -2.25491494997873        1.74995186361439
C            2.12369572698087       -1.91462773665055        1.52646946252737
C            1.80255400869794       -0.84410242207227        0.69374317880728
C            0.40492692880592       -0.47281957125904        0.44199676625859
C           -0.57423606775723       -1.45078961489073        0.28921173184994
C           -1.89284779831048       -1.09586970594308        0.02715748015495
N           -2.85802985432302       -2.09468868596417       -0.15664242050976
C           -2.74278026440423       -3.17185275396722       -1.01404529308712
C           -1.71535769013132       -3.50038701997095       -1.88748079865029
C           -1.86569673104463       -4.63699417159001       -2.65957003534224
C           -3.01056174375406       -5.42571114957022       -2.57787221824700
C           -4.04751164552545       -5.08912268429673       -1.72823150226832
C           -3.91914503427195       -3.95308728109813       -0.94230772692724
C           -4.77988386675738       -3.30905631215650        0.01255691370087
C           -6.03914155828026       -3.60398191424241        0.51432010955608
C           -6.58552781578767       -2.76464645445910        1.46701798105989
C           -5.88427135422454       -1.65485622252905        1.93136717576323
C           -4.62829624637986       -1.34280253565661        1.44679104861542
C           -4.08593433226854       -2.16492945455755        0.46982076407991
C           -2.25065652426067        0.24354735706354       -0.08049775524715
C           -1.27773195054962        1.22453552478157        0.08265756179673
N           -1.61606901142737        2.57669331069221       -0.04752327135886
C           -0.94597911474846        3.49365218424885       -0.83570986538985
C            0.14032439641128        3.30842416227045       -1.67987068760291
C            0.60848451115768        4.40542286084203       -2.37844020121657
C            0.00732131139393        5.65540918765324       -2.25551401722079
C           -1.09296022607411        5.83943164747843       -1.43836302813173
C           -1.57819267284836        4.75333982339354       -0.72509727861538
C           -2.68139825732722        4.57899907686293        0.18132718879914
C           -3.64290163106845        5.43895287789868        0.69020101201929
C           -4.57060731377852        4.93977546526242        1.58599749415609
C           -4.53408712228292        3.60713408274921        1.98715675883468
C           -3.58383811723112        2.73292324236861        1.49413788045512
C           -2.66786467525098        3.21995889669811        0.57288131061796
C            0.03953417681146        0.86682493211161        0.34617893979354
C            2.82346979394700       -0.12451665759556        0.08448071969792
C            4.17082466826619       -0.46202827688379        0.28913794335940
H            7.50613230574982        1.30710161981870       -1.28159233807210
H            9.80019507371906        0.54730019994805       -0.75845831576761
H           10.14962392053346       -1.36749859023601        0.77015053325389
H            8.18567892969677       -2.51208873205461        1.77237119918464
H            3.71392310825967       -3.07213395142269        2.40345432773385
H            1.34501810069737       -2.46641036617560        2.02906757358649
H           -0.31199563600683       -2.49425225884250        0.36941932852525
H           -0.83184896597701       -2.88624696844183       -1.97198033822967
H           -1.07883307593516       -4.91667670564453       -3.34384507648490
H           -3.08923707907634       -6.30726532306832       -3.19603382933046
H           -4.94127590619402       -5.69202772823354       -1.67698966107000
H           -6.57568960534184       -4.47438526053820        0.16877366000846
H           -7.56563922115769       -2.97498914381369        1.86773290505604
H           -6.32881743151014       -1.02726602015982        2.68926036777178
H           -4.08177336421382       -0.49529462553319        1.83015470220804
H           -3.26457849561063        0.51707147286241       -0.32906085660307
H            0.60181076130901        2.34057413802150       -1.79937500653158
H            1.45799311167425        4.28797934809550       -3.03367468028778
H            0.40361902425700        6.48905895915713       -2.81523070030029
H           -1.56858288233432        6.80485779497987       -1.35647646621678
H           -3.66034854744152        6.47683371369800        0.39475061348228
H           -5.32900141188515        5.59244238439160        1.99129797124471
H           -5.25996039293077        3.24951460095588        2.70202570623277
H           -3.54840337124520        1.70854898796344        1.83018195571863
H            0.77671297665571        1.63751439962948        0.50780154437967
H            2.60991922100185        0.69172272103106       -0.58686220507816

 projected vibrational frequencies (cm⁻¹)
eigval :       -0.00    -0.00     0.00     0.00     0.00     0.00
eigval :       13.68    17.12    19.13    23.05    24.14    28.41
eigval :       42.40    61.53    68.25    77.81    98.85   100.71
eigval :      110.80   134.25   138.14   144.12   145.21   146.43
eigval :      155.48   194.02   207.17   223.51   245.42   249.73
eigval :      254.18   267.26   270.92   272.92   282.31   309.47
eigval :      317.48   319.23   349.52   364.49   376.21   391.07
eigval :      394.93   395.44   403.56   420.05   421.66   434.51
eigval :      436.39   439.31   459.61   491.05   495.31   509.87
eigval :      513.49   516.67   518.07   526.59   537.80   538.67
eigval :      541.81   554.18   563.60   579.81   582.23   586.99
eigval :      591.33   615.82   620.74   627.81   644.10   654.42
eigval :      659.32   670.18   673.09   673.63   677.06   708.15
eigval :      708.82   710.59   748.55   752.69   754.54   765.63
eigval :      769.13   769.34   772.98   777.53   779.50   796.85
eigval :      814.13   830.61   834.71   842.68   860.44   862.48
eigval :      866.39   868.28   870.02   875.80   876.07   893.61
eigval :      896.08   897.03   897.96   900.15   901.35   905.88
eigval :      906.38   907.98   911.17   919.45   922.73   923.73
eigval :      925.04   981.32  1000.22  1011.42  1013.42  1032.59
eigval :     1065.91  1069.50  1071.45  1072.08  1073.18  1090.98
eigval :     1095.97  1107.22  1118.53  1123.86  1143.73  1148.19
eigval :     1157.86  1161.14  1165.36  1172.27  1176.04  1177.44
eigval :     1179.16  1180.05  1192.09  1204.10  1216.10  1227.09
eigval :     1228.07  1228.98  1232.36  1233.83  1241.18  1246.17
eigval :     1275.67  1290.51  1292.49  1294.55  1299.42  1318.14
eigval :     1324.63  1328.75  1346.50  1347.63  1352.20  1357.06
eigval :     1359.29  1360.52  1382.68  1401.86  1413.29  1415.03
eigval :     1417.76  1420.59  1425.98  1441.66  1447.48  1454.45
eigval :     1466.06  1468.30  1472.74  1483.64  1485.03  1499.58
eigval :     1514.01  1535.42  1553.46  1556.98  1562.22  1568.77
eigval :     1570.83  1584.03  1586.16  1586.36  1589.23  1604.62
eigval :     1609.40  3080.05  3081.76  3082.55  3082.73  3084.90
eigval :     3086.70  3087.87  3088.71  3090.87  3093.14  3093.76
eigval :     3094.36  3095.24  3096.00  3097.39  3100.02  3100.54
eigval :     3101.20  3102.63  3104.02  3104.26  3105.53  3106.16
eigval :     3107.61  3109.19  3109.79

   temp. (K)  partition function   enthalpy   heat capacity  entropy
                                   cal/mol     cal/K/mol   cal/K/mol   J/K/mol
 298.15  VIB  0.313E+16            20722.986    134.773    126.163
         ROT  0.891E+08              888.752      2.981     39.358
         INT  0.279E+24            21611.738    137.754    165.521
         TR   0.143E+29             1481.254      4.968     45.052
         TOT                       23092.9923   142.7222   210.5727   881.0363

       T/K    H(0)-H(T)+PV         H(T)/Eh          T*S/Eh         G(T)/Eh
   ------------------------------------------------------------------------
    298.15    0.368010E-01    0.582943E+00    0.100050E+00    0.482893E+00
   ------------------------------------------------------------------------

         :::::::::::::::::::::::::::::::::::::::::::::::::::::
         ::                  THERMODYNAMIC                  ::
         :::::::::::::::::::::::::::::::::::::::::::::::::::::
         :: total free energy        -118.838040199967 Eh   ::
         ::.................................................::
         :: total energy             -119.320933634751 Eh   ::
         :: zero point energy           0.546142304754 Eh   ::
         :: G(RRHO) w/o ZPVE           -0.063248869970 Eh   ::
         :: G(RRHO) contrib.            0.482893434783 Eh   ::
         :::::::::::::::::::::::::::::::::::::::::::::::::::::

           -------------------------------------------------
          | TOTAL ENERGY             -119.320933634751 Eh   |
          | TOTAL ENTHALPY           -118.737990304295 Eh   |
          | TOTAL FREE ENERGY        -118.838040199967 Eh   |
          | GRADIENT NORM               0.000092610484 Eh/α |
           -------------------------------------------------

 * finished run on 2025/09/10 at 14:13:30.733
