   * xtb version 6.7.1 (edcfbbe) compiled by 'albert@albert-system' on 2024-07-22

   ID    Z sym.   atoms
    1    8 O      1, 9
    2    6 C      2-8, 10-16, 18-31, 33-47
    3    7 N      17, 32
    4    1 H      48-73

          program call               : xtb data2507/gas/Xm-mCP/Xm-mCP_gas_S0_finalOpt.xtbopt.xyz --gfn 2 --spinpol --tblite --uhf 2 --ohess vtight --parallel 40 --molden --ceasefiles --namespace data2507/gas/Xm-mCP/Xm-mCP_gas_T1_preOpt
 * total energy  :  -119.3168601 Eh     change        0.9157759E-09 Eh
 * total energy  :  -119.3200964 Eh     change       -0.3236300E-02 Eh
 * total energy  :  -119.3208494 Eh     change       -0.7529963E-03 Eh
 * total energy  :  -119.3208969 Eh     change       -0.4753644E-04 Eh
 * total energy  :  -119.3209076 Eh     change       -0.1065082E-04 Eh
 * total energy  :  -119.3209123 Eh     change       -0.4703777E-05 Eh
 * total energy  :  -119.3209159 Eh     change       -0.3602772E-05 Eh
 * total energy  :  -119.3209202 Eh     change       -0.4300798E-05 Eh
 * total energy  :  -119.3209216 Eh     change       -0.1481066E-05 Eh
 * total energy  :  -119.3209230 Eh     change       -0.1332447E-05 Eh
 * total energy  :  -119.3209284 Eh     change       -0.1351195E-05 Eh
 * total energy  :  -119.3209297 Eh     change       -0.1343423E-05 Eh
 * total energy  :  -119.3209310 Eh     change       -0.1289348E-05 Eh
 * total energy  :  -119.3209321 Eh     change       -0.1044353E-05 Eh
 * total energy  :  -119.3209327 Eh     change       -0.6754908E-06 Eh
 * total energy  :  -119.3209330 Eh     change       -0.3147280E-06 Eh
 * total energy  :  -119.3209333 Eh     change       -0.2257124E-06 Eh
 * total energy  :  -119.3209334 Eh     change       -0.1177643E-06 Eh
 * total energy  :  -119.3209334 Eh     change       -0.9282161E-08 Eh
   *** GEOMETRY OPTIMIZATION CONVERGED AFTER 22 ITERATIONS ***

 final structure:
================
73
 xtb: 6.7.1 (edcfbbe)
O            4.98239597735973        1.27910192582053       -1.11149499063008
C            5.22125522941879        0.29896857876521       -0.34410944722353
C            6.56137221360861       -0.14580509821751       -0.04437433382378
C            7.67769216563494        0.49531832460999       -0.60588235299225
C            8.95404564932362        0.06160741174757       -0.31046855771985
C            9.15433887929193       -1.01442822919530        0.53974599155370
C            8.06185148229408       -1.66416422728171        1.10290573716968
C            6.77651150529237       -1.23850872654417        0.81665776772772
O            5.75112896832297       -1.92577764688400        1.40213404633082
C            4.47536663450684       -1.53797980036942        1.14018076276355
C            3.45652280493939       -2.25435760349416        1.74414827004622
C            2.12706269554798       -1.91527673837725        1.52150249817472
C            1.80450293169270       -0.84126324700968        0.69375111497237
C            0.40623330464035       -0.47190688441209        0.44281645657223
C           -0.57091527499531       -1.45146803984648        0.28690951010279
C           -1.89055015347124       -1.09835443490236        0.02789677812759
N           -2.85445974321987       -2.09831598689111       -0.15677071923646
C           -2.74121068725958       -3.17124958267945       -1.01955938022808
C           -1.71717193626331       -3.49374952273752       -1.89917977103668
C           -1.86913367834084       -4.62686109326439       -2.67608035524971
C           -3.01225908975074       -5.41796342541809       -2.59287578886899
C           -4.04574378670482       -5.08752394053998       -1.73660536373267
C           -3.91575221664255       -3.95507507699450       -0.94579908343105
C           -4.77294545148938       -3.31731118258990        0.01645023819684
C           -6.02889951066362       -3.61716202293043        0.52354442109196
C           -6.57184613596808       -2.78341948817662        1.48311022619291
C           -5.87053423809439       -1.67419818183449        1.94877668094466
C           -4.61787103476484       -1.35718178048011        1.45889415410595
C           -4.07899954565943       -2.17389960633339        0.47547919309919
C           -2.25133342372663        0.24057734046044       -0.07528576565327
C           -1.28016528605089        1.22303955171615        0.08921369701936
N           -1.62106726972865        2.57475440833759       -0.03884632779213
C           -0.95427805021935        3.49304764762495       -0.82829054951723
C            0.13170180858633        3.31016531031687       -1.67336246294250
C            0.59583644229176        4.40782146980418       -2.37357470301016
C           -0.00885964588502        5.65615871218436       -2.25119144307541
C           -1.10870705721761        5.83779732858446       -1.43292315702813
C           -1.59004131705794        4.75097406819037       -0.71811548157891
C           -2.69211103987899        4.57406783376784        0.18919736057700
C           -3.65609056499094        5.43145251699293        0.69772724703213
C           -4.58205833925084        4.93005770836545        1.59407982099691
C           -4.54144531113669        3.59778716359327        1.99610539690471
C           -3.58872923737038        2.72607277130082        1.50340671554596
C           -2.67443486034894        3.21531957285166        0.58163736995485
C            0.03793548506105        0.86726158856800        0.35124678633071
C            2.82459317500377       -0.11651852761360        0.08919708518326
C            4.17240906009392       -0.45254293583063        0.29330758125283
H            7.50562531398617        1.33110025349178       -1.26524303391993
H            9.80063670808325        0.57069698373649       -0.74688416137773
H           10.15234358316683       -1.35338441475801        0.76945602920542
H            8.18957085497433       -2.50618180046393        1.76498823420171
H            3.71885320159972       -3.07445809193291        2.39357350320623
H            1.34906814917578       -2.47093331258053        2.02087550215729
H           -0.30644559761561       -2.49471039160937        0.36257506675287
H           -0.83512248385373       -2.87761050013335       -1.98451823490340
H           -1.08507416920847       -4.90182525641770       -3.36546882682981
H           -3.09231674141520       -6.29659526475184       -3.21501300014222
H           -4.93807937389840       -5.69242398129469       -1.68394404363311
H           -6.56548106159079       -4.48709760725722        0.17687163448693
H           -7.54927400120476       -2.99778319458309        1.88822764918465
H           -6.31239566760701       -1.05105935877516        2.71189207517524
H           -4.07103533723048       -0.51015026234065        1.84293496647076
H           -3.26622833307318        0.51262993708122       -0.32151879052631
H            0.59589311621023        2.34354328123435       -1.79234310270247
H            1.44491094938062        4.29221359572447       -3.02969500094528
H            0.38430320681161        6.49036910745655       -2.81227929021166
H           -1.58706896086994        6.80190639773785       -1.35147368655705
H           -3.67680817315317        6.46905095966591        0.40149222939821
H           -5.34239208360097        5.58067011164975        1.99904598835150
H           -5.26612782448650        3.23847634701544        2.71132834345790
H           -3.55031210204561        1.70194046647335        1.83989280885286
H            0.77351314837849        1.63906778243493        0.51481065228284
H            2.61020822960867        0.70282614554788       -0.57806378393780

 projected vibrational frequencies (cm⁻¹)
eigval :       -0.00    -0.00    -0.00     0.00     0.00     0.00
eigval :       13.69    17.27    18.98    23.09    24.24    28.32
eigval :       42.45    61.78    68.15    77.81    98.83   100.74
eigval :      110.85   134.16   138.21   144.12   145.31   146.47
eigval :      155.49   194.12   207.29   223.48   245.38   249.57
eigval :      254.12   267.11   270.89   272.82   282.39   309.45
eigval :      317.20   319.23   349.59   364.50   376.22   391.05
eigval :      394.93   395.45   403.59   420.11   421.59   434.51
eigval :      436.33   439.25   459.75   491.05   495.60   509.78
eigval :      513.48   516.67   518.08   526.52   537.78   538.70
eigval :      541.75   554.08   563.46   579.82   582.32   587.01
eigval :      591.37   615.83   620.73   627.78   644.11   654.45
eigval :      659.40   670.17   673.09   673.61   677.04   708.11
eigval :      708.84   710.70   748.64   752.71   754.54   765.67
eigval :      769.13   769.31   773.06   777.61   779.51   796.92
eigval :      814.03   830.66   834.73   842.61   860.55   862.37
eigval :      866.43   868.38   870.04   875.79   876.01   893.61
eigval :      896.05   897.03   897.96   900.18   901.36   905.87
eigval :      906.35   907.86   911.07   919.48   922.72   923.73
eigval :      925.00   981.23  1000.28  1011.39  1013.40  1032.66
eigval :     1065.92  1069.45  1071.41  1072.23  1073.16  1091.43
eigval :     1095.88  1107.29  1118.63  1124.00  1143.77  1148.15
eigval :     1157.58  1161.03  1165.24  1172.44  1176.10  1177.31
eigval :     1179.22  1180.09  1192.00  1202.83  1216.19  1227.23
eigval :     1228.20  1229.10  1232.21  1233.88  1241.85  1246.31
eigval :     1275.76  1290.50  1292.51  1294.66  1299.41  1318.09
eigval :     1324.71  1328.77  1346.32  1347.64  1352.20  1357.08
eigval :     1359.23  1360.59  1382.76  1401.69  1413.40  1415.04
eigval :     1417.86  1420.59  1426.08  1441.89  1447.92  1454.69
eigval :     1466.19  1468.28  1472.56  1483.70  1485.10  1499.69
eigval :     1514.01  1535.48  1553.55  1557.00  1562.31  1568.79
eigval :     1570.83  1583.81  1586.24  1586.37  1589.26  1604.36
eigval :     1609.46  3080.11  3081.65  3082.42  3082.60  3084.85
eigval :     3086.53  3087.70  3088.55  3090.78  3092.99  3093.48
eigval :     3094.13  3094.89  3095.78  3097.11  3100.04  3100.59
eigval :     3101.11  3102.37  3103.79  3104.10  3105.19  3105.96
eigval :     3107.26  3108.93  3109.54

   temp. (K)  partition function   enthalpy   heat capacity  entropy
                                   cal/mol     cal/K/mol   cal/K/mol   J/K/mol
 298.15  VIB  0.310E+16            20722.649    134.776    126.156
         ROT  0.891E+08              888.752      2.981     39.359
         INT  0.276E+24            21611.401    137.757    165.514
         TR   0.143E+29             1481.254      4.968     45.052
         TOT                       23092.6552   142.7253   210.5661   881.0086

       T/K    H(0)-H(T)+PV         H(T)/Eh          T*S/Eh         G(T)/Eh
   ------------------------------------------------------------------------
    298.15    0.368005E-01    0.582937E+00    0.100047E+00    0.482890E+00
   ------------------------------------------------------------------------

         :::::::::::::::::::::::::::::::::::::::::::::::::::::
         ::                  THERMODYNAMIC                  ::
         :::::::::::::::::::::::::::::::::::::::::::::::::::::
         :: total free energy        -118.838043439655 Eh   ::
         ::.................................................::
         :: total energy             -119.320933377781 Eh   ::
         :: zero point energy           0.546136204950 Eh   ::
         :: G(RRHO) w/o ZPVE           -0.063246266824 Eh   ::
         :: G(RRHO) contrib.            0.482889938126 Eh   ::
         :::::::::::::::::::::::::::::::::::::::::::::::::::::

           -------------------------------------------------
          | TOTAL ENERGY             -119.320933377781 Eh   |
          | TOTAL ENTHALPY           -118.737996684385 Eh   |
          | TOTAL FREE ENERGY        -118.838043439655 Eh   |
          | GRADIENT NORM               0.000051025766 Eh/α |
           -------------------------------------------------

 * finished run on 2025/09/10 at 14:07:34.022
