   * xtb version 6.7.1 (edcfbbe) compiled by 'albert@albert-system' on 2024-07-22

   ID    Z sym.   atoms
    1    8 O      1, 9
    2    6 C      2-8, 10-16, 18-31, 33-47
    3    7 N      17, 32
    4    1 H      48-73

          program call               : xtb data2507/gas/Xm-mCP/Xm-mCP_gas_S0_crest.xyz --gfn 2 --ohess vtight --parallel 40 --molden --ceasefiles --namespace data2507/gas/Xm-mCP/Xm-mCP_gas_S0_finalOpt
          :  Hamiltonian                  GFN2-xTB          :
 * total energy  :  -119.4101092 Eh     change       -0.8712817E-09 Eh
 * total energy  :  -119.4101103 Eh     change       -0.1094130E-05 Eh
 * total energy  :  -119.4101112 Eh     change       -0.8748935E-06 Eh
 * total energy  :  -119.4101133 Eh     change       -0.2140560E-05 Eh
 * total energy  :  -119.4101143 Eh     change       -0.1004337E-05 Eh
 * total energy  :  -119.4101148 Eh     change       -0.5113174E-06 Eh
 * total energy  :  -119.4101149 Eh     change       -0.8119731E-07 Eh
 * total energy  :  -119.4101155 Eh     change       -0.5532022E-06 Eh
 * total energy  :  -119.4101161 Eh     change       -0.6426256E-06 Eh
 * total energy  :  -119.4101164 Eh     change       -0.2931589E-06 Eh
 * total energy  :  -119.4101164 Eh     change       -0.2480407E-07 Eh
   *** GEOMETRY OPTIMIZATION CONVERGED AFTER 11 ITERATIONS ***

 final structure:
================
73
 xtb: 6.7.1 (edcfbbe)
O            5.03215300141942        1.23437183020792       -1.14473460537259
C            5.24518154177538        0.30424087750401       -0.38768932634751
C            6.59556843122195       -0.16786231499778       -0.04604929726195
C            7.72078645487533        0.45575516533510       -0.59249507806557
C            8.98788527624640        0.02210147375160       -0.27846966307201
C            9.15526078584603       -1.05054352259464        0.59326314406950
C            8.06207049319283       -1.68210724313258        1.14454595655175
C            6.77483830972145       -1.24522986107610        0.82888629186028
O            5.74293568877403       -1.90947819628546        1.40425191803466
C            4.47616347169517       -1.51993950148152        1.13034103218407
C            3.44267548423118       -2.22918688644355        1.74529437429486
C            2.13279864092878       -1.88446306706253        1.50687416491096
C            1.80700581929183       -0.82092807010419        0.65574255605874
C            0.40461136882629       -0.45755400796564        0.40443139452082
C           -0.56640833447984       -1.44310665191435        0.26084289255872
C           -1.88917202611075       -1.09554760932871        0.01007435595902
N           -2.85068873837105       -2.09933255071485       -0.16363055795477
C           -2.74263704600463       -3.17582341398646       -1.02370716482668
C           -1.72782677719843       -3.49931257363790       -1.91268850009824
C           -1.88473182203810       -4.63447375399709       -2.68487390494968
C           -3.02442864343818       -5.42952951016114       -2.58742873322310
C           -4.04830091849867       -5.09892063261162       -1.72261328365327
C           -3.91384499978412       -3.96242130549557       -0.93610633850021
C           -4.76352382650873       -3.32476543805101        0.03038088699894
C           -6.01535520594618       -3.62768943937450        0.54939093671216
C           -6.55326576207462       -2.79431424048368        1.50960078811349
C           -5.85142210247017       -1.68099180009186        1.96586838671162
C           -4.60439920391241       -1.36096694982805        1.46491133112227
C           -4.07057528905645       -2.17746982347964        0.47929906223453
C           -2.25216656373830        0.24257929667296       -0.09355765699999
C           -1.28681646023719        1.23186418178250        0.06160305450569
N           -1.63370551600342        2.58148046539062       -0.05957603839571
C           -0.97068832571564        3.51116672688990       -0.84124623673443
C            0.10902924033451        3.34108062020345       -1.69545640155104
C            0.56654278878058        4.44669226690895       -2.38647986882934
C           -0.03802640159416        5.69366117756174       -2.24588788982705
C           -1.13070888153638        5.86305357513858       -1.41958014797889
C           -1.60677326874193        4.76630939514090       -0.71313807438192
C           -2.70287607717100        4.57917545787287        0.19604377158659
C           -3.66358458076958        5.43353069521243        0.72020239566522
C           -4.58498788688797        4.92545349168863        1.61403931611496
C           -4.54494044447260        3.58776614716485        1.99930755720512
C           -3.59690834668695        2.72009639433144        1.49200915033197
C           -2.68557645165441        3.21676759895732        0.57242424858725
C            0.03527894569144        0.87987567647535        0.31269281057169
C            2.83708457681344       -0.12067467676242        0.05243481909823
C            4.17233770766891       -0.45608089727740        0.27427430610010
H            7.55438305815300        1.28431548706313       -1.26428096238933
H            9.85117455571555        0.50933584720354       -0.70463039814172
H           10.14869124356461       -1.39270853097081        0.84109445164319
H            8.17303521918919       -2.51456805880651        1.82146465653773
H            3.69674609900225       -3.04273762997377        2.40640816903027
H            1.34340274657684       -2.42985264551230        2.00162649098661
H           -0.29815492962137       -2.48589695057968        0.33172960565574
H           -0.84843949385800       -2.88055269660107       -2.01029607355194
H           -1.10728034709013       -4.90880841796695       -3.38257874299696
H           -3.10763935647844       -6.31047770443718       -3.20630154747038
H           -4.93903978003074       -5.70542264894925       -1.65835118931019
H           -6.55127134318768       -4.50057478220346        0.20839515277561
H           -7.52701677884260       -3.00999765117105        1.92338264603084
H           -6.28925627391485       -1.05674964008695        2.73075267869346
H           -4.05828845699391       -0.51016178697188        1.84205668192774
H           -3.27097159270412        0.50997688157794       -0.32815274563755
H            0.57286964738819        2.37596956723623       -1.83085400027975
H            1.41048665740031        4.33944575081728       -3.05132633060168
H            0.35104805408995        6.53432776798299       -2.80070242286801
H           -1.61135989453023        6.82493644798296       -1.32340427224193
H           -3.68250440568396        6.47447984449111        0.43481092940301
H           -5.34229010246475        5.57242989410822        2.03103086338352
H           -5.26752074908804        3.22089771146599        2.71330768190394
H           -3.56149223009309        1.69172775990375        1.81623831343173
H            0.76972705864992        1.65484749006779        0.46684008048659
H            2.64099695741835        0.69680995027857       -0.62517232314008

          :  Hamiltonian                  GFN2-xTB          :
         :: gradient norm              0.000155596358 Eh/a0 ::
         :: HOMO-LUMO gap              1.930726943199 eV    ::
         :: SCC energy              -121.565785664173 Eh    ::
         :: -> dispersion             -0.102769108617 Eh    ::
         :: repulsion energy           2.155669226222 Eh    ::

    * Orbital Energies and Occupations

         #    Occupation            Energy/Eh            Energy/eV
      -------------------------------------------------------------
         1        2.0000           -0.7557112             -20.5639
       ...           ...                  ...                  ...
        98        2.0000           -0.4193322             -11.4106
        99        2.0000           -0.4180029             -11.3744
       100        2.0000           -0.4166916             -11.3388
       101        2.0000           -0.4148869             -11.2896
       102        2.0000           -0.4143037             -11.2738
       103        2.0000           -0.4059367             -11.0461
       104        2.0000           -0.4034180             -10.9776
       105        2.0000           -0.3939294             -10.7194
       106        2.0000           -0.3911092             -10.6426
       107        2.0000           -0.3792936             -10.3211
       108        2.0000           -0.3766791             -10.2500
       109        2.0000           -0.3654173              -9.9435
       110        2.0000           -0.3619646              -9.8496 (HOMO)
       111                         -0.2910117              -7.9188 (LUMO)
       112                         -0.2669477              -7.2640
       113                         -0.2486697              -6.7666
       114                         -0.2455761              -6.6825
       115                         -0.2443689              -6.6496
       116                         -0.2390923              -6.5060
       117                         -0.2382810              -6.4840
       118                         -0.2225180              -6.0550
       119                         -0.2200124              -5.9868
       120                         -0.2182662              -5.9393
       121                         -0.1955838              -5.3221
       ...                                ...                  ...
       214                          0.7481122              20.3572
      -------------------------------------------------------------
                  HL-Gap            0.0709529 Eh            1.9307 eV

     #   Z          covCN         q      C6AA      α(0)
     1   8 O        0.857    -0.395    21.576     6.228
     2   6 C        2.830     0.224    23.285     7.907
     3   6 C        2.974    -0.040    28.994     8.832
     4   6 C        2.923    -0.019    28.480     8.752
     5   6 C        2.916    -0.034    28.854     8.809
     6   6 C        2.921    -0.022    28.546     8.762
     7   6 C        2.916    -0.051    29.263     8.871
     8   6 C        2.887     0.143    24.896     8.180
     9   8 O        1.711    -0.212    17.515     5.651
    10   6 C        2.886     0.142    24.915     8.183
    11   6 C        2.914    -0.052    29.284     8.874
    12   6 C        2.925    -0.027    28.685     8.783
    13   6 C        2.974     0.007    27.850     8.657
    14   6 C        2.976     0.014    27.706     8.634
    15   6 C        2.927    -0.055    29.366     8.887
    16   6 C        2.910     0.067    26.510     8.443
    17   7 N        2.803    -0.044    22.098     6.982
    18   6 C        3.075     0.046    26.881     8.501
    19   6 C        2.910    -0.051    29.268     8.871
    20   6 C        2.924    -0.033    28.826     8.805
    21   6 C        2.920    -0.040    29.006     8.832
    22   6 C        2.913    -0.033    28.813     8.802
    23   6 C        3.068    -0.017    28.351     8.731
    24   6 C        3.068    -0.017    28.355     8.731
    25   6 C        2.913    -0.032    28.809     8.801
    26   6 C        2.920    -0.040    29.006     8.832
    27   6 C        2.924    -0.033    28.820     8.804
    28   6 C        2.910    -0.050    29.236     8.866
    29   6 C        3.075     0.047    26.878     8.500
    30   6 C        2.925    -0.059    29.475     8.903
    31   6 C        2.910     0.068    26.483     8.439
    32   7 N        2.803    -0.044    22.083     6.979
    33   6 C        3.074     0.046    26.889     8.502
    34   6 C        2.910    -0.050    29.231     8.865
    35   6 C        2.924    -0.032    28.792     8.799
    36   6 C        2.920    -0.040    28.988     8.829
    37   6 C        2.913    -0.033    28.813     8.802
    38   6 C        3.068    -0.016    28.350     8.731
    39   6 C        3.068    -0.016    28.343     8.730
    40   6 C        2.913    -0.033    28.811     8.802
    41   6 C        2.920    -0.041    29.008     8.832
    42   6 C        2.924    -0.033    28.829     8.805
    43   6 C        2.910    -0.050    29.246     8.868
    44   6 C        3.073     0.046    26.886     8.502
    45   6 C        2.928    -0.054    29.349     8.884
    46   6 C        2.930    -0.025    28.630     8.775
    47   6 C        2.973    -0.041    29.015     8.836
    48   1 H        0.926     0.069     2.092     2.262
    49   1 H        0.926     0.047     2.356     2.401
    50   1 H        0.926     0.049     2.337     2.391
    51   1 H        0.926     0.056     2.249     2.345
    52   1 H        0.926     0.057     2.236     2.339
    53   1 H        0.926     0.050     2.314     2.379
    54   1 H        0.926     0.046     2.376     2.411
    55   1 H        0.926     0.027     2.631     2.536
    56   1 H        0.926     0.029     2.594     2.518
    57   1 H        0.926     0.029     2.605     2.524
    58   1 H        0.926     0.032     2.563     2.504
    59   1 H        0.926     0.031     2.565     2.505
    60   1 H        0.926     0.029     2.605     2.524
    61   1 H        0.926     0.030     2.588     2.516
    62   1 H        0.926     0.024     2.669     2.555
    63   1 H        0.926     0.052     2.300     2.371
    64   1 H        0.926     0.029     2.601     2.522
    65   1 H        0.926     0.035     2.522     2.483
    66   1 H        0.926     0.029     2.595     2.519
    67   1 H        0.926     0.031     2.570     2.507
    68   1 H        0.926     0.032     2.565     2.504
    69   1 H        0.926     0.028     2.611     2.527
    70   1 H        0.926     0.029     2.598     2.521
    71   1 H        0.926     0.024     2.673     2.557
    72   1 H        0.926     0.051     2.310     2.377
    73   1 H        0.926     0.070     2.089     2.260

molecular dipole:
                 x           y           z       tot (Debye)
 q only:        0.698      -0.854       0.707
   full:        0.823      -1.022       0.839       3.960

 projected vibrational frequencies (cm⁻¹)
eigval :       -0.00    -0.00    -0.00    -0.00     0.00     0.00
eigval :       13.55    17.27    18.79    22.71    23.73    28.63
eigval :       39.32    61.03    67.91    76.97    99.16   101.42
eigval :      114.52   134.41   136.93   139.78   146.44   147.65
eigval :      156.45   194.77   206.92   224.61   245.09   250.72
eigval :      254.50   269.87   271.75   275.47   289.29   311.14
eigval :      321.25   340.15   365.13   375.79   385.57   394.37
eigval :      396.54   412.20   421.75   423.20   426.59   435.85
eigval :      437.92   448.00   463.11   501.65   509.41   512.27
eigval :      518.42   520.29   524.97   533.52   540.73   541.31
eigval :      558.57   570.91   574.12   588.06   590.43   606.87
eigval :      613.32   620.89   634.20   645.85   657.09   663.30
eigval :      671.60   673.38   676.15   688.61   707.95   708.38
eigval :      716.23   743.09   749.79   755.95   766.07   769.65
eigval :      770.81   779.11   781.00   784.28   790.76   829.72
eigval :      841.35   847.55   861.16   867.83   869.71   876.99
eigval :      878.15   881.95   891.18   894.37   896.84   898.34
eigval :      899.56   901.02   904.90   907.57   910.00   919.83
eigval :      920.45   922.29   922.82   923.41   924.50   925.81
eigval :      929.43   986.19  1001.90  1011.96  1014.19  1034.01
eigval :     1067.16  1070.87  1073.17  1074.65  1076.77  1097.75
eigval :     1113.30  1120.03  1125.13  1135.05  1149.00  1153.29
eigval :     1164.46  1167.16  1171.46  1177.72  1179.12  1181.30
eigval :     1181.77  1195.53  1215.03  1220.25  1228.32  1232.02
eigval :     1232.61  1236.61  1237.15  1243.44  1245.35  1273.48
eigval :     1282.51  1296.49  1301.95  1303.30  1305.66  1319.03
eigval :     1333.50  1344.23  1349.49  1358.23  1358.57  1362.08
eigval :     1362.99  1391.20  1405.19  1419.76  1425.18  1427.29
eigval :     1429.96  1434.27  1448.41  1456.61  1462.79  1473.96
eigval :     1477.04  1482.09  1488.09  1488.57  1551.97  1568.40
eigval :     1571.25  1573.94  1575.63  1577.45  1589.62  1590.34
eigval :     1592.50  1597.79  1599.89  1600.60  1614.96  1616.11
eigval :     1686.69  3076.82  3077.36  3078.01  3079.41  3081.85
eigval :     3083.35  3083.87  3084.70  3088.05  3088.99  3090.68
eigval :     3090.94  3091.67  3093.40  3095.36  3096.19  3096.63
eigval :     3097.78  3098.33  3099.28  3100.78  3103.66  3103.97
eigval :     3105.56  3107.41  3108.31

   temp. (K)  partition function   enthalpy   heat capacity  entropy
                                   cal/mol     cal/K/mol   cal/K/mol   J/K/mol
 298.15  VIB  0.265E+16            20444.215    132.751    124.688
         ROT  0.896E+08              888.752      2.981     39.368
         INT  0.237E+24            21332.968    135.732    164.057
         TR   0.143E+29             1481.254      4.968     45.052
         TOT                       22814.2217   140.6997   209.1084   874.9094

       T/K    H(0)-H(T)+PV         H(T)/Eh          T*S/Eh         G(T)/Eh
   ------------------------------------------------------------------------
    298.15    0.363568E-01    0.586714E+00    0.993541E-01    0.487360E+00
   ------------------------------------------------------------------------

         :::::::::::::::::::::::::::::::::::::::::::::::::::::
         ::                  THERMODYNAMIC                  ::
         :::::::::::::::::::::::::::::::::::::::::::::::::::::
         :: total free energy        -118.922756148308 Eh   ::
         ::.................................................::
         :: total energy             -119.410116437956 Eh   ::
         :: zero point energy           0.550357643810 Eh   ::
         :: G(RRHO) w/o ZPVE           -0.062997354163 Eh   ::
         :: G(RRHO) contrib.            0.487360289648 Eh   ::
         :::::::::::::::::::::::::::::::::::::::::::::::::::::

           -------------------------------------------------
          | TOTAL ENERGY             -119.410116437956 Eh   |
          | TOTAL ENTHALPY           -118.823402017697 Eh   |
          | TOTAL FREE ENERGY        -118.922756148308 Eh   |
          | GRADIENT NORM               0.000155672267 Eh/α |
          | HOMO-LUMO GAP               1.930726926319 eV   |
           -------------------------------------------------

 * finished run on 2025/09/10 at 14:07:25.115
