   * xtb version 6.7.1 (edcfbbe) compiled by 'albert@albert-system' on 2024-07-22

   ID    Z sym.   atoms
    1    8 O      1, 9
    2    6 C      2-8, 10-16, 18-31, 33-47
    3    7 N      17, 32
    4    1 H      48-73

          program call               : xtb data2507/gas/Xm-mCP/Xm-mCP.xyz --gfn 2 --ohess vtight --parallel 40 --molden --ceasefiles --namespace data2507/gas/Xm-mCP/Xm-mCP_gas_S0_preOpt
          :  Hamiltonian                  GFN2-xTB          :
 * total energy  :  -119.3913451 Eh     change       -0.1528875E-08 Eh
 * total energy  :  -119.4049170 Eh     change       -0.1357197E-01 Eh
 * total energy  :  -119.4079756 Eh     change       -0.3058531E-02 Eh
 * total energy  :  -119.4086311 Eh     change       -0.6555564E-03 Eh
 * total energy  :  -119.4090323 Eh     change       -0.4011942E-03 Eh
 * total energy  :  -119.4091404 Eh     change       -0.1081045E-03 Eh
 * total energy  :  -119.4092111 Eh     change       -0.7071206E-04 Eh
 * total energy  :  -119.4092494 Eh     change       -0.3825369E-04 Eh
 * total energy  :  -119.4093005 Eh     change       -0.5114864E-04 Eh
 * total energy  :  -119.4093314 Eh     change       -0.3087982E-04 Eh
 * total energy  :  -119.4098143 Eh     change       -0.1342416E-05 Eh
 * total energy  :  -119.4098155 Eh     change       -0.1180285E-05 Eh
 * total energy  :  -119.4098164 Eh     change       -0.8918549E-06 Eh
 * total energy  :  -119.4098171 Eh     change       -0.6704385E-06 Eh
 * total energy  :  -119.4098176 Eh     change       -0.5475583E-06 Eh
 * total energy  :  -119.4098182 Eh     change       -0.5819239E-06 Eh
 * total energy  :  -119.4098188 Eh     change       -0.6146892E-06 Eh
 * total energy  :  -119.4098194 Eh     change       -0.6014808E-06 Eh
 * total energy  :  -119.4098194 Eh     change       -0.8605369E-08 Eh
   *** GEOMETRY OPTIMIZATION CONVERGED AFTER 44 ITERATIONS ***

 final structure:
================
73
 xtb: 6.7.1 (edcfbbe)
O            4.95581994944127        1.56055063432318        1.88762742572986
C            5.30330206070859        0.57021621512858        1.26961460226837
C            6.69939929997524        0.11345542375123        1.19325605897725
C            7.70967369134129        0.81772807274394        1.85426488202310
C            9.01822237284742        0.39848069085640        1.78919102062095
C            9.34382022467689       -0.74018513011435        1.05713843000128
C            8.36613092600549       -1.45137401670388        0.39666622720128
C            7.03741889347116       -1.02959289956500        0.46025919730340
O            6.12450084452416       -1.77324530025113       -0.21104237797827
C            4.82239788427068       -1.40639102441380       -0.17381631764616
C            3.91492275310422       -2.20295350682411       -0.87451711166012
C            2.57631957661560       -1.88789519932769       -0.87120486362914
C            2.09598279324266       -0.76953605268528       -0.17773590763417
C            0.66178713290450       -0.44529164531803       -0.18282148351452
C           -0.28705508109989       -1.45891972709498       -0.10201395758020
C           -1.64424225725660       -1.15605649807085       -0.10648235393856
N           -2.58519664307155       -2.19164365167847       -0.04983735577362
C           -2.59092773626284       -3.31226094291420       -0.85817051548465
C           -1.74987336685977       -3.64899185847396       -1.90884414224653
C           -1.99473380615046       -4.83269038148115       -2.57829312000716
C           -3.05513802273945       -5.66319474492892       -2.22302513187445
C           -3.91185298675316       -5.32012215332751       -1.19637415778175
C           -3.68594907956011       -4.13497567797704       -0.50895521866080
C           -4.36773135084392       -3.47215038878773        0.56739989534198
C           -5.48427149551340       -3.78943032148966        1.32960735875804
C           -5.87127191330757       -2.92056998322091        2.33012240597220
C           -5.15005498728743       -1.75674034587984        2.58615807432422
C           -4.03563893389215       -1.42156785109315        1.84174986523625
C           -3.65743894253329       -2.27587210658922        0.81708910907029
C           -2.06285504367225        0.16669326392528       -0.19148008506518
C           -1.11732047713194        1.18463144079106       -0.26207103775676
N           -1.53070448161618        2.51771034739967       -0.36799932158825
C           -1.09429281971218        3.42289024959073       -1.31761749021225
C           -0.20740844106417        3.24416466714851       -2.36927148932101
C            0.03472310118268        4.32210324490712       -3.19938525527952
C           -0.59309260652494        5.54949110955291       -3.00078748029879
C           -1.49519002739230        5.72611724784289       -1.97095773461968
C           -1.75475877582567        4.65735248547877       -1.12338749222050
C           -2.62639355080241        4.48243445292205        0.00465452900940
C           -3.50230551177187        5.32632607111795        0.67449966122575
C           -4.18983839326488        4.83530238359382        1.76634368502343
C           -3.99849884492326        3.52670958085638        2.20325915570932
C           -3.13109741135109        2.67012404566825        1.55329239210878
C           -2.45939779164558        3.14765071129326        0.43810752161656
C            0.23900356046932        0.87807891374195       -0.25378140092451
C            3.00254857928370        0.01860003903249        0.50950653349775
C            4.36379807747243       -0.28434342498355        0.52466735193547
H            7.42173753226581        1.69582807105477        2.41241078171032
H            9.79200302443718        0.94805071375261        2.30254144515823
H           10.37003777086652       -1.07116543219210        1.00480125364024
H            8.60009237467770       -2.33577795991329       -0.17483302269967
H            4.28787670236364       -3.06033976098703       -1.41236288614131
H            1.88795644672767       -2.50479700176903       -1.42897935921825
H            0.02366687266744       -2.48715951340388        0.00126278578853
H           -0.93906064503428       -3.00101761576949       -2.20665106030910
H           -1.35223077789023       -5.11824877060035       -3.39827925994727
H           -3.21122239970660       -6.58193313393180       -2.76845908816259
H           -4.74456435366305       -5.95438283548980       -0.93249721942025
H           -6.03239092271348       -4.70043306504318        1.14242045864438
H           -6.73851961530421       -3.14696960724507        2.93220855568201
H           -5.46595815125785       -1.10403950215019        3.38647401064907
H           -3.47062602832043       -0.52963842797534        2.06332912500513
H           -3.11545705434050        0.40057153370814       -0.23531985746887
H            0.27203944817653        2.29278869420662       -2.54450605821086
H            0.72439881470648        4.20866444118621       -4.02280833131908
H           -0.37458393050552        6.36841652098932       -3.66981323461132
H           -1.99454270390978        6.67211455417166       -1.82576150869037
H           -3.63567212984449        6.34635603638770        0.34722825718608
H           -4.87820177139670        5.47411165025823        2.29925864383646
H           -4.53594119627124        3.17495960273583        3.07150330342091
H           -2.97124816553574        1.66629178633415        1.91508550805087
H            0.96308294374076        1.67590791169755       -0.30747195050850
H            2.68209197336249        0.88102165153377        1.07461412768217

          :  Hamiltonian                  GFN2-xTB          :
         :: gradient norm              0.000097249354 Eh/a0 ::
         :: HOMO-LUMO gap              1.956139844803 eV    ::
         :: SCC energy              -121.565514864390 Eh    ::
         :: -> dispersion             -0.102554162428 Eh    ::
         :: repulsion energy           2.155695434610 Eh    ::

    * Orbital Energies and Occupations

         #    Occupation            Energy/Eh            Energy/eV
      -------------------------------------------------------------
         1        2.0000           -0.7555990             -20.5609
       ...           ...                  ...                  ...
        98        2.0000           -0.4202179             -11.4347
        99        2.0000           -0.4187041             -11.3935
       100        2.0000           -0.4175732             -11.3627
       101        2.0000           -0.4155223             -11.3069
       102        2.0000           -0.4148442             -11.2885
       103        2.0000           -0.4065458             -11.0627
       104        2.0000           -0.4042894             -11.0013
       105        2.0000           -0.3938975             -10.7185
       106        2.0000           -0.3907796             -10.6337
       107        2.0000           -0.3799226             -10.3382
       108        2.0000           -0.3776466             -10.2763
       109        2.0000           -0.3660174              -9.9598
       110        2.0000           -0.3626918              -9.8693 (HOMO)
       111                         -0.2908050              -7.9132 (LUMO)
       112                         -0.2671726              -7.2701
       113                         -0.2492373              -6.7821
       114                         -0.2456059              -6.6833
       115                         -0.2449303              -6.6649
       116                         -0.2396459              -6.5211
       117                         -0.2384386              -6.4882
       118                         -0.2231443              -6.0721
       119                         -0.2208661              -6.0101
       120                         -0.2183856              -5.9426
       121                         -0.1959926              -5.3332
       ...                                ...                  ...
       214                          0.7474159              20.3382
      -------------------------------------------------------------
                  HL-Gap            0.0718868 Eh            1.9561 eV

     #   Z          covCN         q      C6AA      α(0)
     1   8 O        0.857    -0.394    21.567     6.226
     2   6 C        2.830     0.224    23.286     7.907
     3   6 C        2.974    -0.040    28.992     8.832
     4   6 C        2.923    -0.019    28.480     8.752
     5   6 C        2.916    -0.034    28.854     8.808
     6   6 C        2.921    -0.022    28.546     8.762
     7   6 C        2.916    -0.051    29.264     8.871
     8   6 C        2.887     0.142    24.897     8.180
     9   8 O        1.711    -0.212    17.515     5.651
    10   6 C        2.886     0.142    24.915     8.183
    11   6 C        2.914    -0.052    29.289     8.875
    12   6 C        2.925    -0.027    28.683     8.783
    13   6 C        2.974     0.007    27.852     8.657
    14   6 C        2.976     0.014    27.701     8.633
    15   6 C        2.928    -0.055    29.358     8.886
    16   6 C        2.910     0.067    26.509     8.443
    17   7 N        2.803    -0.044    22.087     6.980
    18   6 C        3.076     0.046    26.881     8.500
    19   6 C        2.910    -0.051    29.267     8.871
    20   6 C        2.924    -0.034    28.836     8.806
    21   6 C        2.920    -0.041    29.009     8.832
    22   6 C        2.913    -0.032    28.807     8.801
    23   6 C        3.068    -0.016    28.344     8.730
    24   6 C        3.068    -0.017    28.354     8.731
    25   6 C        2.913    -0.032    28.807     8.801
    26   6 C        2.920    -0.040    29.001     8.831
    27   6 C        2.924    -0.033    28.812     8.803
    28   6 C        2.910    -0.050    29.231     8.865
    29   6 C        3.075     0.047    26.873     8.499
    30   6 C        2.925    -0.059    29.473     8.903
    31   6 C        2.910     0.068    26.482     8.438
    32   7 N        2.803    -0.043    22.076     6.978
    33   6 C        3.074     0.047    26.873     8.499
    34   6 C        2.910    -0.051    29.257     8.869
    35   6 C        2.924    -0.033    28.818     8.803
    36   6 C        2.920    -0.040    28.997     8.830
    37   6 C        2.913    -0.032    28.804     8.801
    38   6 C        3.068    -0.016    28.334     8.728
    39   6 C        3.068    -0.016    28.341     8.729
    40   6 C        2.913    -0.032    28.803     8.800
    41   6 C        2.920    -0.040    29.000     8.831
    42   6 C        2.924    -0.033    28.816     8.803
    43   6 C        2.910    -0.049    29.228     8.865
    44   6 C        3.074     0.047    26.871     8.499
    45   6 C        2.927    -0.054    29.337     8.883
    46   6 C        2.929    -0.025    28.631     8.775
    47   6 C        2.973    -0.041    29.008     8.835
    48   1 H        0.926     0.069     2.092     2.262
    49   1 H        0.926     0.047     2.356     2.400
    50   1 H        0.926     0.049     2.337     2.390
    51   1 H        0.926     0.056     2.249     2.345
    52   1 H        0.926     0.057     2.235     2.338
    53   1 H        0.926     0.050     2.325     2.384
    54   1 H        0.926     0.046     2.372     2.408
    55   1 H        0.926     0.024     2.672     2.556
    56   1 H        0.926     0.029     2.605     2.524
    57   1 H        0.926     0.029     2.605     2.524
    58   1 H        0.926     0.032     2.560     2.502
    59   1 H        0.926     0.032     2.564     2.504
    60   1 H        0.926     0.029     2.600     2.521
    61   1 H        0.926     0.031     2.579     2.511
    62   1 H        0.926     0.026     2.651     2.546
    63   1 H        0.926     0.051     2.302     2.372
    64   1 H        0.926     0.026     2.643     2.542
    65   1 H        0.926     0.029     2.597     2.520
    66   1 H        0.926     0.029     2.603     2.523
    67   1 H        0.926     0.032     2.558     2.501
    68   1 H        0.926     0.032     2.561     2.503
    69   1 H        0.926     0.029     2.603     2.523
    70   1 H        0.926     0.030     2.587     2.515
    71   1 H        0.926     0.025     2.665     2.553
    72   1 H        0.926     0.052     2.301     2.372
    73   1 H        0.926     0.071     2.076     2.253

molecular dipole:
                 x           y           z       tot (Debye)
 q only:        0.745      -0.902      -0.504
   full:        0.899      -1.077      -0.589       3.866

 projected vibrational frequencies (cm⁻¹)
eigval :       -0.00    -0.00    -0.00     0.00     0.00     0.00
eigval :       13.71    16.92    19.24    22.44    23.04    29.27
eigval :       39.46    61.23    67.74    78.19    98.75   100.98
eigval :      114.86   133.79   136.77   139.41   142.44   152.55
eigval :      156.30   195.21   205.20   221.64   245.86   251.03
eigval :      257.02   270.35   272.17   273.36   287.75   310.70
eigval :      321.49   343.80   362.92   375.73   385.56   394.33
eigval :      396.52   412.48   421.59   423.09   426.67   435.75
eigval :      437.69   448.33   462.94   501.56   509.31   512.18
eigval :      518.54   520.32   524.95   533.48   540.80   541.33
eigval :      559.75   569.02   574.11   588.11   589.94   606.67
eigval :      615.20   621.05   633.35   646.07   657.22   663.54
eigval :      671.69   673.39   676.17   688.59   707.97   708.42
eigval :      716.35   743.17   749.90   756.04   765.95   769.40
eigval :      770.96   778.85   780.85   783.76   790.80   829.41
eigval :      842.15   846.74   861.23   867.74   869.13   876.63
eigval :      878.15   881.91   891.88   894.37   897.70   899.20
eigval :      899.72   900.45   904.37   906.82   909.35   919.86
eigval :      920.06   921.84   922.67   923.14   924.38   924.69
eigval :      929.43   986.61  1001.90  1012.08  1014.24  1034.11
eigval :     1067.04  1070.72  1072.99  1074.55  1076.74  1097.10
eigval :     1113.16  1120.09  1125.43  1134.51  1148.90  1153.00
eigval :     1164.82  1167.15  1171.52  1177.56  1179.03  1181.61
eigval :     1181.79  1195.83  1214.79  1220.45  1228.47  1231.91
eigval :     1232.88  1236.68  1237.15  1243.93  1244.77  1273.36
eigval :     1282.58  1296.45  1302.71  1303.44  1305.56  1318.82
eigval :     1333.81  1344.14  1349.52  1358.51  1358.88  1362.27
eigval :     1363.32  1391.02  1405.22  1420.02  1425.15  1427.44
eigval :     1430.28  1434.25  1448.62  1456.97  1462.49  1473.97
eigval :     1477.16  1482.22  1488.31  1488.64  1551.87  1568.36
eigval :     1571.28  1574.01  1575.62  1577.55  1589.78  1590.50
eigval :     1592.48  1597.73  1599.95  1600.70  1615.14  1616.31
eigval :     1686.93  3075.23  3076.53  3077.88  3078.58  3081.18
eigval :     3081.88  3083.90  3084.67  3087.96  3088.00  3089.05
eigval :     3089.71  3092.12  3093.46  3095.36  3096.08  3096.45
eigval :     3097.59  3098.29  3099.35  3100.49  3103.55  3103.66
eigval :     3105.84  3107.28  3108.28

   temp. (K)  partition function   enthalpy   heat capacity  entropy
                                   cal/mol     cal/K/mol   cal/K/mol   J/K/mol
 298.15  VIB  0.265E+16            20446.352    132.769    124.713
         ROT  0.912E+08              888.752      2.981     39.404
         INT  0.242E+24            21335.104    135.750    164.117
         TR   0.143E+29             1481.254      4.968     45.052
         TOT                       22816.3583   140.7184   209.1685   875.1609

       T/K    H(0)-H(T)+PV         H(T)/Eh          T*S/Eh         G(T)/Eh
   ------------------------------------------------------------------------
    298.15    0.363602E-01    0.586691E+00    0.993827E-01    0.487308E+00
   ------------------------------------------------------------------------

         :::::::::::::::::::::::::::::::::::::::::::::::::::::
         ::                  THERMODYNAMIC                  ::
         :::::::::::::::::::::::::::::::::::::::::::::::::::::
         :: total free energy        -118.922511225122 Eh   ::
         ::.................................................::
         :: total energy             -119.409819429779 Eh   ::
         :: zero point energy           0.550330719672 Eh   ::
         :: G(RRHO) w/o ZPVE           -0.063022515015 Eh   ::
         :: G(RRHO) contrib.            0.487308204657 Eh   ::
         :::::::::::::::::::::::::::::::::::::::::::::::::::::

           -------------------------------------------------
          | TOTAL ENERGY             -119.409819429779 Eh   |
          | TOTAL ENTHALPY           -118.823128528725 Eh   |
          | TOTAL FREE ENERGY        -118.922511225122 Eh   |
          | GRADIENT NORM               0.000097231428 Eh/α |
          | HOMO-LUMO GAP               1.956140100221 eV   |
           -------------------------------------------------

 * finished run on 2025/09/10 at 14:04:02.773
