   * xtb version 6.7.1 (edcfbbe) compiled by 'albert@albert-system' on 2024-07-22

   ID    Z sym.   atoms
    1    6 C      1-9, 11-19, 21-25, 27-43, 45-52
    2    7 N      10, 20, 26, 44
    3    1 H      53-90

          program call               : xtb data2507/toluene/AcCYP/AcCYP_toluene_S0_finalOpt.xtbopt.xyz --gfn 2 --uhf 2 --gbsa toluene --ohess vtight --parallel 40 --molden --ceasefiles --namespace data2507/toluene/AcCYP/AcCYP_toluene_T1_preOpt
      * Solvation model:               GBSA
        Solvent                        toluene
        Solvent mass                       9.2140E+01 g/mol
          :  Hamiltonian                  GFN2-xTB          :
 * total energy  :  -133.8650250 Eh     change       -0.3102713E-08 Eh
 * total energy  :  -133.8685052 Eh     change       -0.3480202E-02 Eh
 * total energy  :  -133.8694516 Eh     change       -0.9463198E-03 Eh
 * total energy  :  -133.8694789 Eh     change       -0.2729980E-04 Eh
 * total energy  :  -133.8696734 Eh     change       -0.1945729E-03 Eh
 * total energy  :  -133.8697784 Eh     change       -0.1049283E-03 Eh
 * total energy  :  -133.8699417 Eh     change       -0.1633324E-03 Eh
 * total energy  :  -133.8700812 Eh     change       -0.1394925E-03 Eh
 * total energy  :  -133.8701910 Eh     change       -0.1098185E-03 Eh
 * total energy  :  -133.8702521 Eh     change       -0.6112364E-04 Eh
 * total energy  :  -133.8709232 Eh     change       -0.1425816E-05 Eh
 * total energy  :  -133.8709245 Eh     change       -0.1275560E-05 Eh
 * total energy  :  -133.8709256 Eh     change       -0.1118619E-05 Eh
 * total energy  :  -133.8709267 Eh     change       -0.1073209E-05 Eh
 * total energy  :  -133.8709277 Eh     change       -0.1018005E-05 Eh
 * total energy  :  -133.8709288 Eh     change       -0.1079537E-05 Eh
 * total energy  :  -133.8709299 Eh     change       -0.1067167E-05 Eh
 * total energy  :  -133.8709309 Eh     change       -0.1082234E-05 Eh
 * total energy  :  -133.8709309 Eh     change       -0.3447724E-08 Eh
   *** GEOMETRY OPTIMIZATION CONVERGED AFTER 122 ITERATIONS ***

 final structure:
================
90
 xtb: 6.7.1 (edcfbbe)
C            8.33473747466233        3.39182691579232       -0.34288442848375
C            8.22552187877167        1.98809850244017        0.28486728386723
C            9.55811098039982        1.60216667516236        0.95724534444989
C            7.92461171982423        0.99195921678902       -0.81417402617349
C            8.81533027998297        0.84554911644541       -1.86921447038755
C            8.57448471344224       -0.02434705754663       -2.91683299088559
C            7.39939601169103       -0.76069790743609       -2.93490059349439
C            6.49836131326594       -0.63813676310741       -1.90161743633813
C            6.75430226160446        0.21581676463983       -0.81789783319915
N            5.84244059719373        0.29732541051139        0.21576572815758
C            4.68572462938514       -0.52716828572159        0.18444906215659
C            4.79450141115437       -1.90371913439499        0.39535817587389
C            3.67991202670392       -2.70515715448124        0.36433683366856
C            2.39806068243931       -2.16803086962866        0.11711810270710
C            1.20693623789613       -2.96000686518032        0.07679228008993
C            1.18880314381012       -4.39196879211265        0.10440101571485
C           -0.00022998235084       -5.04732030459362        0.07693927967231
C           -1.22880342480109       -4.33014539689764        0.01978967975844
C           -2.42148644193346       -5.02177826012062        0.07798740054182
N           -3.39097260538250       -5.65863739460424        0.15442713974323
C           -1.12455113322583       -2.89840120866047       -0.04072222244771
C           -2.28847293863085       -2.02158001388735       -0.13415968225485
C           -2.22039612799635       -0.74306167890885        0.43437780788416
C           -3.29906770621076        0.11097078751502        0.39279466094033
C           -4.47765408857084       -0.28936881138564       -0.23390606048915
N           -5.60444223693506        0.58118989672020       -0.25690779151700
C           -6.65917664573961        0.33217131313015        0.59979989375966
C           -6.59691385903672       -0.75999621847851        1.47724676163523
C           -7.63752431948492       -1.03812259068551        2.33500840765177
C           -8.76137156268907       -0.22623056973233        2.34240900308979
C           -8.81822430238943        0.86413690575843        1.49386726519788
C           -7.78557976797901        1.16939508928182        0.61731420827758
C           -7.89599485414722        2.39001921657934       -0.27208826559051
C           -8.03418229139945        3.63809035271376        0.62188936996457
C           -9.14001080504652        2.23900732308066       -1.16970909675028
C           -6.67973825310070        2.55600165036802       -1.15843771368371
C           -6.61542970872962        3.62390680145471       -2.04357913057091
C           -5.53867979406054        3.80958566825080       -2.89118844483483
C           -4.49210472403461        2.90030639461479       -2.87372202409933
C           -4.52686842292563        1.83239848497790       -2.00519231999831
C           -5.60595065237161        1.65296602256148       -1.12781145931802
C           -4.54915712750461       -1.54366871916839       -0.83229852336668
C           -3.46788313921942       -2.39899193554651       -0.78238759583476
N            0.03940912984426       -2.30231504687621        0.00002240065953
C            2.31283304637014       -0.77096116301332       -0.08781171260188
C            3.42381011266141        0.02912605047094       -0.05633200468089
C            6.02484723736466        1.15821806839882        1.27994743243545
C            5.09213620037542        1.17060093888274        2.32836203508485
C            5.23326904240167        2.03370111144154        3.39128520093985
C            6.31638739214796        2.89851002892681        3.43901621250072
C            7.25698742536058        2.86645146874620        2.42583118186918
C            7.14256598958307        2.00607453601159        1.34203463051751
H            7.39099548656162        3.66365254179661       -0.81219334618777
H            8.56949651704814        4.13478396002670        0.41343324428702
H            9.11404380463190        3.41659698189156       -1.09868520378495
H            9.47766857280135        0.61087122458440        1.39977921205217
H            9.81293164220015        2.30855898701033        1.74169093588525
H           10.36670857301328        1.59075571707255        0.23251875008364
H            9.72440448841829        1.42629751538423       -1.88073056068520
H            9.29056170429782       -0.11759708171175       -3.71896882973720
H            7.18317955636969       -1.42751338609909       -3.75597191610580
H            5.57880223405886       -1.20084900820545       -1.92526989743088
H            5.76727116988643       -2.33066799805817        0.59573410479722
H            3.79570388336290       -3.76136545914514        0.55206029900458
H            2.11385109348405       -4.94440617275372        0.14445782908331
H           -0.04147398764460       -6.12949035913174        0.10025289679538
H           -1.30482549937668       -0.44850626091463        0.92386282793070
H           -3.24493766540480        1.08818829473720        0.85002346866910
H           -5.72189878816089       -1.39072844859011        1.48137651405068
H           -7.56961935925140       -1.88764976329493        2.99775090880050
H           -9.58311020153405       -0.43728155283713        3.00945031010450
H           -9.69501062154887        1.49210527306151        1.52057874979918
H           -8.90836380711296        3.55904757891305        1.26123053571230
H           -7.15391375321130        3.74177184296644        1.25365154213241
H           -8.13260715909131        4.53540881516768        0.01827898674416
H           -9.04064527301435        1.35409915613426       -1.79578424990228
H          -10.03873364958265        2.13578041629233       -0.56904723651063
H           -9.25812373436379        3.10475740385045       -1.81449105988095
H           -7.42732334175209        4.33342875011893       -2.07866784890818
H           -5.51981148810023        4.65195573253622       -3.56560485618172
H           -3.65045885347447        3.02084287365809       -3.53894134386523
H           -3.71642503372799        1.12079048912437       -2.00025369812580
H           -5.45703338804301       -1.84473301335116       -1.33438049772828
H           -3.53468416373686       -3.36382948250984       -1.26100198096558
H            1.33846150287547       -0.35311631596783       -0.28828090476404
H            3.34099241383332        1.09290160954439       -0.22858572146850
H            4.25694162068916        0.48920651175150        2.30091776141084
H            4.50126902904141        2.02852484441996        4.18477829196159
H            6.43371521051132        3.58327235003901        4.26493164204099
H            8.10432691967784        3.53119985892243        2.48830961232374

          :  Hamiltonian                  GFN2-xTB          :
         :: gradient norm              0.000070305445 Eh/a0 ::
         :: HOMO-LUMO gap              0.438637757946 eV    ::
         :: SCC energy              -136.320896525376 Eh    ::
         :: -> dispersion             -0.124934921234 Eh    ::
         :: -> Gsolv                  -0.067372463411 Eh    ::
         :: repulsion energy           2.449965579109 Eh    ::

    * Orbital Energies and Occupations

         #    Occupation            Energy/Eh            Energy/eV
      -------------------------------------------------------------
         1        2.0000           -0.6809836             -18.5305
       ...           ...                  ...                  ...
       114        2.0000           -0.4122338             -11.2175
       115        2.0000           -0.4108102             -11.1787
       116        2.0000           -0.4087654             -11.1231
       117        2.0000           -0.4047998             -11.0152
       118        2.0000           -0.4041693             -10.9980
       119        2.0000           -0.4033258             -10.9751
       120        2.0000           -0.3993993             -10.8682
       121        2.0000           -0.3971254             -10.8063
       122        2.0000           -0.3714223             -10.1069
       123        1.9181           -0.3606494              -9.8138
       124        1.6961           -0.3591412              -9.7727
       125        1.3859           -0.3579125              -9.7393
       126        0.9998           -0.2727042              -7.4207 (HOMO)
       127        0.0002           -0.2565843              -6.9820 (LUMO)
       128                         -0.2391891              -6.5087
       129                         -0.2374285              -6.4608
       130                         -0.2317662              -6.3067
       131                         -0.2312575              -6.2928
       132                         -0.2306443              -6.2762
       133                         -0.2297064              -6.2506
       134                         -0.2277542              -6.1975
       135                         -0.2186046              -5.9485
       136                         -0.2154265              -5.8621
       137                         -0.2051173              -5.5815
       ...                                ...                  ...
       246                          1.1699513              31.8360
      -------------------------------------------------------------
                  HL-Gap            0.0161198 Eh            0.4386 eV

     #   Z          covCN         q      C6AA      α(0)
     1   6 C        3.761    -0.107    22.589     6.775
     2   6 C        3.909     0.024    20.117     6.375
     3   6 C        3.761    -0.107    22.584     6.775
     4   6 C        2.978    -0.003    28.098     8.695
     5   6 C        2.925    -0.034    28.843     8.807
     6   6 C        2.917    -0.034    28.836     8.806
     7   6 C        2.918    -0.029    28.725     8.789
     8   6 C        2.923    -0.048    29.200     8.862
     9   6 C        2.929     0.061    26.635     8.464
    10   7 N        2.753    -0.022    21.666     6.913
    11   6 C        2.928     0.036    27.193     8.552
    12   6 C        2.915    -0.042    29.035     8.836
    13   6 C        2.920    -0.046    29.151     8.854
    14   6 C        2.975    -0.007    28.196     8.710
    15   6 C        2.932     0.061    26.633     8.464
    16   6 C        2.909    -0.060    29.494     8.905
    17   6 C        2.924    -0.024    28.602     8.770
    18   6 C        2.962    -0.051    29.256     8.872
    19   6 C        1.908     0.095    28.735     8.657
    20   7 N        0.911    -0.385    29.934     7.913
    21   6 C        2.932     0.087    26.060     8.372
    22   6 C        2.981     0.001    27.997     8.679
    23   6 C        2.926    -0.031    28.770     8.796
    24   6 C        2.917    -0.040    28.983     8.828
    25   6 C        2.929     0.054    26.788     8.488
    26   7 N        2.754    -0.030    21.820     6.938
    27   6 C        2.929     0.061    26.637     8.464
    28   6 C        2.923    -0.049    29.224     8.865
    29   6 C        2.918    -0.029    28.716     8.787
    30   6 C        2.917    -0.034    28.855     8.809
    31   6 C        2.926    -0.034    28.843     8.807
    32   6 C        2.978    -0.004    28.113     8.697
    33   6 C        3.909     0.024    20.121     6.376
    34   6 C        3.761    -0.107    22.594     6.776
    35   6 C        3.761    -0.107    22.591     6.776
    36   6 C        2.978    -0.004    28.112     8.697
    37   6 C        2.926    -0.034    28.839     8.807
    38   6 C        2.917    -0.035    28.861     8.810
    39   6 C        2.918    -0.029    28.723     8.789
    40   6 C        2.923    -0.050    29.240     8.868
    41   6 C        2.929     0.061    26.641     8.465
    42   6 C        2.918    -0.038    28.936     8.821
    43   6 C        2.922    -0.034    28.840     8.807
    44   7 N        1.858    -0.245    27.249     7.737
    45   6 C        2.924    -0.040    28.994     8.830
    46   6 C        2.914    -0.042    29.041     8.837
    47   6 C        2.929     0.061    26.635     8.464
    48   6 C        2.923    -0.048    29.199     8.861
    49   6 C        2.918    -0.029    28.722     8.788
    50   6 C        2.917    -0.033    28.833     8.805
    51   6 C        2.925    -0.034    28.842     8.807
    52   6 C        2.978    -0.003    28.098     8.695
    53   1 H        0.925     0.036     2.502     2.474
    54   1 H        0.925     0.050     2.315     2.379
    55   1 H        0.925     0.050     2.321     2.382
    56   1 H        0.925     0.035     2.513     2.479
    57   1 H        0.925     0.050     2.320     2.382
    58   1 H        0.925     0.050     2.319     2.381
    59   1 H        0.926     0.047     2.355     2.400
    60   1 H        0.926     0.041     2.440     2.443
    61   1 H        0.926     0.039     2.468     2.457
    62   1 H        0.926     0.041     2.437     2.441
    63   1 H        0.926     0.031     2.575     2.509
    64   1 H        0.926     0.025     2.660     2.551
    65   1 H        0.926     0.018     2.765     2.600
    66   1 H        0.925     0.006     2.957     2.689
    67   1 H        0.926     0.051     2.311     2.377
    68   1 H        0.926     0.047     2.362     2.403
    69   1 H        0.926     0.035     2.522     2.483
    70   1 H        0.926     0.037     2.485     2.465
    71   1 H        0.926     0.041     2.441     2.443
    72   1 H        0.926     0.048     2.347     2.396
    73   1 H        0.925     0.050     2.323     2.383
    74   1 H        0.925     0.036     2.503     2.474
    75   1 H        0.925     0.050     2.314     2.379
    76   1 H        0.925     0.035     2.516     2.481
    77   1 H        0.925     0.050     2.322     2.383
    78   1 H        0.925     0.050     2.317     2.381
    79   1 H        0.926     0.047     2.355     2.400
    80   1 H        0.926     0.041     2.438     2.442
    81   1 H        0.926     0.039     2.458     2.452
    82   1 H        0.926     0.038     2.481     2.463
    83   1 H        0.926     0.041     2.432     2.439
    84   1 H        0.926     0.033     2.548     2.496
    85   1 H        0.926     0.044     2.398     2.422
    86   1 H        0.926     0.034     2.528     2.487
    87   1 H        0.926     0.042     2.425     2.435
    88   1 H        0.926     0.039     2.457     2.451
    89   1 H        0.926     0.041     2.436     2.441
    90   1 H        0.926     0.047     2.355     2.400

molecular dipole:
                 x           y           z       tot (Debye)
 q only:        1.820       6.139      -0.103
   full:        2.173       5.659      -0.119      15.412

 projected vibrational frequencies (cm⁻¹)
eigval :       -0.00    -0.00    -0.00     0.00     0.00     0.00
eigval :        5.33     8.61    10.89    18.37    20.16    21.87
eigval :       31.66    43.25    48.32    56.91    57.42    65.92
eigval :       81.76    95.21    97.55    98.90   102.80   107.93
eigval :      112.55   125.51   131.34   131.81   135.08   171.12
eigval :      177.73   192.32   197.25   201.02   203.65   214.28
eigval :      217.81   228.65   233.75   235.03   287.83   298.48
eigval :      300.93   302.28   311.62   326.37   327.07   336.42
eigval :      338.70   345.27   355.97   372.99   376.57   377.55
eigval :      378.65   381.83   387.31   395.34   405.21   410.44
eigval :      412.14   415.69   443.92   450.01   450.75   455.47
eigval :      470.72   491.67   504.50   506.19   511.60   519.03
eigval :      530.18   542.70   543.62   546.42   556.72   570.39
eigval :      571.93   578.45   582.90   588.87   595.52   602.02
eigval :      609.96   613.82   645.17   654.51   658.80   671.88
eigval :      683.55   687.77   687.92   695.50   700.97   701.99
eigval :      705.45   737.33   746.61   759.87   771.50   774.22
eigval :      774.82   777.14   792.39   810.87   825.22   826.24
eigval :      831.35   841.16   860.76   870.83   871.12   871.52
eigval :      872.59   883.40   895.25   906.15   908.53   910.96
eigval :      912.91   913.97   914.20   915.04   915.28   916.21
eigval :      916.64   919.60   922.45   923.17   924.93   927.61
eigval :      935.87   936.73   956.92   957.60   982.79   997.09
eigval :     1012.16  1012.25  1030.23  1055.04  1073.49  1074.02
eigval :     1082.65  1084.08  1105.27  1107.22  1112.20  1112.33
eigval :     1121.94  1127.54  1137.34  1137.67  1138.43  1147.33
eigval :     1148.99  1150.31  1167.77  1168.14  1181.30  1182.91
eigval :     1183.75  1184.80  1185.68  1199.12  1206.07  1210.82
eigval :     1231.32  1237.10  1239.17  1241.04  1243.33  1253.91
eigval :     1255.90  1259.45  1261.10  1268.96  1292.52  1292.77
eigval :     1296.26  1302.47  1306.76  1309.42  1315.62  1324.90
eigval :     1326.83  1327.35  1330.94  1333.15  1333.60  1357.96
eigval :     1396.68  1397.06  1397.41  1400.69  1415.43  1415.70
eigval :     1416.23  1420.39  1423.45  1427.15  1428.51  1433.81
eigval :     1453.59  1456.03  1458.30  1470.61  1474.71  1478.82
eigval :     1480.75  1481.76  1482.27  1483.12  1486.37  1491.91
eigval :     1492.59  1495.66  1497.71  1527.49  1540.69  1551.56
eigval :     1554.22  1560.38  1564.65  1567.26  1577.00  1578.25
eigval :     1585.74  1587.49  1593.35  2246.24  3024.74  3026.03
eigval :     3027.83  3028.01  3038.11  3046.45  3047.28  3048.32
eigval :     3048.96  3053.54  3054.25  3057.08  3057.60  3068.97
eigval :     3072.66  3079.78  3082.32  3082.47  3082.77  3083.06
eigval :     3083.37  3086.47  3089.45  3089.70  3089.72  3090.14
eigval :     3093.21  3097.57  3098.87  3099.16  3099.53  3099.74
eigval :     3100.32  3103.00  3107.30  3107.87  3109.27  3110.78

   temp. (K)  partition function   enthalpy   heat capacity  entropy
                                   cal/mol     cal/K/mol   cal/K/mol   J/K/mol
 298.15  VIB  0.181E+22            26417.813    164.645    165.732
         ROT  0.151E+09              888.752      2.981     40.403
         INT  0.273E+30            27306.566    167.626    206.136
         TR   0.168E+29             1481.254      4.968     45.371
         TOT                       28787.8197   172.5941   251.5068  1052.3044

       T/K    H(0)-H(T)+PV         H(T)/Eh          T*S/Eh         G(T)/Eh
   ------------------------------------------------------------------------
    298.15    0.458763E-01    0.751665E+00    0.119499E+00    0.632166E+00
   ------------------------------------------------------------------------

         :::::::::::::::::::::::::::::::::::::::::::::::::::::
         ::                  THERMODYNAMIC                  ::
         :::::::::::::::::::::::::::::::::::::::::::::::::::::
         :: total free energy        -133.238764628641 Eh   ::
         ::.................................................::
         :: total energy             -133.870930947652 Eh   ::
         :: zero point energy           0.705789003262 Eh   ::
         :: G(RRHO) w/o ZPVE           -0.073622684251 Eh   ::
         :: G(RRHO) contrib.            0.632166319011 Eh   ::
         :::::::::::::::::::::::::::::::::::::::::::::::::::::

           -------------------------------------------------
          | TOTAL ENERGY             -133.870930947652 Eh   |
          | TOTAL ENTHALPY           -133.119265633503 Eh   |
          | TOTAL FREE ENERGY        -133.238764628641 Eh   |
          | GRADIENT NORM               0.000069731133 Eh/α |
          | HOMO-LUMO GAP               0.438643239213 eV   |
           -------------------------------------------------

 * finished run on 2025/07/18 at 07:41:35.821
