   * xtb version 6.7.1 (edcfbbe) compiled by 'albert@albert-system' on 2024-07-22

   ID    Z sym.   atoms
    1    6 C      1-9, 11-19, 21-25, 27-43, 45-52
    2    7 N      10, 20, 26, 44
    3    1 H      53-90

          program call               : xtb data2507/toluene/AcCYP/AcCYP_toluene_T1_crest.xyz --gfn 2 --uhf 2 --gbsa toluene --ohess vtight --parallel 40 --molden --ceasefiles --namespace data2507/toluene/AcCYP/AcCYP_toluene_T1_finalOpt
      * Solvation model:               GBSA
        Solvent                        toluene
        Solvent mass                       9.2140E+01 g/mol
          :  Hamiltonian                  GFN2-xTB          :
 * total energy  :  -133.8709883 Eh     change       -0.9570982E-08 Eh
 * total energy  :  -133.8711098 Eh     change       -0.1215147E-03 Eh
 * total energy  :  -133.8710426 Eh     change        0.6720897E-04 Eh
 * total energy  :  -133.8711693 Eh     change       -0.1267152E-03 Eh
 * total energy  :  -133.8711768 Eh     change       -0.7448464E-05 Eh
 * total energy  :  -133.8711848 Eh     change       -0.8048495E-05 Eh
 * total energy  :  -133.8711914 Eh     change       -0.6548602E-05 Eh
 * total energy  :  -133.8711999 Eh     change       -0.8512193E-05 Eh
 * total energy  :  -133.8712055 Eh     change       -0.5596500E-05 Eh
 * total energy  :  -133.8712096 Eh     change       -0.4130911E-05 Eh
 * total energy  :  -133.8712531 Eh     change       -0.2193489E-06 Eh
 * total energy  :  -133.8712527 Eh     change        0.4343423E-06 Eh
 * total energy  :  -133.8712536 Eh     change       -0.9402445E-06 Eh
 * total energy  :  -133.8712538 Eh     change       -0.1364680E-06 Eh
 * total energy  :  -133.8712536 Eh     change        0.1801294E-06 Eh
 * total energy  :  -133.8712532 Eh     change        0.4001473E-06 Eh
 * total energy  :  -133.8712538 Eh     change       -0.6109100E-06 Eh
 * total energy  :  -133.8712538 Eh     change        0.2182011E-07 Eh
 * total energy  :  -133.8712538 Eh     change       -0.1390791E-07 Eh
   *** GEOMETRY OPTIMIZATION CONVERGED AFTER 52 ITERATIONS ***

 final structure:
================
90
 xtb: 6.7.1 (edcfbbe)
C            8.26950195197861        3.26118857234118        1.22222411525725
C            8.23137518540189        1.87643244409964        0.54594536007179
C            9.65242336913843        1.45161550057333        0.12544647980242
C            7.36787525361149        1.96128503862960       -0.69437782218603
C            7.71160793290664        2.84287792541946       -1.71056676713085
C            6.97551659065471        2.93947666819258       -2.87725441107626
C            5.86894657801554        2.12266692349538       -3.05528485557279
C            5.50361272110025        1.23872054003439       -2.06541729893418
C            6.22983468715969        1.15712446239966       -0.86758984388141
N            5.82851154766601        0.27178009865642        0.11263840138767
C            4.67073038878010       -0.52307640340631       -0.10552342973902
C            4.79619191704209       -1.88506309046443       -0.38707033633343
C            3.68243288445840       -2.65809799509534       -0.60630672318147
C            2.38450688278528       -2.10723896024049       -0.54249585206916
C            1.19174164334199       -2.87018460560318       -0.74829602669849
C            1.17052465092858       -4.24534512900645       -1.14901820042138
C           -0.02086457557040       -4.87115703984541       -1.32909804926217
C           -1.24939213718672       -4.17934852740380       -1.13133180916316
C           -2.43829798666952       -4.87606942248028       -1.20929568597354
N           -3.40319870444885       -5.52020506463989       -1.28046158805413
C           -1.14433575711323       -2.79389619940499       -0.76577949659548
C           -2.30662846579043       -1.93463138878462       -0.55886484037762
C           -2.21009203839450       -0.86066564275520        0.33542326234324
C           -3.27848928097057       -0.02066952651007        0.55475958655388
C           -4.47568598456288       -0.22959601393332       -0.12635116108159
N           -5.58862911822239        0.63028922919534        0.10512738488996
C           -6.58901392114922        0.21228609232015        0.95956557324723
C           -6.48349655947630       -1.03648754192609        1.58853213229718
C           -7.46756390465818       -1.48265830271573        2.44196171714850
C           -8.57716340644732       -0.68908300097395        2.69017704818139
C           -8.67871167550344        0.54887523348343        2.08214215464280
C           -7.70325854472950        1.02598409349720        1.21686778926030
C           -7.86137479081380        2.39547344982960        0.58981585311294
C           -7.93461711438779        3.44708303670237        1.71444228227662
C           -9.16060165137429        2.41278421517040       -0.23954076202982
C           -6.70172930912419        2.73808536536497       -0.32176177295640
C           -6.68413877273795        3.95871397560758       -0.98323489997037
C           -5.65640002077701        4.31464001909469       -1.83744176730600
C           -4.61135815684167        3.42960129747741       -2.05428079405029
C           -4.60082890706423        2.21175042518531       -1.41183281958898
C           -5.63288194971816        1.85347635747205       -0.53283635717042
C           -4.58088338076201       -1.27888417629300       -1.03357370640581
C           -3.50931190832793       -2.12148311094651       -1.24640967692981
N            0.02285068198172       -2.23364138743462       -0.57748632863585
C            2.28388280674657       -0.72652389219397       -0.25103608979531
C            3.39403991583568        0.04724026749333       -0.04153564106406
C            6.52450272428841        0.13195783670725        1.29649625092153
C            6.04325061000429       -0.74336993753308        2.28190199817936
C            6.72476766541318       -0.92050644685888        3.46456681463936
C            7.89887620217849       -0.21953354006559        3.69605545153102
C            8.36106097131281        0.66761241426626        2.74126519567660
C            7.69463680304973        0.86891695499120        1.53987449952562
H            7.26362498060572        3.56218789502477        1.50923733097749
H            8.88878760909566        3.23840370060927        2.11389912313294
H            8.67287942195476        4.00908507705798        0.54620752686130
H           10.30912009123189        1.39641870328016        0.98855564505344
H           10.07439150801875        2.16130845333762       -0.57995383681069
H            9.62261813561075        0.47198086937372       -0.34822521749659
H            8.57967415794828        3.47292969871459       -1.59529232199358
H            7.26897264551659        3.63755496739419       -3.64637468000050
H            5.29340983247757        2.17103560619137       -3.96736683436620
H            4.65072957996026        0.59519300758881       -2.21159275654515
H            5.78305598649248       -2.32321761131867       -0.44067117432597
H            3.81503864982953       -3.70554340015327       -0.82866272053358
H            2.09403904539515       -4.77196727521936       -1.32805258173735
H           -0.06381657717712       -5.91127671234781       -1.62840968208511
H           -1.27872776011843       -0.71205231380439        0.85974585140117
H           -3.20052849911573        0.79779127018490        1.25541920394703
H           -5.61991362764728       -1.65490373949841        1.40012974220551
H           -7.36740433356418       -2.44894424396403        2.91294177409142
H           -9.35497732195789       -1.03068264957478        3.35588317042487
H           -9.54542469693707        1.15604144651071        2.29206909587580
H           -8.06808868386693        4.44298447692121        1.30261831604497
H           -8.76518398080977        3.23973726150632        2.38247275885254
H           -7.01392307678365        3.43416147228928        2.29488680699047
H           -9.31456748150360        3.38649547099702       -0.69502090586618
H           -9.10614019298752        1.66708587351494       -1.03068610315429
H          -10.01991495448858        2.18834704501353        0.38525845892083
H           -7.49392631689081        4.65544280649841       -0.83291452914256
H           -5.67323829940181        5.27252114448732       -2.33441716618405
H           -3.80593158127267        3.68674832050147       -2.72549200529291
H           -3.79129056607175        1.52078863729340       -1.58700417321909
H           -5.50602144714517       -1.42993026283910       -1.57045748055918
H           -3.60090222086497       -2.92279094597426       -1.96325058593212
H            1.29481837373562       -0.29831520699960       -0.19811379075193
H            3.29770784994621        1.09988564875935        0.18370806942741
H            5.12386764112687       -1.27989071899351        2.10885879638464
H            6.33823134338319       -1.60182305706910        4.20746646182705
H            8.44365979413303       -0.35498300202446        4.61785029012751
H            9.26669844788814        1.21747484286214        2.94463803404027

          :  Hamiltonian                  GFN2-xTB          :
         :: gradient norm              0.000130485360 Eh/a0 ::
         :: HOMO-LUMO gap              0.437196601291 eV    ::
         :: SCC energy              -136.321792202599 Eh    ::
         :: -> dispersion             -0.124869815181 Eh    ::
         :: -> Gsolv                  -0.067299041394 Eh    ::
         :: repulsion energy           2.450538400921 Eh    ::

    * Orbital Energies and Occupations

         #    Occupation            Energy/Eh            Energy/eV
      -------------------------------------------------------------
         1        2.0000           -0.6809343             -18.5292
       ...           ...                  ...                  ...
       114        2.0000           -0.4126203             -11.2280
       115        2.0000           -0.4108120             -11.1788
       116        2.0000           -0.4089121             -11.1271
       117        2.0000           -0.4048457             -11.0164
       118        2.0000           -0.4045955             -11.0096
       119        2.0000           -0.4033321             -10.9752
       120        2.0000           -0.3993185             -10.8660
       121        2.0000           -0.3973585             -10.8127
       122        2.0000           -0.3709584             -10.0943
       123        1.9669           -0.3615976              -9.8396
       124        1.6323           -0.3589058              -9.7663
       125        1.4008           -0.3580089              -9.7419
       126        0.9998           -0.2731324              -7.4323 (HOMO)
       127        0.0002           -0.2570658              -6.9951 (LUMO)
       128                         -0.2391060              -6.5064
       129                         -0.2373770              -6.4594
       130                         -0.2317342              -6.3058
       131                         -0.2312262              -6.2920
       132                         -0.2306340              -6.2759
       133                         -0.2296752              -6.2498
       134                         -0.2278634              -6.2005
       135                         -0.2187900              -5.9536
       136                         -0.2150545              -5.8519
       137                         -0.2041139              -5.5542
       ...                                ...                  ...
       246                          1.1701697              31.8419
      -------------------------------------------------------------
                  HL-Gap            0.0160666 Eh            0.4372 eV

     #   Z          covCN         q      C6AA      α(0)
     1   6 C        3.761    -0.107    22.590     6.775
     2   6 C        3.909     0.024    20.117     6.375
     3   6 C        3.761    -0.107    22.582     6.774
     4   6 C        2.978    -0.003    28.100     8.695
     5   6 C        2.925    -0.034    28.842     8.807
     6   6 C        2.917    -0.033    28.834     8.805
     7   6 C        2.918    -0.029    28.722     8.788
     8   6 C        2.923    -0.048    29.200     8.862
     9   6 C        2.929     0.061    26.632     8.463
    10   7 N        2.754    -0.022    21.674     6.914
    11   6 C        2.928     0.036    27.188     8.551
    12   6 C        2.915    -0.042    29.034     8.836
    13   6 C        2.920    -0.046    29.147     8.853
    14   6 C        2.975    -0.007    28.201     8.711
    15   6 C        2.931     0.061    26.631     8.463
    16   6 C        2.908    -0.060    29.502     8.906
    17   6 C        2.924    -0.024    28.600     8.770
    18   6 C        2.962    -0.051    29.265     8.873
    19   6 C        1.908     0.095    28.730     8.656
    20   7 N        0.911    -0.385    29.938     7.913
    21   6 C        2.931     0.087    26.062     8.372
    22   6 C        2.981     0.001    28.003     8.680
    23   6 C        2.926    -0.031    28.772     8.796
    24   6 C        2.917    -0.039    28.982     8.828
    25   6 C        2.929     0.054    26.786     8.488
    26   7 N        2.754    -0.030    21.833     6.940
    27   6 C        2.929     0.061    26.633     8.463
    28   6 C        2.923    -0.049    29.224     8.865
    29   6 C        2.918    -0.029    28.716     8.787
    30   6 C        2.917    -0.034    28.857     8.809
    31   6 C        2.926    -0.034    28.842     8.807
    32   6 C        2.978    -0.004    28.116     8.698
    33   6 C        3.909     0.024    20.121     6.376
    34   6 C        3.761    -0.107    22.594     6.776
    35   6 C        3.761    -0.107    22.589     6.775
    36   6 C        2.978    -0.004    28.115     8.698
    37   6 C        2.926    -0.034    28.839     8.807
    38   6 C        2.917    -0.035    28.864     8.810
    39   6 C        2.918    -0.029    28.723     8.789
    40   6 C        2.923    -0.050    29.241     8.868
    41   6 C        2.929     0.061    26.636     8.464
    42   6 C        2.918    -0.038    28.937     8.821
    43   6 C        2.922    -0.034    28.842     8.807
    44   7 N        1.858    -0.243    27.185     7.728
    45   6 C        2.925    -0.040    28.993     8.830
    46   6 C        2.914    -0.042    29.041     8.837
    47   6 C        2.929     0.061    26.633     8.463
    48   6 C        2.923    -0.048    29.197     8.861
    49   6 C        2.918    -0.029    28.724     8.789
    50   6 C        2.917    -0.034    28.836     8.806
    51   6 C        2.925    -0.034    28.842     8.807
    52   6 C        2.978    -0.003    28.100     8.695
    53   1 H        0.925     0.036     2.501     2.473
    54   1 H        0.925     0.050     2.320     2.382
    55   1 H        0.925     0.050     2.316     2.380
    56   1 H        0.925     0.050     2.319     2.381
    57   1 H        0.925     0.050     2.321     2.382
    58   1 H        0.925     0.035     2.514     2.480
    59   1 H        0.926     0.047     2.355     2.400
    60   1 H        0.926     0.041     2.437     2.441
    61   1 H        0.926     0.039     2.461     2.453
    62   1 H        0.926     0.041     2.432     2.439
    63   1 H        0.926     0.031     2.578     2.511
    64   1 H        0.926     0.025     2.655     2.548
    65   1 H        0.926     0.018     2.762     2.599
    66   1 H        0.925     0.007     2.947     2.684
    67   1 H        0.926     0.051     2.311     2.377
    68   1 H        0.926     0.046     2.366     2.405
    69   1 H        0.926     0.034     2.525     2.485
    70   1 H        0.926     0.037     2.484     2.465
    71   1 H        0.926     0.041     2.442     2.444
    72   1 H        0.926     0.048     2.350     2.397
    73   1 H        0.925     0.050     2.315     2.379
    74   1 H        0.925     0.050     2.322     2.383
    75   1 H        0.925     0.036     2.503     2.474
    76   1 H        0.925     0.050     2.318     2.381
    77   1 H        0.925     0.035     2.518     2.481
    78   1 H        0.925     0.050     2.322     2.383
    79   1 H        0.926     0.047     2.356     2.400
    80   1 H        0.926     0.041     2.440     2.442
    81   1 H        0.926     0.039     2.460     2.453
    82   1 H        0.926     0.037     2.490     2.467
    83   1 H        0.926     0.041     2.436     2.441
    84   1 H        0.926     0.033     2.541     2.493
    85   1 H        0.926     0.044     2.393     2.419
    86   1 H        0.926     0.034     2.526     2.485
    87   1 H        0.926     0.041     2.439     2.442
    88   1 H        0.926     0.039     2.466     2.456
    89   1 H        0.926     0.041     2.440     2.443
    90   1 H        0.926     0.047     2.356     2.400

molecular dipole:
                 x           y           z       tot (Debye)
 q only:        1.868       5.957       1.467
   full:        2.218       5.512       1.299      15.458

 projected vibrational frequencies (cm⁻¹)
eigval :       -0.00    -0.00     0.00     0.00     0.00     0.00
eigval :        1.02    11.07    12.36    18.81    20.61    24.24
eigval :       33.16    45.93    47.55    53.87    56.37    66.88
eigval :       83.50    95.30    98.04   100.46   103.22   112.02
eigval :      125.27   128.72   131.85   133.10   142.87   172.15
eigval :      191.90   198.22   200.39   202.84   206.11   218.10
eigval :      218.46   226.64   233.03   235.53   290.12   299.16
eigval :      300.16   302.13   312.03   326.20   327.56   334.15
eigval :      339.81   345.72   355.78   372.91   374.95   377.04
eigval :      378.18   381.56   387.61   394.80   405.32   411.18
eigval :      411.47   415.44   445.95   449.12   450.41   460.19
eigval :      470.81   491.68   505.38   505.82   510.63   518.55
eigval :      530.84   542.94   543.36   546.20   556.75   570.72
eigval :      573.01   578.44   582.62   588.37   596.42   601.35
eigval :      610.12   615.20   645.42   654.39   658.21   671.59
eigval :      683.68   687.21   688.70   696.01   700.53   702.48
eigval :      706.58   737.69   746.99   761.07   774.19   775.38
eigval :      775.91   777.18   792.40   812.46   825.82   825.95
eigval :      832.03   838.78   864.17   870.84   871.29   872.50
eigval :      873.13   889.60   895.32   906.30   908.92   909.85
eigval :      911.73   914.35   915.01   915.29   915.97   916.92
eigval :      917.09   923.89   924.84   924.99   925.27   925.32
eigval :      936.61   936.66   957.51   958.35   983.02   996.76
eigval :     1011.01  1013.42  1030.86  1054.64  1073.59  1074.06
eigval :     1083.31  1084.13  1104.60  1106.60  1111.48  1112.14
eigval :     1120.28  1127.08  1136.33  1137.30  1137.44  1147.92
eigval :     1148.45  1149.09  1167.64  1167.81  1181.30  1182.15
eigval :     1182.45  1182.94  1184.07  1198.58  1205.79  1209.57
eigval :     1230.71  1236.79  1238.77  1240.48  1242.70  1253.08
eigval :     1255.90  1259.40  1260.88  1268.27  1291.75  1292.12
eigval :     1296.44  1303.32  1307.68  1310.55  1316.49  1324.72
eigval :     1327.14  1327.43  1330.46  1333.20  1333.73  1358.78
eigval :     1395.81  1396.23  1397.44  1400.06  1414.55  1415.85
eigval :     1416.26  1420.86  1422.69  1427.32  1428.41  1434.48
eigval :     1453.78  1455.63  1458.01  1470.90  1474.59  1479.23
eigval :     1481.72  1482.92  1483.08  1483.86  1487.14  1492.50
eigval :     1493.06  1496.92  1498.55  1528.40  1541.99  1551.82
eigval :     1554.14  1561.26  1565.03  1567.60  1577.17  1578.10
eigval :     1586.42  1587.59  1593.85  2248.51  3025.55  3026.72
eigval :     3027.64  3028.80  3038.82  3046.49  3046.67  3048.72
eigval :     3049.09  3053.62  3053.85  3057.32  3057.90  3067.33
eigval :     3071.89  3081.08  3082.52  3082.80  3083.02  3083.06
eigval :     3083.42  3086.78  3089.58  3089.59  3089.65  3089.85
eigval :     3092.94  3095.50  3098.85  3098.91  3099.15  3099.45
eigval :     3099.75  3102.62  3106.62  3106.92  3107.78  3110.43

   temp. (K)  partition function   enthalpy   heat capacity  entropy
                                   cal/mol     cal/K/mol   cal/K/mol   J/K/mol
 298.15  VIB  0.397E+22            26336.601    164.597    166.050
         ROT  0.152E+09              888.752      2.981     40.414
         INT  0.602E+30            27225.354    167.578    206.463
         TR   0.168E+29             1481.254      4.968     45.371
         TOT                       28706.6076   172.5459   251.8340  1053.6735

       T/K    H(0)-H(T)+PV         H(T)/Eh          T*S/Eh         G(T)/Eh
   ------------------------------------------------------------------------
    298.15    0.457469E-01    0.751753E+00    0.119654E+00    0.632099E+00
   ------------------------------------------------------------------------

         :::::::::::::::::::::::::::::::::::::::::::::::::::::
         ::                  THERMODYNAMIC                  ::
         :::::::::::::::::::::::::::::::::::::::::::::::::::::
         :: total free energy        -133.239154801890 Eh   ::
         ::.................................................::
         :: total energy             -133.871253800192 Eh   ::
         :: zero point energy           0.706006575671 Eh   ::
         :: G(RRHO) w/o ZPVE           -0.073907577369 Eh   ::
         :: G(RRHO) contrib.            0.632098998302 Eh   ::
         :::::::::::::::::::::::::::::::::::::::::::::::::::::

           -------------------------------------------------
          | TOTAL ENERGY             -133.871253800192 Eh   |
          | TOTAL ENTHALPY           -133.119500333435 Eh   |
          | TOTAL FREE ENERGY        -133.239154801890 Eh   |
          | GRADIENT NORM               0.000130822610 Eh/α |
          | HOMO-LUMO GAP               0.437195022488 eV   |
           -------------------------------------------------

 * finished run on 2025/07/18 at 07:50:00.497
