   * xtb version 6.7.1 (edcfbbe) compiled by 'albert@albert-system' on 2024-07-22

   ID    Z sym.   atoms
    1    6 C      1-9, 11-19, 21-25, 27-43, 45-52
    2    7 N      10, 20, 26, 44
    3    1 H      53-90

          program call               : xtb data2507/toluene/AcCYP/AcCYP_toluene_S0_crest.xyz --gfn 2 --gbsa toluene --ohess vtight --parallel 40 --molden --ceasefiles --namespace data2507/toluene/AcCYP/AcCYP_toluene_S0_finalOpt
      * Solvation model:               GBSA
        Solvent                        toluene
        Solvent mass                       9.2140E+01 g/mol
          :  Hamiltonian                  GFN2-xTB          :
 * total energy  :  -133.9413223 Eh     change       -0.2504237E-08 Eh
 * total energy  :  -133.9413541 Eh     change       -0.3181415E-04 Eh
 * total energy  :  -133.9413373 Eh     change        0.1678861E-04 Eh
 * total energy  :  -133.9413675 Eh     change       -0.3025306E-04 Eh
 * total energy  :  -133.9413755 Eh     change       -0.7932401E-05 Eh
 * total energy  :  -133.9413812 Eh     change       -0.5710851E-05 Eh
 * total energy  :  -133.9413914 Eh     change       -0.1026442E-04 Eh
 * total energy  :  -133.9413997 Eh     change       -0.8239764E-05 Eh
 * total energy  :  -133.9414070 Eh     change       -0.7316601E-05 Eh
 * total energy  :  -133.9414132 Eh     change       -0.6149731E-05 Eh
 * total energy  :  -133.9414202 Eh     change       -0.4981193E-06 Eh
 * total energy  :  -133.9414208 Eh     change       -0.5927530E-06 Eh
 * total energy  :  -133.9414214 Eh     change       -0.5922118E-06 Eh
 * total energy  :  -133.9414219 Eh     change       -0.5044833E-06 Eh
 * total energy  :  -133.9414221 Eh     change       -0.1637296E-06 Eh
 * total energy  :  -133.9414223 Eh     change       -0.2601014E-06 Eh
 * total energy  :  -133.9414221 Eh     change        0.2780277E-06 Eh
 * total energy  :  -133.9414225 Eh     change       -0.4947527E-06 Eh
 * total energy  :  -133.9414226 Eh     change       -0.7515195E-07 Eh
   *** GEOMETRY OPTIMIZATION CONVERGED AFTER 26 ITERATIONS ***

 final structure:
================
90
 xtb: 6.7.1 (edcfbbe)
C            8.49895367861522        3.25801525937015       -0.54908093895276
C            8.29556690867255        1.94416832787389        0.22895716005093
C            9.54996460863022        1.61928253218891        1.06193209753927
C            8.06550818963024        0.82271921372133       -0.76693717045764
C            9.04274826425730        0.53737168522424       -1.71123057103613
C            8.88090269319350       -0.45378569114898       -2.66186602657987
C            7.70244990753362       -1.17779111371077       -2.68800009651659
C            6.71565481617267       -0.91639363972236       -1.76055227751380
C            6.88780881423069        0.06734440637326       -0.78156372566947
N            5.88048240326121        0.29925505607055        0.14387650566688
C            4.71107039305659       -0.50478161435830        0.10713909763071
C            4.74752366743800       -1.81138102461797        0.58400143781464
C            3.61329219713432       -2.59823286224700        0.54577452417292
C            2.41832826478330       -2.09144003697157        0.03477125366422
C            1.19322689647813       -2.89522128325665       -0.01620754540220
C            1.20838736712925       -4.29498841130820       -0.07156789819285
C            0.00722908412486       -4.97051835828203       -0.07303265741091
C           -1.19033364974570       -4.24696872127813       -0.05256628684726
C           -2.40772974162785       -4.94908634164927        0.03595735626723
N           -3.36794792161658       -5.57182594172131        0.13943848932109
C           -1.11462219518391       -2.83755505115045       -0.06333644927479
C           -2.30223525854606       -1.97525323423482       -0.09510964503790
C           -2.27759726991439       -0.76787301893502        0.60389952710376
C           -3.37376401787738        0.06963465405633        0.59576267347411
C           -4.51061722220137       -0.27775503818253       -0.12835342431821
N           -5.63907390461450        0.58322276678619       -0.14246177481690
C           -6.76073772828070        0.23651021941746        0.59753157389222
C           -6.74353210601062       -0.92284758503712        1.37928391124492
C           -7.84448926357004       -1.29712153795525        2.12096843247992
C           -8.98437113968560       -0.51355245842867        2.10447775499754
C           -8.99538330769014        0.64568280922671        1.35075256167704
C           -7.90140754664172        1.04669896039426        0.59539225422370
C           -7.97077391689183        2.34587704137509       -0.18559798924523
C           -8.21540645908844        3.50070749181496        0.80412846181841
C           -9.12981024279073        2.25646057234608       -1.19626422413086
C           -6.68565499235708        2.61734955790429       -0.94533927953762
C           -6.58187373756274        3.76375060566866       -1.72210873499800
C           -5.44705390385980        4.05538013474257       -2.45638850921979
C           -4.38233915719275        3.17263484833073       -2.43193688218935
C           -4.45813822761297        2.02677572943877       -1.66802202404527
C           -5.59553879022491        1.74121878030605       -0.90626534434267
C           -4.53210428126290       -1.46914147146763       -0.84617854797323
C           -3.43789185979757       -2.31208679341562       -0.82855459459421
N            0.05080065838172       -2.21453097509838       -0.02639019100799
C            2.38651122177135       -0.77440630785273       -0.42812734648637
C            3.52067553257580        0.01004818510870       -0.39839526880719
C            5.98539249478087        1.29458833815471        1.10534715667360
C            4.95802257974917        1.46817421811610        2.03801684787811
C            5.02993428421895        2.45342457502809        3.00052079170103
C            6.13611473975538        3.28210983635893        3.05627230706639
C            7.16449338355976        3.09624167731653        2.15071948192984
C            7.11890598089040        2.11196667608432        1.17226387791590
H            7.61003096151367        3.48267302546846       -1.13635341515680
H            8.67982315343705        4.08648620240413        0.13008146547899
H            9.34599053254099        3.18189174323836       -1.22518784935793
H            9.40233821733571        0.68869444332834        1.60767902647332
H            9.75368927488098        2.40866651532249        1.78011172352742
H           10.42164409076560        1.50764919368604        0.42299227469121
H            9.96106587639921        1.10494748887057       -1.71170200630004
H            9.66369158585922       -0.65063067690937       -3.37910241114479
H            7.54632729404581       -1.94521964552333       -3.43221615781183
H            5.79466837397258       -1.47767370278436       -1.79647029321361
H            5.67098704684478       -2.20203877626496        0.98535007379293
H            3.65496848536057       -3.60015286611547        0.94451588793842
H            2.13792768324434       -4.83769592662120       -0.11753259059959
H           -0.02433778236412       -6.05085614818826       -0.08578554694112
H           -1.39110682932111       -0.50715670582731        1.16094731204899
H           -3.35862645050412        0.99904439629216        1.14542123671026
H           -5.85591219908104       -1.53627830766405        1.40675178009090
H           -7.80665397504786       -2.20013802084610        2.71266561281729
H           -9.85447164025430       -0.79652630226386        2.67783337899782
H           -9.88680990474606        1.25454070161789        1.35741957028800
H           -9.14114012155014        3.35154804519316        1.35286352489103
H           -7.39687543343800        3.55501544950242        1.52004125389830
H           -8.27840961829539        4.45146059629144        0.28208816778279
H           -8.95055462231699        1.44043224415473       -1.89450054859884
H          -10.07293098935769        2.07289022483422       -0.68916792819582
H           -9.22274583136198        3.17858247723989       -1.76316400413910
H           -7.41053877356195        4.45454682264015       -1.76046269973136
H           -5.40018303114735        4.95784130474811       -3.04735760512825
H           -3.49097933089002        3.37138767337719       -3.00891762000554
H           -3.62754744340807        1.33805674864974       -1.66493841985684
H           -5.41071793433996       -1.72932222649842       -1.41750132497450
H           -3.46095480310313       -3.22168018955698       -1.40975508577128
H            1.45900367850645       -0.38570365237358       -0.81843465372361
H            3.49522631530631        1.02624217144482       -0.76306028785658
H            4.09597956662967        0.81972368723359        2.00997817285840
H            4.22117351210079        2.56934476309183        3.70719840160868
H            6.20378873386775        4.05981043492469        3.80224690240616
H            8.02843122960127        3.74038082881584        2.21486946770686

          :  Hamiltonian                  GFN2-xTB          :
         :: gradient norm              0.000061699743 Eh/a0 ::
         :: HOMO-LUMO gap              1.286446914018 eV    ::
         :: SCC energy              -136.406454885829 Eh    ::
         :: -> dispersion             -0.125096511001 Eh    ::
         :: -> Gsolv                  -0.055760208926 Eh    ::
         :: repulsion energy           2.465032263412 Eh    ::

    * Orbital Energies and Occupations

         #    Occupation            Energy/Eh            Energy/eV
      -------------------------------------------------------------
         1        2.0000           -0.6871163             -18.6974
       ...           ...                  ...                  ...
       113        2.0000           -0.4065491             -11.0628
       114        2.0000           -0.4063437             -11.0572
       115        2.0000           -0.4054130             -11.0318
       116        2.0000           -0.4029292             -10.9643
       117        2.0000           -0.4024609             -10.9515
       118        2.0000           -0.4018947             -10.9361
       119        2.0000           -0.3973650             -10.8129
       120        2.0000           -0.3962866             -10.7835
       121        2.0000           -0.3920127             -10.6672
       122        2.0000           -0.3909459             -10.6382
       123        2.0000           -0.3870310             -10.5316
       124        2.0000           -0.3463407              -9.4244
       125        2.0000           -0.3454161              -9.3992 (HOMO)
       126                         -0.2981400              -8.1128 (LUMO)
       127                         -0.2782620              -7.5719
       128                         -0.2424749              -6.5981
       129                         -0.2408854              -6.5548
       130                         -0.2395754              -6.5192
       131                         -0.2238730              -6.0919
       132                         -0.2237228              -6.0878
       133                         -0.2227932              -6.0625
       134                         -0.2191988              -5.9647
       135                         -0.2187387              -5.9522
       136                         -0.2176318              -5.9221
       ...                                ...                  ...
       246                          1.1502686              31.3004
      -------------------------------------------------------------
                  HL-Gap            0.0472761 Eh            1.2864 eV

     #   Z          covCN         q      C6AA      α(0)
     1   6 C        3.761    -0.103    22.518     6.765
     2   6 C        3.909     0.021    20.164     6.383
     3   6 C        3.761    -0.103    22.516     6.764
     4   6 C        2.979    -0.014    28.354     8.735
     5   6 C        2.928    -0.038    28.935     8.821
     6   6 C        2.917    -0.046    29.153     8.854
     7   6 C        2.919    -0.035    28.872     8.811
     8   6 C        2.924    -0.060    29.500     8.907
     9   6 C        2.927     0.058    26.694     8.473
    10   7 N        2.754    -0.072    22.635     7.066
    11   6 C        2.927     0.074    26.352     8.419
    12   6 C        2.920    -0.037    28.925     8.820
    13   6 C        2.922    -0.031    28.762     8.795
    14   6 C        2.980     0.004    27.939     8.670
    15   6 C        2.947     0.102    25.733     8.320
    16   6 C        2.914    -0.046    29.135     8.851
    17   6 C        2.932    -0.006    28.176     8.705
    18   6 C        2.968    -0.006    28.170     8.706
    19   6 C        1.909     0.118    28.193     8.575
    20   7 N        0.911    -0.274    27.073     7.525
    21   6 C        2.949     0.104    25.691     8.313
    22   6 C        2.981     0.002    27.973     8.676
    23   6 C        2.925    -0.025    28.621     8.773
    24   6 C        2.920    -0.036    28.902     8.816
    25   6 C        2.927     0.074    26.337     8.416
    26   7 N        2.754    -0.072    22.645     7.068
    27   6 C        2.927     0.058    26.693     8.473
    28   6 C        2.924    -0.060    29.480     8.904
    29   6 C        2.919    -0.035    28.861     8.810
    30   6 C        2.917    -0.046    29.147     8.853
    31   6 C        2.928    -0.038    28.937     8.822
    32   6 C        2.979    -0.014    28.353     8.734
    33   6 C        3.909     0.021    20.165     6.383
    34   6 C        3.761    -0.103    22.523     6.765
    35   6 C        3.761    -0.103    22.521     6.765
    36   6 C        2.979    -0.014    28.351     8.734
    37   6 C        2.928    -0.038    28.935     8.822
    38   6 C        2.917    -0.046    29.151     8.854
    39   6 C        2.919    -0.035    28.866     8.810
    40   6 C        2.924    -0.060    29.497     8.907
    41   6 C        2.927     0.058    26.695     8.473
    42   6 C        2.920    -0.036    28.892     8.815
    43   6 C        2.921    -0.028    28.711     8.787
    44   7 N        1.856    -0.242    27.160     7.724
    45   6 C        2.925    -0.024    28.606     8.771
    46   6 C        2.919    -0.036    28.893     8.815
    47   6 C        2.927     0.058    26.695     8.473
    48   6 C        2.924    -0.060    29.496     8.906
    49   6 C        2.919    -0.035    28.866     8.811
    50   6 C        2.917    -0.046    29.149     8.853
    51   6 C        2.928    -0.038    28.935     8.822
    52   6 C        2.979    -0.014    28.355     8.735
    53   1 H        0.925     0.030     2.586     2.515
    54   1 H        0.925     0.041     2.432     2.439
    55   1 H        0.925     0.041     2.436     2.441
    56   1 H        0.925     0.030     2.590     2.517
    57   1 H        0.925     0.041     2.434     2.440
    58   1 H        0.925     0.041     2.434     2.440
    59   1 H        0.926     0.032     2.561     2.503
    60   1 H        0.926     0.025     2.660     2.551
    61   1 H        0.926     0.026     2.643     2.542
    62   1 H        0.926     0.025     2.663     2.552
    63   1 H        0.926     0.049     2.330     2.387
    64   1 H        0.926     0.049     2.333     2.389
    65   1 H        0.926     0.056     2.251     2.346
    66   1 H        0.926     0.048     2.348     2.396
    67   1 H        0.926     0.060     2.200     2.319
    68   1 H        0.926     0.053     2.281     2.362
    69   1 H        0.926     0.022     2.699     2.569
    70   1 H        0.926     0.026     2.643     2.542
    71   1 H        0.926     0.026     2.648     2.545
    72   1 H        0.926     0.033     2.547     2.496
    73   1 H        0.925     0.041     2.430     2.438
    74   1 H        0.925     0.030     2.584     2.514
    75   1 H        0.925     0.042     2.425     2.435
    76   1 H        0.925     0.030     2.592     2.518
    77   1 H        0.925     0.041     2.429     2.437
    78   1 H        0.925     0.042     2.427     2.436
    79   1 H        0.926     0.032     2.553     2.499
    80   1 H        0.926     0.026     2.648     2.545
    81   1 H        0.926     0.027     2.626     2.534
    82   1 H        0.926     0.025     2.658     2.549
    83   1 H        0.926     0.049     2.329     2.386
    84   1 H        0.926     0.040     2.452     2.449
    85   1 H        0.926     0.062     2.175     2.306
    86   1 H        0.926     0.051     2.312     2.378
    87   1 H        0.926     0.026     2.647     2.544
    88   1 H        0.926     0.027     2.633     2.537
    89   1 H        0.926     0.025     2.657     2.549
    90   1 H        0.926     0.032     2.561     2.503

molecular dipole:
                 x           y           z       tot (Debye)
 q only:        1.315       0.813      -0.052
   full:        1.647       0.469      -0.098       4.361

 projected vibrational frequencies (cm⁻¹)
eigval :       -0.00    -0.00     0.00     0.00     0.00     0.00
eigval :       -6.22     8.21    10.26    17.73    19.76    21.52
eigval :       32.84    38.01    46.05    51.58    58.13    60.22
eigval :       80.25    95.94    98.49    99.67   102.85   111.67
eigval :      122.76   124.19   130.26   135.76   144.06   170.04
eigval :      185.58   194.04   199.85   205.05   209.39   218.04
eigval :      218.93   228.15   234.08   234.95   277.00   298.50
eigval :      302.46   303.63   310.45   329.96   330.86   331.31
eigval :      343.10   344.91   358.68   373.74   376.30   376.94
eigval :      378.65   381.96   394.58   402.32   404.81   412.82
eigval :      416.23   419.27   447.93   450.45   451.61   483.15
eigval :      490.81   495.35   508.98   513.10   515.10   530.42
eigval :      537.58   545.29   547.10   549.52   572.05   574.99
eigval :      578.84   583.53   590.98   595.79   603.79   610.03
eigval :      620.03   632.19   646.37   659.99   682.01   682.49
eigval :      686.82   693.25   693.48   693.75   709.33   714.65
eigval :      732.61   746.46   755.18   775.16   776.20   778.64
eigval :      778.81   810.76   816.58   825.45   827.46   834.91
eigval :      852.80   864.84   865.26   866.48   866.88   868.93
eigval :      870.91   912.45   912.60   912.97   913.94   914.11
eigval :      914.24   915.05   917.42   919.59   920.45   920.53
eigval :      920.82   921.53   924.82   927.71   928.58   929.88
eigval :      938.00   938.42   956.69   957.12   998.69  1013.69
eigval :     1013.90  1015.07  1055.16  1076.12  1076.59  1085.24
eigval :     1085.32  1093.82  1112.60  1113.19  1118.40  1119.58
eigval :     1127.53  1131.35  1139.62  1139.93  1142.21  1157.92
eigval :     1158.20  1170.82  1171.18  1182.38  1183.61  1185.12
eigval :     1186.60  1186.84  1188.64  1203.38  1206.63  1232.35
eigval :     1238.23  1243.56  1248.08  1248.57  1249.01  1261.49
eigval :     1261.80  1266.85  1267.45  1280.88  1293.65  1293.88
eigval :     1299.88  1308.32  1310.52  1319.04  1323.92  1324.18
eigval :     1325.91  1333.13  1333.66  1335.91  1336.32  1381.04
eigval :     1399.47  1400.23  1401.59  1406.88  1418.08  1420.38
eigval :     1422.37  1435.40  1435.89  1439.68  1439.84  1476.41
eigval :     1476.51  1478.30  1481.20  1486.07  1487.42  1487.45
eigval :     1489.39  1495.31  1495.55  1496.04  1497.03  1502.86
eigval :     1504.57  1516.19  1541.85  1558.76  1559.68  1573.76
eigval :     1573.78  1585.56  1587.19  1590.24  1590.39  1590.42
eigval :     1591.21  1600.62  1600.77  2346.98  3020.31  3021.25
eigval :     3022.82  3023.78  3038.50  3038.73  3040.44  3040.70
eigval :     3047.25  3047.37  3051.22  3051.48  3070.69  3071.21
eigval :     3072.27  3072.60  3076.17  3078.11  3078.42  3078.99
eigval :     3079.33  3085.50  3086.59  3088.57  3088.82  3089.01
eigval :     3089.27  3089.93  3090.50  3096.77  3096.90  3097.35
eigval :     3097.72  3098.95  3099.43  3103.90  3106.83  3111.86

   temp. (K)  partition function   enthalpy   heat capacity  entropy
                                   cal/mol     cal/K/mol   cal/K/mol   J/K/mol
 298.15  VIB  0.170E+22            26198.640    162.798    164.324
         ROT  0.150E+09              888.752      2.981     40.389
         INT  0.254E+30            27087.392    165.779    204.713
         TR   0.168E+29             1481.254      4.968     45.371
         TOT                       28568.6461   170.7467   250.0840  1046.3515

       T/K    H(0)-H(T)+PV         H(T)/Eh          T*S/Eh         G(T)/Eh
   ------------------------------------------------------------------------
    298.15    0.455270E-01    0.754909E+00    0.118823E+00    0.636086E+00
   ------------------------------------------------------------------------

         :::::::::::::::::::::::::::::::::::::::::::::::::::::
         ::                  THERMODYNAMIC                  ::
         :::::::::::::::::::::::::::::::::::::::::::::::::::::
         :: total free energy        -133.305336310559 Eh   ::
         ::.................................................::
         :: total energy             -133.941422620995 Eh   ::
         :: zero point energy           0.709382258500 Eh   ::
         :: G(RRHO) w/o ZPVE           -0.073295948065 Eh   ::
         :: G(RRHO) contrib.            0.636086310435 Eh   ::
         :::::::::::::::::::::::::::::::::::::::::::::::::::::

           -------------------------------------------------
          | TOTAL ENERGY             -133.941422620995 Eh   |
          | TOTAL ENTHALPY           -133.186513327070 Eh   |
          | TOTAL FREE ENERGY        -133.305336310559 Eh   |
          | GRADIENT NORM               0.000061654382 Eh/α |
          | HOMO-LUMO GAP               1.286447639136 eV   |
           -------------------------------------------------

 * finished run on 2025/07/18 at 07:41:16.772
