   * xtb version 6.7.1 (edcfbbe) compiled by 'albert@albert-system' on 2024-07-22

   ID    Z sym.   atoms
    1    6 C      1-9, 11-19, 21-25, 27-43, 45-52
    2    7 N      10, 20, 26, 44
    3    1 H      53-90

          program call               : xtb data2507/toluene/AcCYP/AcCYP.xyz --gfn 2 --gbsa toluene --ohess vtight --parallel 40 --molden --ceasefiles --namespace data2507/toluene/AcCYP/AcCYP_toluene_S0_preOpt
      * Solvation model:               GBSA
        Solvent                        toluene
        Solvent mass                       9.2140E+01 g/mol
          :  Hamiltonian                  GFN2-xTB          :
 * total energy  :  -133.9105946 Eh     change       -0.2124381E-08 Eh
 * total energy  :  -133.9302228 Eh     change       -0.1962813E-01 Eh
 * total energy  :  -133.9369820 Eh     change       -0.6759244E-02 Eh
 * total energy  :  -133.9370937 Eh     change       -0.1116404E-03 Eh
 * total energy  :  -133.9392385 Eh     change       -0.2144862E-02 Eh
 * total energy  :  -133.9398870 Eh     change       -0.6484657E-03 Eh
 * total energy  :  -133.9402984 Eh     change       -0.4114400E-03 Eh
 * total energy  :  -133.9404280 Eh     change       -0.1296180E-03 Eh
 * total energy  :  -133.9405127 Eh     change       -0.8460548E-04 Eh
 * total energy  :  -133.9406210 Eh     change       -0.1083457E-03 Eh
 * total energy  :  -133.9414836 Eh     change       -0.3922689E-06 Eh
 * total energy  :  -133.9414840 Eh     change       -0.3804115E-06 Eh
 * total energy  :  -133.9414843 Eh     change       -0.3756036E-06 Eh
 * total energy  :  -133.9414847 Eh     change       -0.3794123E-06 Eh
 * total energy  :  -133.9414851 Eh     change       -0.4204427E-06 Eh
 * total energy  :  -133.9414856 Eh     change       -0.4617027E-06 Eh
 * total energy  :  -133.9414861 Eh     change       -0.4865046E-06 Eh
 * total energy  :  -133.9414865 Eh     change       -0.4645192E-06 Eh
 * total energy  :  -133.9414865 Eh     change       -0.1508170E-08 Eh
   *** GEOMETRY OPTIMIZATION CONVERGED AFTER 122 ITERATIONS ***

 final structure:
================
90
 xtb: 6.7.1 (edcfbbe)
C            8.42676782527233        2.98997790163619       -0.35394413476608
C            8.24150491732329        1.61489846063970        0.31527005970098
C            9.51369875955968        1.22469866697915        1.09127379410184
C            7.99201471578029        0.58070728065366       -0.76670752758698
C            8.95167168743471        0.37587417060075       -1.74899963946866
C            8.77182496501763       -0.53278229812727       -2.77583668065238
C            7.59274426594339       -1.25338064406068       -2.84046282469445
C            6.62302003690563       -1.07074454717862       -1.87686590037258
C            6.81327383347520       -0.17099446990224       -0.82331391685521
N            5.82327307904280       -0.01760614146652        0.13631762383532
C            4.65233493245059       -0.81650722991774        0.05293664102151
C            4.69311035579538       -2.15532439099259        0.42959029176932
C            3.55795005685071       -2.93710967075999        0.34480201675327
C            2.35807114576977       -2.39416073121578       -0.11530824846384
C            1.13314932309926       -3.19345839055733       -0.21762042819808
C            1.14995583167688       -4.58650830158289       -0.36615677847629
C           -0.04974996289403       -5.26325981264767       -0.41146153777833
C           -1.24796057419180       -4.54421653744732       -0.34392647233437
C           -2.46708576214416       -5.24743332159769       -0.29855330143476
N           -3.43011175281401       -5.87067527098452       -0.23135121083968
C           -1.17389042120271       -3.13712771862331       -0.26183285417628
C           -2.36712555965694       -2.28217824048080       -0.24093683838628
C           -2.36774055697119       -1.13929848790804        0.55874890709736
C           -3.47435812988914       -0.31650175753233        0.60359496237869
C           -4.59510353707710       -0.61366917109406       -0.16647763936358
N           -5.73630471708829        0.22937558693893       -0.12264131704687
C           -6.86317368119171       -0.19807810215061        0.56557069294997
C           -6.83918854032163       -1.42170045472083        1.24219939384106
C           -7.94583839314439       -1.87718270412819        1.92795515612300
C           -9.09847982042900       -1.11299945373876        1.96034810030624
C           -9.11625288825954        0.10875144146373        1.31291431374435
C           -8.01708144420190        0.59162225219221        0.61514515904337
C           -8.09578733492632        1.95349215087189       -0.04958591150501
C           -8.37663627352574        3.01233705533851        1.03346508497751
C           -9.23591652892683        1.93574860345288       -1.08529793045355
C           -6.80306860912697        2.31128746554008       -0.75895363763590
C           -6.70478747946402        3.52516387884992       -1.42618050828821
C           -5.56265551414387        3.89877424948640       -2.11035400920219
C           -4.48465073669926        3.03273892573905       -2.14741544679797
C           -4.55491416737636        1.82077585830096       -1.49272945575318
C           -5.69968758213244        1.45128250388436       -0.77969523641001
C           -4.58943232236466       -1.73763904319717       -0.98614509867365
C           -3.48537549974117       -2.56687279625914       -1.02163438895552
N           -0.01062886944697       -2.51502421765023       -0.18143645013641
C            2.32249271300352       -1.04610186568552       -0.47784741346509
C            3.45713527385919       -0.26541024593391       -0.39997499302941
C            5.94832318867275        0.89090178562340        1.17783461862087
C            4.93838379039277        0.98429054922151        2.14052056925124
C            5.03078550101462        1.88187065730953        3.18362910103360
C            6.14004621358638        2.70141962088016        3.29058221680764
C            7.15072871238239        2.59456213385536        2.35287527508503
C            7.08442730381188        1.69931710364945        1.29344788509355
H            7.52506614305153        3.26085941562546       -0.90093485219930
H            8.62165800406581        3.75920892176523        0.38817139517540
H            9.25860930317323        2.97271345823521       -1.05264215848532
H            9.37773740940912        0.25211055753473        1.56165941916885
H            9.73341305050005        1.95255577828368        1.86739369605591
H           10.37135565753297        1.16730820392641        0.42672891519013
H            9.87028866794067        0.94213234039942       -1.71892989281541
H            9.54123931057237       -0.66858057505959       -3.52116046989950
H            7.42291939128086       -1.95689553331302       -3.64260926325766
H            5.70154833121400       -1.62858172972941       -1.94202687043156
H            5.62071320842486       -2.57506047049118        0.79000244663088
H            3.60383154825227       -3.96620997549461        0.66622970775086
H            2.08007375819370       -5.12372744832177       -0.44896876269787
H           -0.07904581250643       -6.34049538432136       -0.49474911161612
H           -1.49353139866523       -0.91747027832758        1.15103326184837
H           -3.47997354465045        0.56212066477991        1.23142721071041
H           -5.94190918018939       -2.02151045502452        1.23147198909692
H           -7.90221257348513       -2.82852199754962        2.43786345031256
H           -9.97314721824259       -1.45920549917971        2.49046710632889
H          -10.01765613150549        0.70107818184998        1.35791557777837
H           -9.30783167389882        2.79991241101539        1.55124169563535
H           -7.57025319733725        3.01701341062926        1.76507388368581
H           -8.44909807327793        4.00430701107170        0.59626852702255
H           -9.03036352923762        1.18906590517573       -1.85069390443471
H          -10.18382609736530        1.69120361656727       -0.61411032036201
H           -9.33616798452029        2.90350460740711       -1.56879784294966
H           -7.54383765827422        4.20432315335186       -1.41696968081173
H           -5.52005449680496        4.85204122007590       -2.61566791867740
H           -3.58742208686197        3.29582191247375       -2.68841065948548
H           -3.71354138667770        1.14665306097560       -1.53727237687512
H           -5.45531822234333       -1.95706946786852       -1.59289595637978
H           -3.48639266168583       -3.42364283275410       -1.67892968722279
H            1.39174188501810       -0.62976754436436       -0.82989101416148
H            3.42833053237917        0.77551832142630       -0.68626879380233
H            4.07376992329007        0.34233859469960        2.07147795139715
H            4.23513233175955        1.93734253235877        3.91221888238171
H            6.22356252874940        3.41100077066088        4.10017088754744
H            8.01689017387520        3.23067985595539        2.45573840039607

          :  Hamiltonian                  GFN2-xTB          :
         :: gradient norm              0.000111252353 Eh/a0 ::
         :: HOMO-LUMO gap              1.283096310685 eV    ::
         :: SCC energy              -136.406500967375 Eh    ::
         :: -> dispersion             -0.125102638399 Eh    ::
         :: -> Gsolv                  -0.055853117489 Eh    ::
         :: repulsion energy           2.465014424062 Eh    ::

    * Orbital Energies and Occupations

         #    Occupation            Energy/Eh            Energy/eV
      -------------------------------------------------------------
         1        2.0000           -0.6872491             -18.7010
       ...           ...                  ...                  ...
       113        2.0000           -0.4065320             -11.0623
       114        2.0000           -0.4063286             -11.0568
       115        2.0000           -0.4053748             -11.0308
       116        2.0000           -0.4029006             -10.9635
       117        2.0000           -0.4025261             -10.9533
       118        2.0000           -0.4018493             -10.9349
       119        2.0000           -0.3973525             -10.8125
       120        2.0000           -0.3962458             -10.7824
       121        2.0000           -0.3920050             -10.6670
       122        2.0000           -0.3909033             -10.6370
       123        2.0000           -0.3871499             -10.5349
       124        2.0000           -0.3462907              -9.4230
       125        2.0000           -0.3453782              -9.3982 (HOMO)
       126                         -0.2982252              -8.1151 (LUMO)
       127                         -0.2779972              -7.5647
       128                         -0.2425454              -6.6000
       129                         -0.2409958              -6.5578
       130                         -0.2396709              -6.5218
       131                         -0.2241870              -6.1004
       132                         -0.2238345              -6.0908
       133                         -0.2227578              -6.0615
       134                         -0.2191766              -5.9641
       135                         -0.2187041              -5.9512
       136                         -0.2176060              -5.9214
       ...                                ...                  ...
       246                          1.1506551              31.3109
      -------------------------------------------------------------
                  HL-Gap            0.0471530 Eh            1.2831 eV

     #   Z          covCN         q      C6AA      α(0)
     1   6 C        3.761    -0.103    22.517     6.765
     2   6 C        3.909     0.021    20.164     6.383
     3   6 C        3.761    -0.103    22.516     6.764
     4   6 C        2.979    -0.014    28.355     8.735
     5   6 C        2.928    -0.038    28.935     8.822
     6   6 C        2.917    -0.046    29.155     8.854
     7   6 C        2.919    -0.035    28.872     8.811
     8   6 C        2.924    -0.060    29.501     8.907
     9   6 C        2.927     0.058    26.693     8.473
    10   7 N        2.754    -0.072    22.639     7.067
    11   6 C        2.927     0.074    26.350     8.418
    12   6 C        2.920    -0.037    28.924     8.819
    13   6 C        2.922    -0.031    28.762     8.795
    14   6 C        2.980     0.004    27.937     8.670
    15   6 C        2.948     0.102    25.734     8.320
    16   6 C        2.915    -0.046    29.135     8.851
    17   6 C        2.932    -0.006    28.176     8.705
    18   6 C        2.968    -0.006    28.170     8.706
    19   6 C        1.909     0.118    28.195     8.575
    20   7 N        0.911    -0.273    27.067     7.525
    21   6 C        2.950     0.105    25.687     8.313
    22   6 C        2.981     0.002    27.972     8.676
    23   6 C        2.925    -0.025    28.620     8.773
    24   6 C        2.920    -0.036    28.901     8.816
    25   6 C        2.927     0.074    26.338     8.416
    26   7 N        2.754    -0.072    22.646     7.068
    27   6 C        2.927     0.058    26.694     8.473
    28   6 C        2.924    -0.060    29.480     8.904
    29   6 C        2.919    -0.035    28.861     8.810
    30   6 C        2.917    -0.046    29.147     8.853
    31   6 C        2.928    -0.038    28.938     8.822
    32   6 C        2.979    -0.014    28.353     8.734
    33   6 C        3.909     0.021    20.165     6.383
    34   6 C        3.761    -0.103    22.523     6.765
    35   6 C        3.761    -0.103    22.521     6.765
    36   6 C        2.979    -0.014    28.352     8.734
    37   6 C        2.928    -0.038    28.935     8.822
    38   6 C        2.917    -0.046    29.151     8.854
    39   6 C        2.919    -0.035    28.866     8.811
    40   6 C        2.924    -0.060    29.498     8.907
    41   6 C        2.927     0.058    26.695     8.473
    42   6 C        2.920    -0.036    28.891     8.814
    43   6 C        2.922    -0.028    28.707     8.786
    44   7 N        1.855    -0.241    27.157     7.724
    45   6 C        2.925    -0.024    28.605     8.771
    46   6 C        2.919    -0.036    28.892     8.814
    47   6 C        2.927     0.058    26.695     8.473
    48   6 C        2.924    -0.060    29.496     8.906
    49   6 C        2.919    -0.035    28.867     8.811
    50   6 C        2.917    -0.046    29.149     8.854
    51   6 C        2.928    -0.038    28.935     8.822
    52   6 C        2.979    -0.014    28.356     8.735
    53   1 H        0.925     0.030     2.587     2.515
    54   1 H        0.925     0.041     2.432     2.439
    55   1 H        0.925     0.041     2.436     2.441
    56   1 H        0.925     0.030     2.591     2.517
    57   1 H        0.925     0.041     2.434     2.440
    58   1 H        0.925     0.041     2.434     2.440
    59   1 H        0.926     0.032     2.562     2.503
    60   1 H        0.926     0.025     2.661     2.551
    61   1 H        0.926     0.026     2.644     2.543
    62   1 H        0.926     0.025     2.664     2.553
    63   1 H        0.926     0.049     2.329     2.387
    64   1 H        0.926     0.049     2.331     2.387
    65   1 H        0.926     0.056     2.249     2.345
    66   1 H        0.926     0.048     2.346     2.395
    67   1 H        0.926     0.059     2.207     2.323
    68   1 H        0.926     0.053     2.281     2.362
    69   1 H        0.926     0.022     2.700     2.570
    70   1 H        0.926     0.026     2.643     2.542
    71   1 H        0.926     0.026     2.648     2.545
    72   1 H        0.926     0.033     2.547     2.496
    73   1 H        0.925     0.041     2.430     2.438
    74   1 H        0.925     0.030     2.584     2.514
    75   1 H        0.925     0.042     2.425     2.435
    76   1 H        0.925     0.030     2.592     2.518
    77   1 H        0.925     0.041     2.429     2.437
    78   1 H        0.925     0.042     2.427     2.436
    79   1 H        0.926     0.032     2.553     2.499
    80   1 H        0.926     0.026     2.649     2.545
    81   1 H        0.926     0.027     2.626     2.534
    82   1 H        0.926     0.025     2.657     2.549
    83   1 H        0.926     0.049     2.328     2.386
    84   1 H        0.926     0.040     2.455     2.450
    85   1 H        0.926     0.062     2.172     2.305
    86   1 H        0.926     0.051     2.311     2.377
    87   1 H        0.926     0.026     2.650     2.546
    88   1 H        0.926     0.027     2.634     2.538
    89   1 H        0.926     0.025     2.658     2.549
    90   1 H        0.926     0.032     2.562     2.503

molecular dipole:
                 x           y           z       tot (Debye)
 q only:        1.308       0.799      -0.004
   full:        1.643       0.459      -0.075       4.340

 projected vibrational frequencies (cm⁻¹)
eigval :       -0.00    -0.00    -0.00     0.00     0.00     0.00
eigval :        6.62     9.56    11.19    19.25    20.02    24.29
eigval :       32.22    40.45    43.76    54.80    58.08    61.33
eigval :       80.81    96.12    98.77    99.93   103.64   112.98
eigval :      123.85   127.21   130.18   133.58   136.22   169.67
eigval :      187.76   194.04   195.63   201.13   210.87   219.15
eigval :      220.15   229.08   233.29   235.05   277.49   298.45
eigval :      302.18   302.32   310.03   330.72   331.34   331.97
eigval :      344.89   346.34   360.02   374.13   376.31   377.23
eigval :      380.60   383.37   394.67   402.48   405.22   413.00
eigval :      416.24   420.63   448.06   452.00   452.56   483.65
eigval :      490.93   495.66   509.44   515.26   515.71   529.06
eigval :      537.08   547.40   547.62   549.71   572.07   574.97
eigval :      578.57   583.86   591.02   596.44   604.02   610.18
eigval :      619.92   633.41   646.20   660.17   682.82   683.63
eigval :      686.82   693.86   694.36   694.70   710.22   715.02
eigval :      735.53   746.40   755.52   774.98   775.81   776.78
eigval :      780.23   811.45   816.95   824.27   827.76   834.88
eigval :      852.68   862.63   863.46   866.94   869.18   870.77
eigval :      872.90   912.78   912.99   913.22   913.95   914.21
eigval :      914.33   915.00   917.36   919.60   920.39   920.70
eigval :      921.50   921.94   925.14   927.80   929.59   932.28
eigval :      937.58   938.02   956.52   956.60   998.79  1011.94
eigval :     1013.49  1013.73  1055.53  1075.57  1076.02  1084.87
eigval :     1085.12  1093.47  1112.31  1112.37  1117.89  1118.21
eigval :     1126.76  1131.43  1139.10  1139.84  1143.10  1157.87
eigval :     1158.02  1170.38  1170.84  1181.54  1183.70  1185.24
eigval :     1185.77  1186.31  1186.40  1202.79  1206.01  1232.68
eigval :     1238.59  1243.46  1247.91  1248.14  1248.40  1261.21
eigval :     1261.78  1266.35  1266.51  1280.89  1293.36  1293.53
eigval :     1299.71  1308.31  1310.41  1318.92  1323.83  1324.09
eigval :     1326.01  1333.11  1333.72  1335.68  1336.05  1382.07
eigval :     1399.05  1399.70  1400.38  1407.31  1417.68  1418.36
eigval :     1422.16  1435.31  1435.47  1439.57  1439.66  1476.22
eigval :     1476.37  1478.16  1481.68  1486.72  1487.03  1487.43
eigval :     1487.74  1495.26  1495.50  1496.50  1496.97  1502.47
eigval :     1502.78  1516.27  1542.31  1558.80  1559.94  1573.65
eigval :     1573.80  1585.71  1587.21  1590.24  1590.35  1590.47
eigval :     1591.28  1600.63  1600.81  2347.56  3019.98  3020.14
eigval :     3022.44  3022.66  3038.01  3038.93  3039.94  3040.91
eigval :     3046.81  3047.34  3051.02  3051.32  3070.69  3071.80
eigval :     3072.14  3072.18  3076.56  3078.01  3078.76  3078.92
eigval :     3079.11  3084.64  3085.10  3088.53  3088.96  3089.22
eigval :     3089.29  3090.10  3090.21  3096.26  3096.89  3097.03
eigval :     3097.35  3099.22  3099.45  3102.93  3107.86  3112.40

   temp. (K)  partition function   enthalpy   heat capacity  entropy
                                   cal/mol     cal/K/mol   cal/K/mol   J/K/mol
 298.15  VIB  0.959E+21            26175.034    162.849    163.796
         ROT  0.150E+09              888.752      2.981     40.392
         INT  0.144E+30            27063.787    165.830    204.188
         TR   0.168E+29             1481.254      4.968     45.371
         TOT                       28545.0405   170.7978   249.5586  1044.1533

       T/K    H(0)-H(T)+PV         H(T)/Eh          T*S/Eh         G(T)/Eh
   ------------------------------------------------------------------------
    298.15    0.454894E-01    0.754897E+00    0.118573E+00    0.636324E+00
   ------------------------------------------------------------------------

         :::::::::::::::::::::::::::::::::::::::::::::::::::::
         ::                  THERMODYNAMIC                  ::
         :::::::::::::::::::::::::::::::::::::::::::::::::::::
         :: total free energy        -133.305162936038 Eh   ::
         ::.................................................::
         :: total energy             -133.941486542120 Eh   ::
         :: zero point energy           0.709407545676 Eh   ::
         :: G(RRHO) w/o ZPVE           -0.073083939593 Eh   ::
         :: G(RRHO) contrib.            0.636323606082 Eh   ::
         :::::::::::::::::::::::::::::::::::::::::::::::::::::

           -------------------------------------------------
          | TOTAL ENERGY             -133.941486542120 Eh   |
          | TOTAL ENTHALPY           -133.186589578927 Eh   |
          | TOTAL FREE ENERGY        -133.305162936038 Eh   |
          | GRADIENT NORM               0.000111419505 Eh/α |
          | HOMO-LUMO GAP               1.283097774603 eV   |
           -------------------------------------------------

 * finished run on 2025/07/18 at 07:33:30.569
