   * xtb version 6.7.1 (edcfbbe) compiled by 'albert@albert-system' on 2024-07-22

   ID    Z sym.   atoms
    1    8 O      1, 3
    2   16 S      2
    3    6 C      4-13, 15-28
    4    7 N      14
    5    1 H      29-45

          program call               : xtb data2507/toluene/Cz-SO/Cz-SO.xyz --gfn 2 --gbsa toluene --ohess vtight --parallel 40 --molden --ceasefiles --namespace data2507/toluene/Cz-SO/Cz-SO_toluene_S0_preOpt
      * Solvation model:               GBSA
        Solvent                        toluene
        Solvent mass                       9.2140E+01 g/mol
          :  Hamiltonian                  GFN2-xTB          :
 * total energy  :   -74.3801814 Eh     change       -0.3275176E-09 Eh
 * total energy  :   -74.3883188 Eh     change       -0.8137432E-02 Eh
 * total energy  :   -74.3897626 Eh     change       -0.1443740E-02 Eh
 * total energy  :   -74.3899982 Eh     change       -0.2356634E-03 Eh
 * total energy  :   -74.3901674 Eh     change       -0.1691273E-03 Eh
 * total energy  :   -74.3902192 Eh     change       -0.5186329E-04 Eh
 * total energy  :   -74.3902698 Eh     change       -0.5060709E-04 Eh
 * total energy  :   -74.3903012 Eh     change       -0.3137826E-04 Eh
 * total energy  :   -74.3903330 Eh     change       -0.3182844E-04 Eh
 * total energy  :   -74.3903606 Eh     change       -0.2754096E-04 Eh
 * total energy  :   -74.3904448 Eh     change       -0.1964630E-05 Eh
 * total energy  :   -74.3904460 Eh     change       -0.1264172E-05 Eh
 * total energy  :   -74.3904470 Eh     change       -0.9975405E-06 Eh
 * total energy  :   -74.3904480 Eh     change       -0.9959024E-06 Eh
 * total energy  :   -74.3904490 Eh     change       -0.9431968E-06 Eh
 * total energy  :   -74.3904497 Eh     change       -0.7831740E-06 Eh
 * total energy  :   -74.3904502 Eh     change       -0.4768712E-06 Eh
 * total energy  :   -74.3904505 Eh     change       -0.2485846E-06 Eh
 * total energy  :   -74.3904505 Eh     change       -0.6445940E-07 Eh
   *** GEOMETRY OPTIMIZATION CONVERGED AFTER 42 ITERATIONS ***

 final structure:
================
45
 xtb: 6.7.1 (edcfbbe)
O           -3.92664150565709        2.11961064412153        2.19580293295429
S           -3.63828260480682        1.99355889633033        0.78205129934460
O           -3.84226474835722        3.17117617102458       -0.03591014328034
C           -4.60695141042428        0.63864072675645        0.11174443418434
C           -5.25750991094051       -0.22817689536558        0.96781887400262
C           -5.96608170889777       -1.29454609653409        0.43727517648178
C           -6.00939538038988       -1.47919936092857       -0.93600569613579
C           -5.35195271017427       -0.60108797956018       -1.78490886806221
C           -4.64271881579390        0.46627385863583       -1.25907286893719
C           -1.94120994592349        1.44695150521546        0.58470415549036
C           -1.46142329182437        0.45105880207650        1.41621294094655
C           -0.16607154319163       -0.00195063839090        1.25819596695160
C            0.64576207059671        0.53732611040872        0.25733161664283
N            1.95573102627440        0.08327404412606        0.09853565565010
C            2.35519167967535       -1.24168027797143        0.03914508143292
C            1.58905185867431       -2.39844792137593        0.04433241041391
C            2.24731585822698       -3.60979546838264       -0.06175236453129
C            3.63370300576001       -3.67688499577696       -0.18121665410265
C            4.39876568510099       -2.52769275815099       -0.21560695096493
C            3.75922963390307       -1.29907884814841       -0.11041477111530
C            4.22610147259815        0.06034208043247       -0.13022594773530
C            5.48821226737286        0.63292424031911       -0.22331574850201
C            5.59539233176812        2.00897954218496       -0.17842016032429
C            4.46566013798445        2.80986066177303       -0.02672624955889
C            3.19937128272234        2.26248639352673        0.06666726463918
C            3.08305266522699        0.88174114532795       -0.00422010153827
C            0.14357189342548        1.53696940670119       -0.57799587583072
C           -1.15107171647701        1.99115538713907       -0.41017006923395
H           -5.20787719736001       -0.04519360323806        2.03006901450164
H           -6.48271485617701       -1.97704406360587        1.09466956175391
H           -6.56172880239193       -2.31027342252669       -1.34807740165449
H           -5.39244194642876       -0.74617820313547       -2.85357363349415
H           -4.13062621261986        1.17426980826787       -1.89152265944039
H           -2.09937913443714        0.06193799706401        2.19376208659904
H            0.23173403942081       -0.75725424034039        1.91800591660276
H            0.51293371732008       -2.35939281848809        0.11693845225943
H            1.67278911775357       -4.52446450762280       -0.05610442886381
H            4.11153423661872       -4.64243469122530       -0.25882598205134
H            5.47141135478687       -2.57793140223409       -0.32705367094439
H            6.36531627958735        0.01117821065544       -0.32149454246851
H            6.56709700326392        2.47488852876256       -0.25071031290674
H            4.58105846823902        3.88271644609976        0.02300964288773
H            2.33480236744377        2.89361415158967        0.20526982015419
H            0.76494300202861        1.94037845128126       -1.36245318011477
H           -1.56338501349408        2.76739198318093       -1.03576702210148

          :  Hamiltonian                  GFN2-xTB          :
         :: gradient norm              0.000080792853 Eh/a0 ::
         :: HOMO-LUMO gap              2.703984839141 eV    ::
         :: SCC energy               -75.652273216094 Eh    ::
         :: -> dispersion             -0.059124531605 Eh    ::
         :: -> Gsolv                  -0.038913009617 Eh    ::
         :: repulsion energy           1.261822687953 Eh    ::

    * Orbital Energies and Occupations

         #    Occupation            Energy/Eh            Energy/eV
      -------------------------------------------------------------
         1        2.0000           -0.7760983             -21.1187
       ...           ...                  ...                  ...
        56        2.0000           -0.4398720             -11.9695
        57        2.0000           -0.4388049             -11.9405
        58        2.0000           -0.4332478             -11.7893
        59        2.0000           -0.4294947             -11.6871
        60        2.0000           -0.4278960             -11.6436
        61        2.0000           -0.4273857             -11.6298
        62        2.0000           -0.4252326             -11.5712
        63        2.0000           -0.4215934             -11.4721
        64        2.0000           -0.4211598             -11.4603
        65        2.0000           -0.4099207             -11.1545
        66        2.0000           -0.4080685             -11.1041
        67        2.0000           -0.3823282             -10.4037
        68        2.0000           -0.3691590             -10.0453 (HOMO)
        69                         -0.2697895              -7.3413 (LUMO)
        70                         -0.2535209              -6.8987
        71                         -0.2510142              -6.8304
        72                         -0.2467696              -6.7149
        73                         -0.2458533              -6.6900
        74                         -0.2255573              -6.1377
        75                         -0.1978272              -5.3832
        76                         -0.1895335              -5.1575
        77                         -0.1438013              -3.9130
        78                         -0.1266934              -3.4475
        79                         -0.1190067              -3.2383
       ...                                ...                  ...
       134                          1.1639308              31.6722
      -------------------------------------------------------------
                  HL-Gap            0.0993696 Eh            2.7040 eV

     #   Z          covCN         q      C6AA      α(0)
     1   8 O        0.860    -0.578    25.583     6.781
     2  16 S        3.819     0.934   108.554    17.536
     3   8 O        0.860    -0.578    25.579     6.781
     4   6 C        2.972    -0.071    29.772     8.950
     5   6 C        2.954    -0.024    28.605     8.772
     6   6 C        2.921    -0.021    28.534     8.760
     7   6 C        2.920    -0.021    28.527     8.759
     8   6 C        2.922    -0.021    28.530     8.759
     9   6 C        2.960    -0.026    28.657     8.780
    10   6 C        2.970    -0.077    29.931     8.974
    11   6 C        2.958    -0.025    28.632     8.777
    12   6 C        2.924    -0.038    28.935     8.821
    13   6 C        2.912     0.074    26.355     8.418
    14   7 N        2.801    -0.035    21.926     6.955
    15   6 C        3.069     0.045    26.933     8.510
    16   6 C        2.910    -0.052    29.282     8.873
    17   6 C        2.924    -0.033    28.830     8.805
    18   6 C        2.920    -0.040    29.005     8.832
    19   6 C        2.912    -0.033    28.827     8.804
    20   6 C        3.066    -0.015    28.320     8.726
    21   6 C        3.066    -0.015    28.322     8.727
    22   6 C        2.912    -0.033    28.829     8.804
    23   6 C        2.920    -0.040    29.005     8.832
    24   6 C        2.924    -0.033    28.829     8.805
    25   6 C        2.910    -0.051    29.278     8.873
    26   6 C        3.069     0.045    26.929     8.509
    27   6 C        2.924    -0.038    28.942     8.822
    28   6 C        2.952    -0.023    28.577     8.768
    29   1 H        0.926     0.058     2.228     2.334
    30   1 H        0.926     0.063     2.170     2.303
    31   1 H        0.926     0.064     2.152     2.294
    32   1 H        0.926     0.063     2.165     2.301
    33   1 H        0.926     0.054     2.276     2.359
    34   1 H        0.926     0.060     2.203     2.321
    35   1 H        0.926     0.069     2.099     2.266
    36   1 H        0.926     0.034     2.532     2.488
    37   1 H        0.926     0.035     2.522     2.483
    38   1 H        0.926     0.032     2.559     2.502
    39   1 H        0.926     0.035     2.522     2.483
    40   1 H        0.926     0.035     2.516     2.481
    41   1 H        0.926     0.032     2.562     2.503
    42   1 H        0.926     0.033     2.541     2.493
    43   1 H        0.926     0.032     2.560     2.502
    44   1 H        0.926     0.068     2.105     2.269
    45   1 H        0.926     0.063     2.159     2.298

molecular dipole:
                 x           y           z       tot (Debye)
 q only:        0.727      -2.593      -1.182
   full:        0.596      -2.397      -1.099       6.871

 projected vibrational frequencies (cm⁻¹)
eigval :       -0.00    -0.00    -0.00     0.00     0.00     0.00
eigval :        9.52    18.69    21.28    44.43    47.59    76.76
eigval :      100.61   112.73   133.51   138.80   143.52   153.90
eigval :      198.58   236.37   246.97   272.81   284.94   305.28
eigval :      314.60   364.93   367.25   377.29   390.67   398.00
eigval :      415.68   424.47   436.44   446.09   480.05   513.86
eigval :      518.57   534.75   539.75   541.72   580.73   584.47
eigval :      592.08   610.88   650.05   657.84   675.55   680.03
eigval :      692.16   710.09   738.53   749.72   758.12   770.04
eigval :      781.99   817.02   866.14   874.09   878.62   881.13
eigval :      897.01   903.00   903.74   906.11   917.86   921.55
eigval :      925.62   927.23   927.93   930.59   931.20   965.95
eigval :     1003.62  1011.02  1065.58  1069.13  1069.56  1073.21
eigval :     1101.81  1108.21  1116.42  1118.38  1120.74  1150.76
eigval :     1169.55  1174.26  1175.43  1177.60  1179.82  1188.55
eigval :     1195.09  1232.92  1241.92  1246.33  1257.71  1295.44
eigval :     1297.95  1318.44  1321.46  1354.28  1357.14  1357.65
eigval :     1396.95  1420.87  1425.97  1426.57  1441.44  1469.77
eigval :     1472.63  1485.26  1569.88  1570.50  1572.81  1576.36
eigval :     1587.44  1595.37  1597.39  1611.21  3073.89  3074.99
eigval :     3080.01  3080.67  3086.11  3087.87  3088.86  3091.59
eigval :     3093.99  3096.04  3096.80  3097.17  3099.59  3102.46
eigval :     3105.33  3106.11  3109.02

   temp. (K)  partition function   enthalpy   heat capacity  entropy
                                   cal/mol     cal/K/mol   cal/K/mol   J/K/mol
 298.15  VIB  0.401E+10            12529.844     80.935     77.019
         ROT  0.190E+08              888.752      2.981     36.283
         INT  0.760E+17            13418.596     83.916    113.301
         TR   0.727E+28             1481.254      4.968     43.705
         TOT                       14899.8503    88.8840   157.0061   656.9134

       T/K    H(0)-H(T)+PV         H(T)/Eh          T*S/Eh         G(T)/Eh
   ------------------------------------------------------------------------
    298.15    0.237444E-01    0.359907E+00    0.745986E-01    0.285308E+00
   ------------------------------------------------------------------------

         :::::::::::::::::::::::::::::::::::::::::::::::::::::
         ::                  THERMODYNAMIC                  ::
         :::::::::::::::::::::::::::::::::::::::::::::::::::::
         :: total free energy         -74.105142073540 Eh   ::
         ::.................................................::
         :: total energy              -74.390450522178 Eh   ::
         :: zero point energy           0.336162672398 Eh   ::
         :: G(RRHO) w/o ZPVE           -0.050854223759 Eh   ::
         :: G(RRHO) contrib.            0.285308448638 Eh   ::
         :::::::::::::::::::::::::::::::::::::::::::::::::::::

           -------------------------------------------------
          | TOTAL ENERGY              -74.390450522178 Eh   |
          | TOTAL ENTHALPY            -74.030543426892 Eh   |
          | TOTAL FREE ENERGY         -74.105142073540 Eh   |
          | GRADIENT NORM               0.000080851172 Eh/α |
          | HOMO-LUMO GAP               2.703983542289 eV   |
           -------------------------------------------------

 * finished run on 2025/07/20 at 18:15:58.511
