   * xtb version 6.7.1 (edcfbbe) compiled by 'albert@albert-system' on 2024-07-22

   ID    Z sym.   atoms
    1    8 O      1, 3
    2   16 S      2
    3    6 C      4-13, 15-28
    4    7 N      14
    5    1 H      29-45

          program call               : xtb data2507/toluene/Cz-SO/Cz-SO_toluene_S0_crest.xyz --gfn 2 --gbsa toluene --ohess vtight --parallel 40 --molden --ceasefiles --namespace data2507/toluene/Cz-SO/Cz-SO_toluene_S0_finalOpt
      * Solvation model:               GBSA
        Solvent                        toluene
        Solvent mass                       9.2140E+01 g/mol
          :  Hamiltonian                  GFN2-xTB          :
 * total energy  :   -74.3902152 Eh     change       -0.2612239E-09 Eh
 * total energy  :   -74.3903203 Eh     change       -0.1051001E-03 Eh
 * total energy  :   -74.3903777 Eh     change       -0.5735380E-04 Eh
 * total energy  :   -74.3903855 Eh     change       -0.7819880E-05 Eh
 * total energy  :   -74.3903935 Eh     change       -0.7936322E-05 Eh
 * total energy  :   -74.3903966 Eh     change       -0.3137778E-05 Eh
 * total energy  :   -74.3903994 Eh     change       -0.2785983E-05 Eh
 * total energy  :   -74.3904014 Eh     change       -0.2069565E-05 Eh
 * total energy  :   -74.3904042 Eh     change       -0.2743050E-05 Eh
 * total energy  :   -74.3904083 Eh     change       -0.4102591E-05 Eh
 * total energy  :   -74.3904347 Eh     change       -0.2020406E-05 Eh
 * total energy  :   -74.3904363 Eh     change       -0.1634880E-05 Eh
 * total energy  :   -74.3904366 Eh     change       -0.2391770E-06 Eh
 * total energy  :   -74.3904374 Eh     change       -0.8689887E-06 Eh
 * total energy  :   -74.3904383 Eh     change       -0.8809867E-06 Eh
 * total energy  :   -74.3904395 Eh     change       -0.1220011E-05 Eh
 * total energy  :   -74.3904403 Eh     change       -0.7845833E-06 Eh
 * total energy  :   -74.3904406 Eh     change       -0.3195086E-06 Eh
 * total energy  :   -74.3904407 Eh     change       -0.6023583E-07 Eh
   *** GEOMETRY OPTIMIZATION CONVERGED AFTER 27 ITERATIONS ***

 final structure:
================
45
 xtb: 6.7.1 (edcfbbe)
O           -3.86902748632878        1.71874309817846        1.66851439869377
S           -3.52177783613026        1.38726163285574        0.30194460043806
O           -3.82755676721733        2.37862711359001       -0.70864698624679
C           -4.31559912497636       -0.16185732903654       -0.13784894899718
C           -4.95919866106154       -0.90528249335698        0.83183493436695
C           -5.54116142155342       -2.11290879537041        0.47987015308530
C           -5.46660268288806       -2.55878602764379       -0.83064127611816
C           -4.81553660021882       -1.80329255428285       -1.79475261133972
C           -4.23263248453704       -0.59566416090983       -1.44753914452206
C           -1.76908797004321        1.01256218425699        0.22523397797591
C           -1.23057882079482        0.16470241684226        1.17635984292497
C            0.11219168508228       -0.15467577941133        1.12074608560116
C            0.91319051496408        0.36750856775148        0.10209453789929
N            2.26907643483069        0.04334414629398        0.04330716403186
C            2.80326667324333       -1.23094665472199        0.14164003288085
C            2.15866615202922       -2.45545662528009        0.24278392295266
C            2.94026628998281       -3.59507269448189        0.28862261088718
C            4.33015255350960       -3.52749170312429        0.22389980568123
C            4.97594169387296       -2.31344325057323        0.09577165552766
C            4.21117141590955       -1.15489810383515        0.04833632171052
C            4.53817443973602        0.23709311426338       -0.10088594695146
C            5.73878572091323        0.92679347032643       -0.21158530645775
C            5.70374549340727        2.30353413443415       -0.31499281362413
C            4.49283796971525        2.99184646966237       -0.29253544801160
C            3.28556696445987        2.32652387940431       -0.18387699741876
C            3.31315502507568        0.94153506616513       -0.10590627764324
C            0.35230669879038        1.21697971220846       -0.85338522657756
C           -0.99023959823018        1.53938183392101       -0.78752763707930
H           -5.00288737895309       -0.51998309197581        1.83886602509653
H           -6.05115541373720       -2.70170716728607        1.22692293952551
H           -5.92109351679624       -3.49933612491851       -1.10345881994710
H           -4.76250933691224       -2.15279681745401       -2.81448101528571
H           -3.72930883855531        0.02118287822698       -2.17534755771069
H           -1.86351748558656       -0.21518810332826        1.96257704110458
H            0.55304902048161       -0.79095581136578        1.87232832029630
H            1.08197952329654       -2.52309128158930        0.27323271381041
H            2.46140552012865       -4.55968467473946        0.37197606203695
H            4.90621258363165       -4.44016922511681        0.26516481662570
H            6.05210987314999       -2.26154860728827        0.02744268265350
H            6.67778028324421        0.39403752586850       -0.21024606125386
H            6.62568890732641        2.85908154524820       -0.40382919495764
H            4.49633554251846        4.07013178389883       -0.35753835365880
H            2.35595162956623        2.87370704546003       -0.14627907501751
H            0.96696707574611        1.60527764543885       -1.65060788926150
H           -1.45053930870447        2.19642310839705       -1.50898717772563

          :  Hamiltonian                  GFN2-xTB          :
         :: gradient norm              0.000051678742 Eh/a0 ::
         :: HOMO-LUMO gap              2.721715268455 eV    ::
         :: SCC energy               -75.652201435645 Eh    ::
         :: -> dispersion             -0.059159849065 Eh    ::
         :: -> Gsolv                  -0.038949873045 Eh    ::
         :: repulsion energy           1.261760729384 Eh    ::

    * Orbital Energies and Occupations

         #    Occupation            Energy/Eh            Energy/eV
      -------------------------------------------------------------
         1        2.0000           -0.7761068             -21.1189
       ...           ...                  ...                  ...
        56        2.0000           -0.4400086             -11.9732
        57        2.0000           -0.4388290             -11.9411
        58        2.0000           -0.4332448             -11.7892
        59        2.0000           -0.4295768             -11.6894
        60        2.0000           -0.4280053             -11.6466
        61        2.0000           -0.4274142             -11.6305
        62        2.0000           -0.4252646             -11.5720
        63        2.0000           -0.4216207             -11.4729
        64        2.0000           -0.4211669             -11.4605
        65        2.0000           -0.4100233             -11.1573
        66        2.0000           -0.4081289             -11.1058
        67        2.0000           -0.3823808             -10.4051
        68        2.0000           -0.3691831             -10.0460 (HOMO)
        69                         -0.2691619              -7.3243 (LUMO)
        70                         -0.2541168              -6.9149
        71                         -0.2510299              -6.8309
        72                         -0.2469092              -6.7187
        73                         -0.2459049              -6.6914
        74                         -0.2255981              -6.1388
        75                         -0.1978690              -5.3843
        76                         -0.1895595              -5.1582
        77                         -0.1436103              -3.9078
        78                         -0.1275174              -3.4699
        79                         -0.1190723              -3.2401
       ...                                ...                  ...
       134                          1.1650131              31.7016
      -------------------------------------------------------------
                  HL-Gap            0.1000212 Eh            2.7217 eV

     #   Z          covCN         q      C6AA      α(0)
     1   8 O        0.860    -0.578    25.592     6.783
     2  16 S        3.819     0.935   108.546    17.535
     3   8 O        0.860    -0.578    25.585     6.782
     4   6 C        2.972    -0.071    29.764     8.949
     5   6 C        2.954    -0.024    28.598     8.771
     6   6 C        2.921    -0.021    28.533     8.760
     7   6 C        2.920    -0.021    28.526     8.758
     8   6 C        2.921    -0.021    28.527     8.759
     9   6 C        2.961    -0.026    28.660     8.781
    10   6 C        2.970    -0.077    29.925     8.973
    11   6 C        2.959    -0.026    28.638     8.778
    12   6 C        2.924    -0.038    28.935     8.821
    13   6 C        2.912     0.074    26.355     8.418
    14   7 N        2.801    -0.035    21.923     6.954
    15   6 C        3.069     0.044    26.933     8.510
    16   6 C        2.910    -0.052    29.284     8.873
    17   6 C        2.924    -0.033    28.830     8.805
    18   6 C        2.920    -0.040    29.004     8.832
    19   6 C        2.912    -0.033    28.827     8.804
    20   6 C        3.066    -0.015    28.319     8.726
    21   6 C        3.066    -0.015    28.322     8.727
    22   6 C        2.912    -0.033    28.829     8.804
    23   6 C        2.920    -0.040    29.004     8.832
    24   6 C        2.924    -0.033    28.828     8.805
    25   6 C        2.910    -0.051    29.278     8.873
    26   6 C        3.069     0.045    26.929     8.509
    27   6 C        2.924    -0.038    28.943     8.823
    28   6 C        2.952    -0.023    28.569     8.767
    29   1 H        0.926     0.058     2.227     2.334
    30   1 H        0.926     0.063     2.170     2.303
    31   1 H        0.926     0.064     2.151     2.294
    32   1 H        0.926     0.063     2.164     2.300
    33   1 H        0.926     0.053     2.285     2.364
    34   1 H        0.926     0.059     2.213     2.326
    35   1 H        0.926     0.069     2.097     2.264
    36   1 H        0.926     0.034     2.530     2.487
    37   1 H        0.926     0.035     2.521     2.483
    38   1 H        0.926     0.032     2.559     2.501
    39   1 H        0.926     0.035     2.522     2.483
    40   1 H        0.926     0.035     2.516     2.480
    41   1 H        0.926     0.032     2.562     2.503
    42   1 H        0.926     0.033     2.541     2.493
    43   1 H        0.926     0.032     2.559     2.502
    44   1 H        0.926     0.068     2.105     2.269
    45   1 H        0.926     0.063     2.159     2.298

molecular dipole:
                 x           y           z       tot (Debye)
 q only:        1.045      -2.656      -0.711
   full:        0.891      -2.462      -0.663       6.866

 projected vibrational frequencies (cm⁻¹)
eigval :       -0.00    -0.00    -0.00    -0.00     0.00     0.00
eigval :       10.33    18.95    24.16    43.96    47.08    73.87
eigval :      102.42   111.23   133.23   137.57   143.77   154.31
eigval :      199.15   235.93   246.54   273.12   284.02   306.38
eigval :      312.22   362.49   364.15   376.28   390.11   398.03
eigval :      416.54   425.36   438.02   447.87   480.88   513.93
eigval :      518.55   535.20   539.51   542.18   580.51   583.81
eigval :      591.91   611.23   649.68   656.84   677.21   680.79
eigval :      692.57   711.41   738.78   750.59   758.03   771.47
eigval :      782.90   817.22   868.55   875.49   878.90   882.45
eigval :      897.13   902.98   906.47   907.66   917.76   922.53
eigval :      925.81   927.00   927.69   931.64   934.17   965.95
eigval :     1003.30  1011.17  1065.54  1069.13  1069.33  1073.21
eigval :     1101.69  1108.13  1115.01  1117.58  1120.42  1150.66
eigval :     1167.38  1171.13  1175.08  1177.59  1179.64  1188.11
eigval :     1194.72  1232.56  1242.33  1244.56  1257.53  1295.48
eigval :     1297.92  1318.41  1321.65  1354.28  1357.34  1357.87
eigval :     1396.83  1420.74  1425.70  1426.52  1441.46  1469.63
eigval :     1472.80  1485.18  1569.88  1570.73  1572.88  1576.72
eigval :     1587.77  1595.39  1597.25  1611.02  3073.75  3074.51
eigval :     3080.00  3080.75  3084.94  3088.11  3089.28  3090.79
eigval :     3094.26  3096.36  3096.63  3096.93  3098.19  3102.25
eigval :     3104.88  3105.78  3107.58

   temp. (K)  partition function   enthalpy   heat capacity  entropy
                                   cal/mol     cal/K/mol   cal/K/mol   J/K/mol
 298.15  VIB  0.343E+10            12530.256     80.902     76.905
         ROT  0.189E+08              888.752      2.981     36.282
         INT  0.649E+17            13419.009     83.883    113.187
         TR   0.727E+28             1481.254      4.968     43.705
         TOT                       14900.2626    88.8512   156.8916   656.4346

       T/K    H(0)-H(T)+PV         H(T)/Eh          T*S/Eh         G(T)/Eh
   ------------------------------------------------------------------------
    298.15    0.237451E-01    0.359908E+00    0.745443E-01    0.285364E+00
   ------------------------------------------------------------------------

         :::::::::::::::::::::::::::::::::::::::::::::::::::::
         ::                  THERMODYNAMIC                  ::
         :::::::::::::::::::::::::::::::::::::::::::::::::::::
         :: total free energy         -74.105076538001 Eh   ::
         ::.................................................::
         :: total energy              -74.390440709755 Eh   ::
         :: zero point energy           0.336163370478 Eh   ::
         :: G(RRHO) w/o ZPVE           -0.050799198724 Eh   ::
         :: G(RRHO) contrib.            0.285364171754 Eh   ::
         :::::::::::::::::::::::::::::::::::::::::::::::::::::

           -------------------------------------------------
          | TOTAL ENERGY              -74.390440709755 Eh   |
          | TOTAL ENTHALPY            -74.030532259306 Eh   |
          | TOTAL FREE ENERGY         -74.105076538001 Eh   |
          | GRADIENT NORM               0.000051711953 Eh/α |
          | HOMO-LUMO GAP               2.721714243710 eV   |
           -------------------------------------------------

 * finished run on 2025/07/20 at 18:17:57.492
