   * xtb version 6.7.1 (edcfbbe) compiled by 'albert@albert-system' on 2024-07-22

   ID    Z sym.   atoms
    1    8 O      1, 3
    2   16 S      2
    3    6 C      4-13, 15-28
    4    7 N      14
    5    1 H      29-45

          program call               : xtb data2507/toluene/Cz-SO/Cz-SO_toluene_S0_finalOpt.xtbopt.xyz --gfn 2 --uhf 2 --gbsa toluene --ohess vtight --parallel 40 --molden --ceasefiles --namespace data2507/toluene/Cz-SO/Cz-SO_toluene_T1_preOpt
      * Solvation model:               GBSA
        Solvent                        toluene
        Solvent mass                       9.2140E+01 g/mol
          :  Hamiltonian                  GFN2-xTB          :
 * total energy  :   -74.2757129 Eh     change       -0.4127543E-09 Eh
 * total energy  :   -74.2785883 Eh     change       -0.2875421E-02 Eh
 * total energy  :   -74.2793981 Eh     change       -0.8098008E-03 Eh
 * total energy  :   -74.2795372 Eh     change       -0.1391266E-03 Eh
 * total energy  :   -74.2796098 Eh     change       -0.7256601E-04 Eh
 * total energy  :   -74.2796413 Eh     change       -0.3149998E-04 Eh
 * total energy  :   -74.2796751 Eh     change       -0.3380175E-04 Eh
 * total energy  :   -74.2797119 Eh     change       -0.3680875E-04 Eh
 * total energy  :   -74.2797517 Eh     change       -0.3980370E-04 Eh
 * total energy  :   -74.2797882 Eh     change       -0.3647874E-04 Eh
 * total energy  :   -74.2808436 Eh     change       -0.4867976E-06 Eh
 * total energy  :   -74.2808440 Eh     change       -0.3839484E-06 Eh
 * total energy  :   -74.2808443 Eh     change       -0.3072539E-06 Eh
 * total energy  :   -74.2808445 Eh     change       -0.2661986E-06 Eh
 * total energy  :   -74.2808448 Eh     change       -0.2777781E-06 Eh
 * total energy  :   -74.2808451 Eh     change       -0.2858859E-06 Eh
 * total energy  :   -74.2808454 Eh     change       -0.2968424E-06 Eh
 * total energy  :   -74.2808457 Eh     change       -0.2828602E-06 Eh
 * total energy  :   -74.2808457 Eh     change       -0.3849948E-08 Eh
   *** GEOMETRY OPTIMIZATION CONVERGED AFTER 122 ITERATIONS ***

 final structure:
================
45
 xtb: 6.7.1 (edcfbbe)
O           -3.97587703978990        1.22241572538833        2.15241598337924
S           -3.56022806824344        1.29798294026964        0.76156952689264
O           -3.90728406904591        2.50862237116840        0.03613164854247
C           -4.23079139372253       -0.10802610033578       -0.11092143420032
C           -4.47745814878327       -1.28350357052768        0.58298280974445
C           -4.89427703688742       -2.40465187858118       -0.10989300853403
C           -5.05160162077557       -2.35096085650503       -1.48894548371247
C           -4.79720532189526       -1.17055059214759       -2.17588619815232
C           -4.38009681177319       -0.04619782925434       -1.48850171510422
C           -1.82651197185944        1.03000516083793        0.65419956404311
C           -1.19311144087358        0.17863769536715        1.58345286593955
C            0.11491363491889       -0.16496030748873        1.41972255052645
C            0.86051685807458        0.34228997869406        0.31437807760476
N            2.18566079758704        0.01143020901681        0.15463978161402
C            2.72686924865207       -1.24972251291313        0.32378671674452
C            2.09019597495415       -2.45256318042545        0.59789966276910
C            2.87095690346592       -3.59728321345754        0.69309047526629
C            4.25277064744243       -3.54081148412137        0.50367336750543
C            4.89391846702332       -2.35034541715453        0.18949591425823
C            4.13352005871080       -1.19303611102955        0.08004709724958
C            4.43348063541114        0.16267041218704       -0.26295506158414
C            5.60151504110445        0.83568847838535       -0.59742690634035
C            5.53910938689938        2.20293243334517       -0.82913112981473
C            4.33925362421144        2.90745374696814       -0.71783596029289
C            3.15645752536901        2.25566459273030       -0.39354797712245
C            3.20059425754328        0.88201609944472       -0.19787525400953
C            0.20783730275021        1.20173123330174       -0.61790484682795
C           -1.10881195439049        1.51391229427555       -0.45935902563861
H           -4.35827848548683       -1.28671027707554        1.65533258070349
H           -5.09955450354054       -3.32078937456240        0.42351377351092
H           -5.37592700778058       -3.22802740131223       -2.02810419056516
H           -4.92683588574362       -1.12881022095942       -3.24703364480324
H           -4.18611074842057        0.88955436860049       -1.98940458775848
H           -1.76585855769755       -0.15178625644175        2.43525838526848
H            0.62724498619523       -0.75229506279024        2.16604017752871
H            1.01878137053522       -2.50658380261404        0.71028295004904
H            2.40005030369735       -4.54402601621753        0.90510340335129
H            4.83150364486193       -4.44865081573256        0.58658050123217
H            5.95997126248059       -2.32440201866094        0.02658028415174
H            6.53913308641005        0.30684394691384       -0.66741338866353
H            6.44083001619721        2.73927990871802       -1.08446666313378
H            4.33067829362338        3.97456496604086       -0.87382905482861
H            2.23882810238072        2.80992938441184       -0.27474527217111
H            0.75049669581596        1.53172364682132       -1.49017336063327
H           -1.63338094443282        2.14130170506105       -1.16228330745261

          :  Hamiltonian                  GFN2-xTB          :
         :: gradient norm              0.000040041840 Eh/a0 ::
         :: HOMO-LUMO gap              0.257228276179 eV    ::
         :: SCC energy               -75.520904313371 Eh    ::
         :: -> dispersion             -0.059292413053 Eh    ::
         :: -> Gsolv                  -0.044446739779 Eh    ::
         :: repulsion energy           1.240058629915 Eh    ::

    * Orbital Energies and Occupations

         #    Occupation            Energy/Eh            Energy/eV
      -------------------------------------------------------------
         1        2.0000           -0.7605624             -20.6960
       ...           ...                  ...                  ...
        57        2.0000           -0.4345757             -11.8254
        58        2.0000           -0.4340558             -11.8113
        59        2.0000           -0.4317621             -11.7488
        60        2.0000           -0.4279604             -11.6454
        61        2.0000           -0.4254853             -11.5780
        62        2.0000           -0.4234332             -11.5222
        63        2.0000           -0.4176720             -11.3654
        64        2.0000           -0.4165602             -11.3352
        65        2.0000           -0.4144207             -11.2770
        66        2.0000           -0.3973578             -10.8127
        67        1.9987           -0.3938699             -10.7177
        68        1.0014           -0.3812963             -10.3756
        69        0.9931           -0.2696466              -7.3375 (HOMO)
        70        0.0069           -0.2601940              -7.0802 (LUMO)
        71                         -0.2422821              -6.5928
        72                         -0.2415594              -6.5732
        73                         -0.2366790              -6.4404
        74                         -0.2337991              -6.3620
        75                         -0.2113694              -5.7517
        76                         -0.2028181              -5.5190
        77                         -0.1387186              -3.7747
        78                         -0.1155021              -3.1430
        79                         -0.1080356              -2.9398
        80                         -0.0934016              -2.5416
       ...                                ...                  ...
       134                          1.1525986              31.3638
      -------------------------------------------------------------
                  HL-Gap            0.0094526 Eh            0.2572 eV

     #   Z          covCN         q      C6AA      α(0)
     1   8 O        0.860    -0.589    25.848     6.816
     2  16 S        3.826     0.888   109.927    17.646
     3   8 O        0.860    -0.589    25.842     6.816
     4   6 C        2.970    -0.077    29.908     8.971
     5   6 C        2.957    -0.031    28.777     8.799
     6   6 C        2.920    -0.026    28.656     8.779
     7   6 C        2.919    -0.032    28.799     8.800
     8   6 C        2.920    -0.026    28.656     8.778
     9   6 C        2.957    -0.031    28.776     8.799
    10   6 C        2.964    -0.095    30.381     9.041
    11   6 C        2.949    -0.035    28.859     8.811
    12   6 C        2.913    -0.037    28.931     8.820
    13   6 C        2.910     0.027    27.396     8.583
    14   7 N        2.793     0.048    20.395     6.707
    15   6 C        3.064     0.036    27.129     8.541
    16   6 C        2.907    -0.029    28.720     8.788
    17   6 C        2.919    -0.040    28.986     8.829
    18   6 C        2.918    -0.019    28.490     8.753
    19   6 C        2.909    -0.027    28.682     8.782
    20   6 C        3.054    -0.010    28.216     8.711
    21   6 C        3.055    -0.010    28.216     8.711
    22   6 C        2.909    -0.027    28.683     8.782
    23   6 C        2.918    -0.019    28.490     8.753
    24   6 C        2.919    -0.040    28.985     8.829
    25   6 C        2.907    -0.029    28.717     8.787
    26   6 C        3.063     0.036    27.127     8.541
    27   6 C        2.913    -0.038    28.934     8.820
    28   6 C        2.949    -0.034    28.848     8.809
    29   1 H        0.926     0.044     2.400     2.423
    30   1 H        0.926     0.051     2.303     2.373
    31   1 H        0.926     0.052     2.296     2.370
    32   1 H        0.926     0.051     2.306     2.375
    33   1 H        0.926     0.043     2.407     2.426
    34   1 H        0.926     0.047     2.355     2.400
    35   1 H        0.926     0.061     2.191     2.315
    36   1 H        0.926     0.053     2.285     2.364
    37   1 H        0.926     0.046     2.369     2.407
    38   1 H        0.926     0.050     2.320     2.382
    39   1 H        0.926     0.050     2.315     2.379
    40   1 H        0.926     0.051     2.312     2.378
    41   1 H        0.926     0.050     2.323     2.383
    42   1 H        0.926     0.045     2.380     2.413
    43   1 H        0.926     0.052     2.300     2.371
    44   1 H        0.926     0.060     2.193     2.316
    45   1 H        0.926     0.048     2.348     2.396

molecular dipole:
                 x           y           z       tot (Debye)
 q only:        4.741      -2.624      -1.433
   full:        4.474      -2.458      -1.351      13.423

 projected vibrational frequencies (cm⁻¹)
eigval :       -0.00    -0.00     0.00     0.00     0.00     0.00
eigval :       14.10    17.04    23.22    42.08    49.10    84.50
eigval :      100.27   114.85   124.92   137.91   144.36   157.19
eigval :      186.30   229.29   239.93   266.66   277.57   288.12
eigval :      311.41   358.98   364.66   369.01   380.63   386.09
eigval :      398.03   404.27   408.57   425.33   436.46   486.08
eigval :      489.52   506.05   515.28   553.11   563.84   573.38
eigval :      583.37   602.54   616.28   641.65   643.97   656.00
eigval :      677.39   689.58   722.26   743.47   747.40   751.10
eigval :      751.95   778.30   815.19   843.81   849.08   871.51
eigval :      875.67   884.09   887.63   888.27   893.47   896.68
eigval :      898.22   900.20   904.93   921.12   922.62   954.28
eigval :      963.41   973.07  1027.42  1028.70  1050.57  1055.11
eigval :     1062.64  1064.66  1091.35  1099.42  1102.62  1114.48
eigval :     1153.55  1164.29  1168.80  1169.02  1171.51  1178.68
eigval :     1191.48  1192.04  1194.08  1228.76  1233.79  1259.29
eigval :     1279.45  1280.33  1288.99  1323.51  1325.63  1339.36
eigval :     1371.90  1378.51  1382.58  1424.62  1430.12  1436.54
eigval :     1445.54  1455.43  1465.02  1475.85  1495.57  1537.19
eigval :     1539.28  1543.15  1549.69  1578.51  3079.49  3082.49
eigval :     3084.56  3085.49  3088.46  3090.56  3093.12  3095.39
eigval :     3096.27  3098.26  3099.32  3100.78  3100.89  3103.86
eigval :     3105.11  3107.09  3108.12

   temp. (K)  partition function   enthalpy   heat capacity  entropy
                                   cal/mol     cal/K/mol   cal/K/mol   J/K/mol
 298.15  VIB  0.394E+10            12890.777     83.489     78.601
         ROT  0.186E+08              888.752      2.981     36.243
         INT  0.732E+17            13779.530     86.470    114.845
         TR   0.727E+28             1481.254      4.968     43.705
         TOT                       15260.7836    91.4378   158.5491   663.3696

       T/K    H(0)-H(T)+PV         H(T)/Eh          T*S/Eh         G(T)/Eh
   ------------------------------------------------------------------------
    298.15    0.243196E-01    0.354984E+00    0.753318E-01    0.279652E+00
   ------------------------------------------------------------------------

         :::::::::::::::::::::::::::::::::::::::::::::::::::::
         ::                  THERMODYNAMIC                  ::
         :::::::::::::::::::::::::::::::::::::::::::::::::::::
         :: total free energy         -74.001193350801 Eh   ::
         ::.................................................::
         :: total energy              -74.280845684395 Eh   ::
         :: zero point energy           0.330664537922 Eh   ::
         :: G(RRHO) w/o ZPVE           -0.051012204329 Eh   ::
         :: G(RRHO) contrib.            0.279652333594 Eh   ::
         :::::::::::::::::::::::::::::::::::::::::::::::::::::

           -------------------------------------------------
          | TOTAL ENERGY              -74.280845684395 Eh   |
          | TOTAL ENTHALPY            -73.925861539764 Eh   |
          | TOTAL FREE ENERGY         -74.001193350801 Eh   |
          | GRADIENT NORM               0.000042464053 Eh/α |
          | HOMO-LUMO GAP               0.257217425139 eV   |
           -------------------------------------------------

 * finished run on 2025/07/20 at 18:18:02.924
