   * xtb version 6.7.1 (edcfbbe) compiled by 'albert@albert-system' on 2024-07-22

   ID    Z sym.   atoms
    1    8 O      1, 3
    2   16 S      2
    3    6 C      4-13, 15-28
    4    7 N      14
    5    1 H      29-45

          program call               : xtb data2507/toluene/Cz-SO/Cz-SO_toluene_T1_crest.xyz --gfn 2 --uhf 2 --gbsa toluene --ohess vtight --parallel 40 --molden --ceasefiles --namespace data2507/toluene/Cz-SO/Cz-SO_toluene_T1_finalOpt
      * Solvation model:               GBSA
        Solvent                        toluene
        Solvent mass                       9.2140E+01 g/mol
          :  Hamiltonian                  GFN2-xTB          :
 * total energy  :   -74.2803627 Eh     change       -0.2832934E-09 Eh
 * total energy  :   -74.2806089 Eh     change       -0.2461811E-03 Eh
 * total energy  :   -74.2807742 Eh     change       -0.1653019E-03 Eh
 * total energy  :   -74.2807860 Eh     change       -0.1175991E-04 Eh
 * total energy  :   -74.2807984 Eh     change       -0.1243544E-04 Eh
 * total energy  :   -74.2808047 Eh     change       -0.6343821E-05 Eh
 * total energy  :   -74.2808119 Eh     change       -0.7149526E-05 Eh
 * total energy  :   -74.2808167 Eh     change       -0.4814137E-05 Eh
 * total energy  :   -74.2808226 Eh     change       -0.5918708E-05 Eh
 * total energy  :   -74.2808290 Eh     change       -0.6413258E-05 Eh
 * total energy  :   -74.2808514 Eh     change       -0.6013230E-06 Eh
 * total energy  :   -74.2808515 Eh     change       -0.1590890E-06 Eh
 * total energy  :   -74.2808518 Eh     change       -0.2866899E-06 Eh
 * total energy  :   -74.2808521 Eh     change       -0.2770224E-06 Eh
 * total energy  :   -74.2808523 Eh     change       -0.2016616E-06 Eh
 * total energy  :   -74.2808525 Eh     change       -0.1760993E-06 Eh
 * total energy  :   -74.2808526 Eh     change       -0.1519915E-06 Eh
 * total energy  :   -74.2808527 Eh     change       -0.1032996E-06 Eh
 * total energy  :   -74.2808528 Eh     change       -0.9562386E-07 Eh
   *** GEOMETRY OPTIMIZATION CONVERGED AFTER 31 ITERATIONS ***

 final structure:
================
45
 xtb: 6.7.1 (edcfbbe)
O           -4.03191873958014        0.99732960012048        2.07947113125595
S           -3.59564560877128        1.16625076723798        0.70333109119700
O           -3.97115660781866        2.40456150665587        0.04133762336670
C           -4.20178399473297       -0.20882706559449       -0.26107703206413
C           -4.30517694047646       -0.08004320384429       -1.63838166917767
C           -4.66775040819747       -1.17773521535168       -2.39610026812738
C           -4.91449477682819       -2.39771795156127       -1.77907596691212
C           -4.80465346376145       -2.51796487712759       -0.39954845292077
C           -4.44122385858896       -1.42397958360517        0.36340512357702
C           -1.85260041358869        0.96127190331627        0.61210387154958
C           -1.19976985010861        0.09935592255049        1.51778051585975
C            0.12098779180755       -0.19347504123298        1.35702452914332
C            0.85941388240925        0.37516469781402        0.27674503263494
N            2.19603772092921        0.09491113827528        0.11783526362584
C            2.78096931136258       -1.15080402463093        0.25316787845020
C            2.18715585422757       -2.38284044677784        0.49177415285472
C            3.00816727432571       -3.50087545839826        0.55990015700535
C            4.38763864204868       -3.39019953828304        0.37729416167152
C            4.98635417010278       -2.16969192934416        0.09668841247250
C            4.18536029347392       -1.03778729126343        0.01580303711161
C            4.43822903954851        0.33668953069073       -0.28826205136494
C            5.58227312771534        1.05900209150167       -0.60203639292546
C            5.47254525604773        2.42920795176333       -0.79518090981890
C            4.24912075690974        3.08841374335597       -0.66411020815362
C            3.08965915374845        2.38710455967078       -0.35980908247044
C            3.18096681741569        1.01043559254838       -0.20534607571707
C            0.18665936033183        1.24411172494613       -0.63228248574646
C           -1.14054418816856        1.50816002971734       -0.47586219101170
H           -4.11982505655236        0.88474913430507       -2.08434278299607
H           -4.76087938886085       -1.08457634888521       -3.46780881814316
H           -5.19687814484600       -3.25362108017916       -2.37309479299037
H           -5.00442044465769       -3.46509111147545        0.07908101496601
H           -4.35794631606920       -1.47873699312593        1.43778524955014
H           -1.76983275093694       -0.28056283620592        2.35059176866280
H            0.64573879957738       -0.78750148536778        2.08925949217588
H            1.11807070411313       -2.47881069531871        0.59794419322418
H            2.57084556643479       -4.46909078341091        0.74502748103591
H            4.99826323270000       -4.27867458051069        0.43860243820211
H            6.05118184252144       -2.10128623793003       -0.06192791453496
H            6.53758798596228        0.56506884725143       -0.68630025646045
H            6.35502080376673        3.00343447980562       -1.03488234381916
H            4.20382085426067        4.15867810882070       -0.78903933859619
H            2.15360093604131        2.90581668866581       -0.22478759057476
H            0.72510865511906        1.62115157368043       -1.48784531594673
H           -1.67863191176097        2.14342483403145       -1.16118302541877

          :  Hamiltonian                  GFN2-xTB          :
         :: gradient norm              0.000078823068 Eh/a0 ::
         :: HOMO-LUMO gap              0.259414063741 eV    ::
         :: SCC energy               -75.520885763658 Eh    ::
         :: -> dispersion             -0.059303457617 Eh    ::
         :: -> Gsolv                  -0.044441188304 Eh    ::
         :: repulsion energy           1.240032928777 Eh    ::

    * Orbital Energies and Occupations

         #    Occupation            Energy/Eh            Energy/eV
      -------------------------------------------------------------
         1        2.0000           -0.7605877             -20.6966
       ...           ...                  ...                  ...
        57        2.0000           -0.4345782             -11.8255
        58        2.0000           -0.4340327             -11.8106
        59        2.0000           -0.4317038             -11.7473
        60        2.0000           -0.4279967             -11.6464
        61        2.0000           -0.4254853             -11.5780
        62        2.0000           -0.4234007             -11.5213
        63        2.0000           -0.4176847             -11.3658
        64        2.0000           -0.4165457             -11.3348
        65        2.0000           -0.4143855             -11.2760
        66        2.0000           -0.3973699             -10.8130
        67        1.9987           -0.3938611             -10.7175
        68        1.0013           -0.3812289             -10.3738
        69        0.9934           -0.2697006              -7.3389 (HOMO)
        70        0.0066           -0.2601668              -7.0795 (LUMO)
        71                         -0.2422749              -6.5926
        72                         -0.2415273              -6.5723
        73                         -0.2366802              -6.4404
        74                         -0.2337789              -6.3614
        75                         -0.2113040              -5.7499
        76                         -0.2027985              -5.5184
        77                         -0.1386999              -3.7742
        78                         -0.1154615              -3.1419
        79                         -0.1079054              -2.9363
        80                         -0.0935434              -2.5454
       ...                                ...                  ...
       134                          1.1526288              31.3646
      -------------------------------------------------------------
                  HL-Gap            0.0095338 Eh            0.2594 eV

     #   Z          covCN         q      C6AA      α(0)
     1   8 O        0.860    -0.589    25.838     6.815
     2  16 S        3.826     0.888   109.923    17.646
     3   8 O        0.860    -0.589    25.848     6.816
     4   6 C        2.970    -0.077    29.910     8.971
     5   6 C        2.957    -0.031    28.778     8.799
     6   6 C        2.920    -0.026    28.656     8.778
     7   6 C        2.919    -0.032    28.800     8.800
     8   6 C        2.920    -0.026    28.656     8.778
     9   6 C        2.957    -0.031    28.777     8.799
    10   6 C        2.964    -0.095    30.383     9.041
    11   6 C        2.949    -0.034    28.857     8.811
    12   6 C        2.913    -0.038    28.933     8.820
    13   6 C        2.910     0.027    27.395     8.583
    14   7 N        2.793     0.049    20.393     6.707
    15   6 C        3.064     0.036    27.130     8.541
    16   6 C        2.907    -0.029    28.722     8.788
    17   6 C        2.919    -0.040    28.986     8.829
    18   6 C        2.918    -0.019    28.491     8.753
    19   6 C        2.909    -0.027    28.681     8.782
    20   6 C        3.054    -0.010    28.215     8.711
    21   6 C        3.055    -0.010    28.216     8.711
    22   6 C        2.909    -0.027    28.681     8.782
    23   6 C        2.918    -0.019    28.492     8.753
    24   6 C        2.919    -0.040    28.984     8.828
    25   6 C        2.907    -0.029    28.718     8.787
    26   6 C        3.063     0.036    27.130     8.541
    27   6 C        2.913    -0.038    28.934     8.820
    28   6 C        2.949    -0.034    28.853     8.810
    29   1 H        0.926     0.043     2.409     2.427
    30   1 H        0.926     0.051     2.305     2.374
    31   1 H        0.926     0.052     2.296     2.370
    32   1 H        0.926     0.051     2.304     2.374
    33   1 H        0.926     0.044     2.399     2.422
    34   1 H        0.926     0.047     2.353     2.399
    35   1 H        0.926     0.061     2.190     2.314
    36   1 H        0.926     0.053     2.284     2.363
    37   1 H        0.926     0.046     2.369     2.407
    38   1 H        0.926     0.050     2.321     2.382
    39   1 H        0.926     0.050     2.315     2.379
    40   1 H        0.926     0.051     2.312     2.378
    41   1 H        0.926     0.050     2.323     2.383
    42   1 H        0.926     0.045     2.380     2.412
    43   1 H        0.926     0.052     2.298     2.371
    44   1 H        0.926     0.061     2.191     2.315
    45   1 H        0.926     0.048     2.351     2.398

molecular dipole:
                 x           y           z       tot (Debye)
 q only:        4.849      -2.388      -1.500
   full:        4.575      -2.237      -1.413      13.432

 projected vibrational frequencies (cm⁻¹)
eigval :       -0.00    -0.00    -0.00     0.00     0.00     0.00
eigval :       12.91    16.30    39.67    41.56    47.38    86.88
eigval :       96.98   114.53   125.22   134.68   144.16   157.02
eigval :      186.50   228.84   240.06   266.97   277.37   288.00
eigval :      311.92   359.19   366.57   368.71   381.02   385.95
eigval :      398.03   403.19   407.82   427.47   436.96   486.28
eigval :      489.99   504.45   515.40   552.36   564.08   573.56
eigval :      583.36   602.15   616.63   642.25   646.23   654.58
eigval :      677.34   688.52   722.03   741.06   747.33   752.83
eigval :      753.77   779.46   816.52   845.43   850.94   870.28
eigval :      876.18   884.98   887.93   888.22   890.66   898.49
eigval :      900.36   902.88   907.42   919.33   920.40   954.26
eigval :      963.31   973.65  1028.06  1029.18  1050.86  1055.23
eigval :     1062.66  1064.62  1091.06  1099.59  1101.40  1114.99
eigval :     1153.82  1164.84  1168.91  1169.78  1170.80  1176.52
eigval :     1192.01  1192.79  1194.25  1228.93  1233.83  1258.36
eigval :     1279.58  1280.59  1289.07  1323.98  1325.82  1339.43
eigval :     1371.70  1378.41  1382.74  1424.61  1429.44  1436.75
eigval :     1445.62  1455.58  1465.26  1476.07  1495.70  1536.99
eigval :     1539.03  1543.06  1550.02  1578.26  3079.14  3082.81
eigval :     3084.85  3085.23  3088.97  3091.09  3092.15  3094.68
eigval :     3096.07  3096.60  3098.85  3100.07  3100.50  3103.99
eigval :     3105.55  3106.46  3107.87

   temp. (K)  partition function   enthalpy   heat capacity  entropy
                                   cal/mol     cal/K/mol   cal/K/mol   J/K/mol
 298.15  VIB  0.290E+10            12875.863     83.660     78.580
         ROT  0.186E+08              888.752      2.981     36.242
         INT  0.539E+17            13764.616     86.641    114.822
         TR   0.727E+28             1481.254      4.968     43.705
         TOT                       15245.8697    91.6087   158.5270   663.2771

       T/K    H(0)-H(T)+PV         H(T)/Eh          T*S/Eh         G(T)/Eh
   ------------------------------------------------------------------------
    298.15    0.242958E-01    0.354999E+00    0.753213E-01    0.279678E+00
   ------------------------------------------------------------------------

         :::::::::::::::::::::::::::::::::::::::::::::::::::::
         ::                  THERMODYNAMIC                  ::
         :::::::::::::::::::::::::::::::::::::::::::::::::::::
         :: total free energy         -74.001175325018 Eh   ::
         ::.................................................::
         :: total energy              -74.280852835284 Eh   ::
         :: zero point energy           0.330702973429 Eh   ::
         :: G(RRHO) w/o ZPVE           -0.051025463164 Eh   ::
         :: G(RRHO) contrib.            0.279677510266 Eh   ::
         :::::::::::::::::::::::::::::::::::::::::::::::::::::

           -------------------------------------------------
          | TOTAL ENERGY              -74.280852835284 Eh   |
          | TOTAL ENTHALPY            -73.925854022011 Eh   |
          | TOTAL FREE ENERGY         -74.001175325018 Eh   |
          | GRADIENT NORM               0.000074408343 Eh/α |
          | HOMO-LUMO GAP               0.259428048585 eV   |
           -------------------------------------------------

 * finished run on 2025/07/20 at 18:20:21.284
