   * xtb version 6.7.1 (edcfbbe) compiled by 'albert@albert-system' on 2024-07-22

   ID    Z sym.   atoms
    1    6 C      1-4, 6-26, 28-36, 38, 40-60, 62-76
    2    7 N      5, 27, 37, 39, 61
    3    1 H      77-121

          program call               : xtb data2507/toluene/2PBCzPy/2PBCzPy_toluene_S0_crest.xyz --gfn 2 --gbsa toluene --ohess vtight --parallel 40 --molden --ceasefiles --namespace data2507/toluene/2PBCzPy/2PBCzPy_toluene_S0_finalOpt
      * Solvation model:               GBSA
        Solvent                        toluene
        Solvent mass                       9.2140E+01 g/mol
          :  Hamiltonian                  GFN2-xTB          :
 * total energy  :  -189.8355291 Eh     change       -0.2633357E-08 Eh
 * total energy  :  -189.8355899 Eh     change       -0.6077192E-04 Eh
 * total energy  :  -189.8356331 Eh     change       -0.4317712E-04 Eh
 * total energy  :  -189.8356454 Eh     change       -0.1233003E-04 Eh
 * total energy  :  -189.8356633 Eh     change       -0.1791924E-04 Eh
 * total energy  :  -189.8356708 Eh     change       -0.7440031E-05 Eh
 * total energy  :  -189.8356796 Eh     change       -0.8855297E-05 Eh
 * total energy  :  -189.8356845 Eh     change       -0.4843254E-05 Eh
 * total energy  :  -189.8356894 Eh     change       -0.4885469E-05 Eh
 * total energy  :  -189.8356927 Eh     change       -0.3375471E-05 Eh
 * total energy  :  -189.8357174 Eh     change       -0.8102169E-06 Eh
 * total energy  :  -189.8357183 Eh     change       -0.8790597E-06 Eh
 * total energy  :  -189.8357191 Eh     change       -0.8188415E-06 Eh
 * total energy  :  -189.8357198 Eh     change       -0.7372306E-06 Eh
 * total energy  :  -189.8357206 Eh     change       -0.7376421E-06 Eh
 * total energy  :  -189.8357215 Eh     change       -0.8968013E-06 Eh
 * total energy  :  -189.8357227 Eh     change       -0.1213924E-05 Eh
 * total energy  :  -189.8357240 Eh     change       -0.1293719E-05 Eh
 * total energy  :  -189.8357240 Eh     change       -0.3957325E-08 Eh
   *** GEOMETRY OPTIMIZATION CONVERGED AFTER 44 ITERATIONS ***

 final structure:
================
121
 xtb: 6.7.1 (edcfbbe)
C          -13.46207435446428       -3.48192912966879       -3.40901683286276
C          -13.12573450336699       -2.16792928297949       -3.12684424521941
C          -12.23491370962886       -1.87892128710678       -2.10910274373322
C          -11.66534408564451       -2.91191936055816       -1.37019376653353
N          -10.75587547840421       -2.62285906650795       -0.33997173032257
C          -10.82766718269388       -3.08755581361494        0.95812845854775
C          -11.79105054233671       -3.88510185331022        1.56009843085079
C          -11.63391506116147       -4.18855143205465        2.89913540801596
C          -10.55108260773342       -3.70673904004785        3.63242296597903
C           -9.60200110687885       -2.89359035714901        3.04527708399413
C           -9.73782388470043       -2.57489647980050        1.70016316858878
C           -8.97096846187577       -1.76716595948890        0.79258868869472
C           -7.80167100592492       -1.03382567305715        0.92717966926947
C           -7.29066198263703       -0.35963072638374       -0.17469133277848
C           -6.05647655556611        0.43337046833581       -0.05849070826115
C           -4.97308679260823       -0.05833369735345        0.68335653695102
C           -3.79762228870475        0.65013653236623        0.82720508382998
C           -3.70806644200901        1.89461579684634        0.21974980914075
C           -4.77664526827198        2.39638836231084       -0.55657603528106
C           -5.94807187651912        1.66637539592454       -0.68935926591636
C           -4.34089564404000        3.66085625557443       -1.08296103938693
C           -4.94316635072713        4.61810686045984       -1.88884770665432
C           -4.23464320622859        5.76148773087927       -2.20228305533118
C           -2.94739942991558        5.96302092223660       -1.70926240900237
C           -2.32935015047905        5.02474484802558       -0.90450828467208
C           -3.02448035262589        3.86170880964756       -0.60781806497541
N           -2.65379880049397        2.78921382388617        0.18177401036653
C           -1.43028901074330        2.63361147703872        0.84217362128266
C           -1.39887575533553        2.28605995206187        2.19200253986201
C           -0.18839408123010        2.12230734058013        2.83249958309016
C            1.01756378583324        2.31907230030227        2.16494605002405
C            2.28060806401337        2.18576063135229        2.91219004508463
C            3.32584987995590        3.09934553751007        2.76618304114217
C            4.48777339559242        2.90205146733900        3.48989187890173
C            4.57090113887836        1.81287383246353        4.34429069573385
C            3.46405829345924        0.98482798360046        4.44975026858241
N            2.35251619155692        1.16192128407083        3.76038631453158
C            0.98326695233299        2.63947408479313        0.80037706058443
N            2.17225875306173        2.75333309608802        0.06122515085921
C            2.58675678348437        3.86276012815899       -0.64831410023901
C            1.94709131884980        5.07893968064756       -0.83677061300704
C            2.59975148912863        6.04562067048922       -1.57796355608373
C            3.86563621402926        5.81711344666683       -2.11355122815718
C            4.51747125313046        4.61644544966990       -1.91007186705625
C            3.88030426106246        3.62853671486520       -1.17022390188919
C            4.25518762152266        2.30570129230887       -0.75099263228157
C            5.38999221288271        1.53121809745356       -0.94109140623642
C            5.44472408979363        0.25991485333411       -0.38484828167101
C            6.64918398413215       -0.57202013351379       -0.53755850507613
C            7.31429729299520       -0.63278146666978       -1.77020314067789
C            8.44811014821445       -1.39694839160096       -1.95554342898922
C            8.93014552993998       -2.12255546715382       -0.87479316079483
C            8.28718616005158       -2.05798807993000        0.38312128453140
C            7.14514161145421       -1.28809237317117        0.54445531221131
C            9.05985666807401       -2.87488817563331        1.27731950597969
C            8.92765374938654       -3.21519795837824        2.61756077325141
C            9.85907993143460       -4.06544388415599        3.17989371108893
C           10.90491582257808       -4.58588916756675        2.41973981667004
C           11.05800543853539       -4.26166426246719        1.08514790392027
C           10.13767131845795       -3.38991214083755        0.51964900302548
N           10.04657325473720       -2.92800475302360       -0.77807715124756
C           10.94386185701697       -3.21814592661600       -1.81916349603664
C           10.47033028863814       -3.70093105342444       -3.03563402297407
C           11.35731398945179       -3.98099115235414       -4.05920460102723
C           12.71752702108496       -3.79221210584724       -3.87641181354612
C           13.19043191813888       -3.31648151438621       -2.66425202966554
C           12.31011240947942       -3.02367525957467       -1.63847625170885
C            4.34280790608144       -0.23102870386726        0.33021925355993
C            3.20092084353248        0.51758565546498        0.52495980462541
C            3.17249440010641        1.80322447741141        0.00441694107374
C           -0.23405139804333        2.79615120411119        0.15094747685055
C           -7.95590059132315       -0.44616707947999       -1.40626672128874
C           -9.11839540270925       -1.17210498031724       -1.56425356416153
C           -9.63756028809772       -1.82225374495535       -0.45311005119187
C          -11.99993517008790       -4.23189870943444       -1.65824864114088
C          -12.89949829021317       -4.51067555360088       -2.67116076282533
H          -14.16072510029588       -3.70372823336765       -4.20184344750242
H          -13.56519514974426       -1.36228814789510       -3.69658594797931
H          -11.98480292855654       -0.85514456596405       -1.87298496689426
H          -12.64189535857960       -4.25056582436911        1.00489491190880
H          -12.36913100132306       -4.81035141610306        3.38935263270146
H          -10.46191961229182       -3.96887031931626        4.67664053545984
H           -8.77183484291832       -2.50730091467801        3.61788405168553
H           -7.30446758549374       -0.97540238758834        1.88385356409447
H           -5.05461450234891       -1.03521566215686        1.13697377801531
H           -2.97045682462265        0.23627513153170        1.38383737425974
H           -6.77160463610887        2.06156308595422       -1.26478854192854
H           -5.94754250182634        4.46987467534206       -2.25647361950904
H           -4.68409034941621        6.51685313938353       -2.83014602887129
H           -2.42222761431725        6.87395009352325       -1.95728613261464
H           -1.34038197910992        5.20030850533934       -0.51117252643011
H           -2.32391341376511        2.16200303398838        2.73314074809700
H           -0.15584558333812        1.85668849625837        3.87780143570204
H            3.22478153516072        3.95219259713845        2.11271538299186
H            5.31515174938850        3.58964110231780        3.38961588432767
H            5.46292082613482        1.61787721652960        4.91854801386617
H            3.46184648609715        0.13149881092952        5.11674425815137
H            0.97520111311537        5.26968296512798       -0.40812227966154
H            2.11992002158993        6.99950483159811       -1.74175905766293
H            4.34398371459490        6.59668619583811       -2.68810431894157
H            5.50481565936175        4.44650743048260       -2.31281171860569
H            6.22960614084654        1.92264067273547       -1.49566363545941
H            6.91401229510937       -0.07538994503162       -2.60448444999166
H            8.94692188453168       -1.42017339008637       -2.91280785189354
H            6.66143298840738       -1.22495517570225        1.50810528203934
H            8.10877062720277       -2.82350946312847        3.20274864710456
H            9.77504010678099       -4.34130039004481        4.22099764560008
H           11.60973951311008       -5.26073217745716        2.88358389152680
H           11.86244868578701       -4.68236334357846        0.50062969012688
H            9.41091538281253       -3.86500321848889       -3.16684880446651
H           10.98429983397837       -4.35589235967825       -5.00103350549617
H           13.40718676187538       -4.01584843276244       -4.67653894268971
H           14.24979187870244       -3.16412934343735       -2.51830376777056
H           12.67251205985296       -2.63400394111190       -0.69864081500345
H            4.38505851710661       -1.23575469678674        0.72481568430222
H            2.36037424529958        0.11356958281403        1.06882580350772
H           -0.24691046904008        3.01165837372903       -0.90706951707792
H           -7.52870752454006        0.05267391686774       -2.26395977822076
H           -9.59923148785970       -1.24135424527194       -2.52860098736755
H          -11.54336924701514       -5.03199272607618       -1.09448477683939
H          -13.15506214020881       -5.53704098358460       -2.89043063238637

          :  Hamiltonian                  GFN2-xTB          :
         :: gradient norm              0.000049891893 Eh/a0 ::
         :: HOMO-LUMO gap              2.360363822533 eV    ::
         :: SCC energy              -193.425104448846 Eh    ::
         :: -> dispersion             -0.179682223137 Eh    ::
         :: -> Gsolv                  -0.077313280598 Eh    ::
         :: repulsion energy           3.589380478802 Eh    ::

    * Orbital Energies and Occupations

         #    Occupation            Energy/Eh            Energy/eV
      -------------------------------------------------------------
         1        2.0000           -0.6794987             -18.4901
       ...           ...                  ...                  ...
       165        2.0000           -0.4073487             -11.0845
       166        2.0000           -0.4048547             -11.0167
       167        2.0000           -0.3984411             -10.8421
       168        2.0000           -0.3970029             -10.8030
       169        2.0000           -0.3808335             -10.3630
       170        2.0000           -0.3794031             -10.3241
       171        2.0000           -0.3774661             -10.2714
       172        2.0000           -0.3762072             -10.2371
       173        2.0000           -0.3742545             -10.1840
       174        2.0000           -0.3684030             -10.0248
       175        2.0000           -0.3662252              -9.9655
       176        2.0000           -0.3554870              -9.6733
       177        2.0000           -0.3538484              -9.6287 (HOMO)
       178                         -0.2671067              -7.2683 (LUMO)
       179                         -0.2497805              -6.7969
       180                         -0.2473046              -6.7295
       181                         -0.2451479              -6.6708
       182                         -0.2445136              -6.6536
       183                         -0.2440719              -6.6415
       184                         -0.2408003              -6.5525
       185                         -0.2362330              -6.4282
       186                         -0.2358273              -6.4172
       187                         -0.2309106              -6.2834
       188                         -0.2306248              -6.2756
       ...                                ...                  ...
       349                          0.7525736              20.4786
      -------------------------------------------------------------
                  HL-Gap            0.0867418 Eh            2.3604 eV

     #   Z          covCN         q      C6AA      α(0)
     1   6 C        2.919    -0.033    28.825     8.804
     2   6 C        2.920    -0.028    28.705     8.786
     3   6 C        2.922    -0.042    29.047     8.838
     4   6 C        2.913     0.064    26.558     8.451
     5   7 N        2.802    -0.047    22.150     6.990
     6   6 C        3.076     0.048    26.855     8.496
     7   6 C        2.909    -0.052    29.295     8.875
     8   6 C        2.924    -0.035    28.883     8.813
     9   6 C        2.920    -0.043    29.072     8.842
    10   6 C        2.912    -0.035    28.873     8.811
    11   6 C        3.068    -0.019    28.408     8.740
    12   6 C        3.064    -0.020    28.431     8.744
    13   6 C        2.918    -0.040    29.004     8.831
    14   6 C        2.976    -0.002    28.077     8.692
    15   6 C        2.976    -0.001    28.036     8.685
    16   6 C        2.929    -0.039    28.969     8.827
    17   6 C        2.908    -0.052    29.298     8.875
    18   6 C        3.074     0.044    26.934     8.509
    19   6 C        3.064    -0.018    28.391     8.738
    20   6 C        2.918    -0.040    28.992     8.830
    21   6 C        3.067    -0.017    28.367     8.733
    22   6 C        2.912    -0.034    28.850     8.808
    23   6 C        2.920    -0.042    29.043     8.837
    24   6 C        2.923    -0.035    28.861     8.810
    25   6 C        2.910    -0.051    29.261     8.870
    26   6 C        3.073     0.046    26.887     8.502
    27   7 N        2.801    -0.041    22.040     6.973
    28   6 C        2.911     0.067    26.494     8.440
    29   6 C        2.920    -0.046    29.147     8.853
    30   6 C        2.925    -0.026    28.655     8.779
    31   6 C        2.980    -0.010    28.263     8.721
    32   6 C        2.962     0.102    25.740     8.322
    33   6 C        2.917    -0.042    29.051     8.839
    34   6 C        2.927    -0.012    28.306     8.725
    35   6 C        2.914    -0.042    29.032     8.835
    36   6 C        2.905     0.061    26.624     8.461
    37   7 N        1.844    -0.248    27.313     7.745
    38   6 C        2.913     0.063    26.599     8.457
    39   7 N        2.802    -0.049    22.192     6.997
    40   6 C        3.076     0.047    26.858     8.497
    41   6 C        2.910    -0.052    29.285     8.874
    42   6 C        2.923    -0.035    28.861     8.810
    43   6 C        2.920    -0.042    29.053     8.839
    44   6 C        2.912    -0.034    28.853     8.808
    45   6 C        3.068    -0.018    28.392     8.737
    46   6 C        3.064    -0.020    28.437     8.744
    47   6 C        2.918    -0.041    29.021     8.834
    48   6 C        2.977    -0.002    28.063     8.690
    49   6 C        2.977    -0.003    28.083     8.693
    50   6 C        2.928    -0.040    28.988     8.830
    51   6 C        2.908    -0.053    29.308     8.877
    52   6 C        3.077     0.046    26.894     8.502
    53   6 C        3.064    -0.019    28.427     8.743
    54   6 C        2.918    -0.040    28.997     8.830
    55   6 C        3.067    -0.019    28.412     8.740
    56   6 C        2.912    -0.035    28.872     8.811
    57   6 C        2.920    -0.043    29.070     8.842
    58   6 C        2.924    -0.035    28.880     8.813
    59   6 C        2.909    -0.052    29.291     8.874
    60   6 C        3.076     0.048    26.853     8.496
    61   7 N        2.802    -0.047    22.147     6.989
    62   6 C        2.913     0.064    26.560     8.451
    63   6 C        2.922    -0.042    29.045     8.838
    64   6 C        2.920    -0.028    28.701     8.785
    65   6 C        2.919    -0.033    28.821     8.804
    66   6 C        2.920    -0.028    28.703     8.786
    67   6 C        2.922    -0.042    29.046     8.838
    68   6 C        2.930    -0.040    28.985     8.829
    69   6 C        2.908    -0.052    29.285     8.874
    70   6 C        3.078     0.046    26.895     8.502
    71   6 C        2.925    -0.057    29.409     8.893
    72   6 C        2.929    -0.040    28.991     8.830
    73   6 C        2.908    -0.053    29.309     8.877
    74   6 C        3.077     0.046    26.896     8.503
    75   6 C        2.922    -0.042    29.049     8.839
    76   6 C        2.920    -0.028    28.705     8.786
    77   1 H        0.926     0.039     2.465     2.455
    78   1 H        0.926     0.040     2.453     2.449
    79   1 H        0.926     0.041     2.436     2.441
    80   1 H        0.926     0.029     2.600     2.521
    81   1 H        0.926     0.029     2.601     2.522
    82   1 H        0.926     0.027     2.630     2.536
    83   1 H        0.926     0.030     2.591     2.517
    84   1 H        0.926     0.032     2.563     2.503
    85   1 H        0.926     0.033     2.538     2.491
    86   1 H        0.926     0.033     2.551     2.497
    87   1 H        0.926     0.033     2.543     2.494
    88   1 H        0.926     0.032     2.560     2.502
    89   1 H        0.926     0.029     2.600     2.522
    90   1 H        0.926     0.031     2.574     2.509
    91   1 H        0.926     0.027     2.628     2.535
    92   1 H        0.926     0.055     2.261     2.351
    93   1 H        0.926     0.058     2.221     2.331
    94   1 H        0.926     0.035     2.516     2.481
    95   1 H        0.926     0.041     2.433     2.439
    96   1 H        0.926     0.042     2.421     2.433
    97   1 H        0.925     0.038     2.479     2.462
    98   1 H        0.926     0.026     2.645     2.543
    99   1 H        0.926     0.031     2.565     2.505
   100   1 H        0.926     0.029     2.594     2.519
   101   1 H        0.926     0.032     2.563     2.504
   102   1 H        0.926     0.034     2.537     2.491
   103   1 H        0.926     0.032     2.561     2.503
   104   1 H        0.926     0.030     2.580     2.512
   105   1 H        0.926     0.029     2.605     2.524
   106   1 H        0.926     0.029     2.602     2.523
   107   1 H        0.926     0.027     2.626     2.534
   108   1 H        0.926     0.030     2.592     2.518
   109   1 H        0.926     0.030     2.592     2.518
   110   1 H        0.926     0.041     2.436     2.441
   111   1 H        0.926     0.040     2.449     2.447
   112   1 H        0.926     0.039     2.460     2.453
   113   1 H        0.926     0.040     2.449     2.447
   114   1 H        0.926     0.041     2.438     2.442
   115   1 H        0.926     0.031     2.572     2.508
   116   1 H        0.926     0.027     2.627     2.535
   117   1 H        0.926     0.054     2.276     2.359
   118   1 H        0.926     0.031     2.566     2.505
   119   1 H        0.926     0.029     2.593     2.518
   120   1 H        0.926     0.041     2.439     2.442
   121   1 H        0.926     0.040     2.454     2.450

molecular dipole:
                 x           y           z       tot (Debye)
 q only:        0.102      -0.164      -0.675
   full:        0.433       0.013      -0.671       2.030

 projected vibrational frequencies (cm⁻¹)
eigval :       -0.00     0.00     0.00     0.00     0.00     0.00
eigval :        3.62     8.34     9.05    10.51    15.25    17.83
eigval :       25.06    26.94    28.61    35.05    37.81    46.55
eigval :       52.33    56.20    58.45    59.65    63.42    66.35
eigval :       73.07    76.96    89.33    92.76   101.69   109.26
eigval :      110.73   115.68   125.14   129.10   132.27   139.76
eigval :      151.90   163.80   169.94   178.98   181.69   191.69
eigval :      194.67   214.74   218.21   231.61   233.89   240.08
eigval :      254.85   260.13   266.89   267.69   280.94   284.50
eigval :      289.46   317.97   325.93   327.96   335.27   356.86
eigval :      365.81   374.91   379.14   380.70   383.28   392.64
eigval :      393.72   395.98   398.12   399.14   403.36   414.63
eigval :      416.69   418.63   426.85   428.50   430.93   434.86
eigval :      440.45   445.55   454.36   460.11   465.80   474.07
eigval :      484.73   488.20   518.24   525.62   526.15   532.06
eigval :      533.18   534.47   535.42   553.68   558.69   568.46
eigval :      572.59   576.44   579.73   586.89   589.06   592.34
eigval :      593.02   596.20   597.42   604.83   612.46   613.06
eigval :      615.25   617.35   624.30   625.07   644.34   652.43
eigval :      662.03   670.14   672.44   675.97   676.55   686.35
eigval :      687.32   691.44   697.85   706.08   706.76   707.66
eigval :      708.45   716.64   718.37   725.37   729.23   762.51
eigval :      763.01   765.34   766.90   768.81   770.72   771.08
eigval :      773.41   776.74   781.15   811.22   812.04   828.89
eigval :      833.22   837.19   846.30   850.23   861.46   864.41
eigval :      867.85   871.55   872.55   874.52   877.11   877.54
eigval :      880.96   882.28   891.46   894.07   894.92   896.56
eigval :      897.10   899.19   902.40   904.19   904.82   905.98
eigval :      909.01   910.04   911.27   912.32   913.13   916.17
eigval :      918.40   918.80   919.27   920.31   921.76   922.03
eigval :      924.36   930.58   931.43   932.42   932.96   934.11
eigval :      934.49   938.94   987.95   996.86   997.23  1007.29
eigval :     1012.31  1014.81  1029.52  1030.31  1046.23  1065.67
eigval :     1068.94  1069.68  1070.56  1071.85  1072.25  1079.44
eigval :     1080.10  1095.23  1111.50  1117.64  1118.15  1120.57
eigval :     1121.44  1124.48  1126.95  1146.84  1149.93  1152.35
eigval :     1153.80  1156.54  1168.11  1172.78  1175.40  1177.05
eigval :     1177.41  1178.39  1179.64  1181.22  1182.83  1183.03
eigval :     1194.87  1198.76  1199.12  1208.92  1211.38  1226.83
eigval :     1228.95  1231.29  1235.44  1241.81  1243.90  1246.17
eigval :     1248.62  1254.47  1255.29  1271.71  1272.34  1274.87
eigval :     1275.23  1277.78  1287.29  1290.41  1293.56  1301.19
eigval :     1302.68  1309.60  1314.49  1315.39  1315.50  1319.56
eigval :     1341.51  1343.28  1344.16  1352.01  1352.96  1357.07
eigval :     1360.30  1360.54  1360.68  1365.95  1372.17  1373.84
eigval :     1405.28  1413.96  1416.27  1418.45  1420.24  1423.24
eigval :     1424.09  1431.48  1432.11  1434.53  1436.41  1437.29
eigval :     1452.46  1457.39  1458.15  1479.24  1479.85  1480.51
eigval :     1480.84  1481.73  1481.97  1486.70  1498.70  1499.19
eigval :     1545.10  1556.99  1562.77  1563.30  1567.74  1568.65
eigval :     1573.94  1581.15  1581.39  1582.10  1582.59  1583.15
eigval :     1584.47  1585.12  1593.35  1593.53  1595.21  1595.88
eigval :     1598.68  1598.94  1610.22  1610.93  1615.30  1615.93
eigval :     3045.61  3069.27  3070.56  3072.43  3072.88  3073.25
eigval :     3075.05  3075.20  3075.33  3075.44  3075.75  3075.99
eigval :     3077.10  3077.16  3077.48  3077.98  3078.79  3079.01
eigval :     3080.88  3083.06  3083.51  3084.58  3084.92  3086.03
eigval :     3086.35  3086.60  3086.81  3087.93  3088.22  3088.51
eigval :     3089.57  3089.71  3090.42  3090.63  3091.38  3091.73
eigval :     3092.40  3094.48  3095.63  3096.16  3096.26  3096.56
eigval :     3097.59  3097.75  3106.00

   temp. (K)  partition function   enthalpy   heat capacity  entropy
                                   cal/mol     cal/K/mol   cal/K/mol   J/K/mol
 298.15  VIB  0.540E+29            34963.982    221.134    220.072
         ROT  0.583E+09              888.752      2.981     43.093
         INT  0.315E+38            35852.734    224.115    263.165
         TR   0.291E+29             1481.254      4.968     46.464
         TOT                       37333.9878   229.0831   309.6289  1295.4873

       T/K    H(0)-H(T)+PV         H(T)/Eh          T*S/Eh         G(T)/Eh
   ------------------------------------------------------------------------
    298.15    0.594955E-01    0.985719E+00    0.147115E+00    0.838604E+00
   ------------------------------------------------------------------------

         :::::::::::::::::::::::::::::::::::::::::::::::::::::
         ::                  THERMODYNAMIC                  ::
         :::::::::::::::::::::::::::::::::::::::::::::::::::::
         :: total free energy        -188.997119777864 Eh   ::
         ::.................................................::
         :: total energy             -189.835723963291 Eh   ::
         :: zero point energy           0.926223363757 Eh   ::
         :: G(RRHO) w/o ZPVE           -0.087619178331 Eh   ::
         :: G(RRHO) contrib.            0.838604185427 Eh   ::
         :::::::::::::::::::::::::::::::::::::::::::::::::::::

           -------------------------------------------------
          | TOTAL ENERGY             -189.835723963291 Eh   |
          | TOTAL ENTHALPY           -188.850005102922 Eh   |
          | TOTAL FREE ENERGY        -188.997119777864 Eh   |
          | GRADIENT NORM               0.000049895683 Eh/α |
          | HOMO-LUMO GAP               2.360363312775 eV   |
           -------------------------------------------------

 * finished run on 2025/09/14 at 09:12:49.483
