   * xtb version 6.7.1 (edcfbbe) compiled by 'albert@albert-system' on 2024-07-22

   ID    Z sym.   atoms
    1    6 C      1-4, 6-26, 28-36, 38, 40-60, 62-76
    2    7 N      5, 27, 37, 39, 61
    3    1 H      77-121

          program call               : xtb data2507/toluene/2PBCzPy/2PBCzPy_toluene_T1_crest.xyz --gfn 2 --uhf 2 --gbsa toluene --ohess vtight --parallel 40 --molden --ceasefiles --namespace data2507/toluene/2PBCzPy/2PBCzPy_toluene_T1_finalOpt
      * Solvation model:               GBSA
        Solvent                        toluene
        Solvent mass                       9.2140E+01 g/mol
          :  Hamiltonian                  GFN2-xTB          :
 * total energy  :  -189.7467126 Eh     change       -0.3303541E-08 Eh
 * total energy  :  -189.7468376 Eh     change       -0.1249945E-03 Eh
 * total energy  :  -189.7470048 Eh     change       -0.1672119E-03 Eh
 * total energy  :  -189.7470796 Eh     change       -0.7478876E-04 Eh
 * total energy  :  -189.7471872 Eh     change       -0.1076451E-03 Eh
 * total energy  :  -189.7472849 Eh     change       -0.9772011E-04 Eh
 * total energy  :  -189.7473482 Eh     change       -0.6327856E-04 Eh
 * total energy  :  -189.7473939 Eh     change       -0.4563172E-04 Eh
 * total energy  :  -189.7474122 Eh     change       -0.1830123E-04 Eh
 * total energy  :  -189.7474518 Eh     change       -0.3963826E-04 Eh
 * total energy  :  -189.7491279 Eh     change       -0.7096581E-06 Eh
 * total energy  :  -189.7491286 Eh     change       -0.7578641E-06 Eh
 * total energy  :  -189.7491294 Eh     change       -0.7549880E-06 Eh
 * total energy  :  -189.7491301 Eh     change       -0.7154163E-06 Eh
 * total energy  :  -189.7491308 Eh     change       -0.6714755E-06 Eh
 * total energy  :  -189.7491314 Eh     change       -0.6424625E-06 Eh
 * total energy  :  -189.7491321 Eh     change       -0.6379783E-06 Eh
 * total energy  :  -189.7491327 Eh     change       -0.6563891E-06 Eh
 * total energy  :  -189.7491327 Eh     change       -0.2131202E-08 Eh
   *** GEOMETRY OPTIMIZATION CONVERGED AFTER 260 ITERATIONS ***

 final structure:
================
121
 xtb: 6.7.1 (edcfbbe)
C           -9.31123136944009       -1.31982589442868        0.31128059364617
C           -9.31452562766427       -2.40681253431209        1.17027346833428
C           -8.28927491380929       -3.33410693593784        1.12575808593899
C           -7.25301868286345       -3.17992524502576        0.20933180741041
N           -6.21604152919620       -4.12567795463198        0.15242066579275
C           -6.37735601057538       -5.49198723831286        0.02914152786935
C           -7.54178953053889       -6.23612298186352       -0.09825042153842
C           -7.42043181665890       -7.60670819470660       -0.23112024292010
C           -6.17361381720534       -8.22838503879338       -0.24680117848329
C           -5.01018074255568       -7.49037763425278       -0.14390468641250
C           -5.10654538994273       -6.11180537066793       -0.00889023887476
C           -4.13574221662854       -5.05740523261371        0.10401940970496
C           -2.75107433640103       -5.04069368603802        0.14008279934405
C           -2.08598991764034       -3.82500966923660        0.26947621785850
C           -0.62005526603695       -3.77142875832763        0.29467801430599
C            0.05405108417696       -2.71822281499845       -0.34801667214466
C            1.42667053904615       -2.61024326692581       -0.33349348359818
C            2.15702714179533       -3.57220344204238        0.35390682354511
C            1.50057788217559       -4.66758317068665        0.96984419189252
C            0.11877214358514       -4.75936904291974        0.94031337392864
C            2.53489523297645       -5.49411261888569        1.52638363677512
C            2.52662923900183       -6.68716984962157        2.23598883577329
C            3.73155603679208       -7.21657825939804        2.65756269657039
C            4.93337295551249       -6.56130464455252        2.39441817357611
C            4.96739534301411       -5.37381047784443        1.68702964588017
C            3.76409975248349       -4.85216731484594        1.23251367169319
N            3.51888604139077       -3.69428209492785        0.51868269165877
C            4.47080684226264       -2.76795544110147        0.08529361344371
C            5.64854784706405       -3.17546132505075       -0.57991156755443
C            6.55952903895279       -2.25725801426962       -1.01274665549789
C            6.37015714512911       -0.85735654861399       -0.83866087088314
C            7.18833686197637        0.12732257430167       -1.43780049903506
C            8.48529707282674       -0.12848583394499       -1.97230808731047
C            9.23232609921750        0.89857868843584       -2.47197083257560
C            8.72020128233378        2.21095912478678       -2.46446632532052
C            7.44890835902070        2.38706253160815       -1.94408360729837
N            6.71981553299679        1.40719316267520       -1.47806814055072
C            5.20051243640573       -0.47117306870521       -0.09210717141222
N            4.97233389985467        0.87229266825787        0.23228105737964
C            5.76211982391735        1.66274224436568        1.04834021532516
C            6.98937859262656        1.37796897017247        1.62518974034991
C            7.57075817184798        2.35160192108498        2.41780653669411
C            6.94149389795144        3.57348424870914        2.64324642925803
C            5.70446341132769        3.85233858960944        2.08966451604656
C            5.10269455504307        2.89107572010836        1.29106231284957
C            3.84386369770124        2.82214396213616        0.59486214188638
C            2.76432363067043        3.67911919820178        0.47657788828538
C            1.65489499166877        3.28098435826199       -0.26959190738438
C            0.46460521860492        4.13094719808204       -0.36389944132583
C            0.58211673198733        5.52592222857845       -0.47284910250111
C           -0.51930197078180        6.34936926453269       -0.57198611909994
C           -1.77948603373162        5.76330566751412       -0.55663974342465
C           -1.92114974974095        4.36200977878825       -0.41426316692162
C           -0.80193807918148        3.55256990917485       -0.32889758891190
C           -3.33341297697708        4.09670929276792       -0.38158509396297
C           -4.08495629057801        2.93430229812354       -0.27350673713300
C           -5.46252897988527        3.03363014610620       -0.29663303555274
C           -6.08955979421710        4.26922119067139       -0.44231688857430
C           -5.36223270012909        5.43990983094760       -0.55224459009045
C           -3.97831352009457        5.34924636539979       -0.50415073131222
N           -3.02591184235879        6.34536175238791       -0.60942500225706
C           -3.28652262279259        7.71825673040095       -0.75560010647500
C           -4.14104916254220        8.36561454244628        0.13186501535147
C           -4.39888123484444        9.71594583407677       -0.02029524345410
C           -3.80300423932869       10.42973662282128       -1.04732485606531
C           -2.94801749628260        9.78706721151867       -1.92790290658366
C           -2.69135131876785        8.43508525309561       -1.78959482196408
C            1.67258748199331        2.04044269895192       -0.93148075561619
C            2.74218143950663        1.17927604897803       -0.83761688503313
C            3.81779210624778        1.55481066253340       -0.04092626461170
C            4.27902378895948       -1.40411401781216        0.32302473064732
C           -2.83378674667627       -2.64137914436581        0.38561896859035
C           -4.21190964057933       -2.63525767860643        0.35840308094092
C           -4.86704092105495       -3.84952278387846        0.19671523598489
C           -7.25099800180704       -2.08820122323973       -0.65411195318157
C           -8.27761453644993       -1.16304282729589       -0.59774339057895
H          -10.11294665413501       -0.59761572144946        0.34959635273670
H          -10.11605437842433       -2.53106183132450        1.88351363832446
H           -8.27865193108458       -4.17332961928961        1.80544257438508
H           -8.51162638989444       -5.76195616336820       -0.10345899423017
H           -8.31214734649773       -8.20875669958585       -0.32836997718476
H           -6.12071300856625       -9.30234080094633       -0.35023661669005
H           -4.04390089088545       -7.97170808466034       -0.17180323106255
H           -2.19528604769641       -5.96110108523770        0.04414626648537
H           -0.52228297551132       -1.98645300624211       -0.89402941048814
H            1.92097091719405       -1.80749218802010       -0.85655382145355
H           -0.37974456681209       -5.57800412434461        1.43717306249823
H            1.59477287804417       -7.18627814674103        2.45675238417866
H            3.74627389700018       -8.14501624804190        3.20948481167582
H            5.85791082712864       -6.98750680924361        2.75571001718894
H            5.90135873127824       -4.86409829521457        1.50645574677122
H            5.80136699214372       -4.22585417666470       -0.77880987018601
H            7.43084844172028       -2.60132816447484       -1.54810812100321
H            8.88888993388419       -1.12794281262421       -1.92571637552352
H           10.22216651475375        0.71339568275230       -2.86649754043891
H            9.27654104168221        3.03806227945240       -2.87351673753152
H            6.97962951326475        3.36461433219872       -1.93016301769520
H            7.47828147187335        0.43103595754869        1.45269068376890
H            8.53116707146175        2.15892469525169        2.87312353869483
H            7.42729816008053        4.30997335113871        3.26628545820852
H            5.21503792389814        4.79638243289081        2.27708528017176
H            2.76633668814273        4.63112864919019        0.98521803269332
H            1.56837598091625        5.96432747260535       -0.50482469705187
H           -0.40197595375725        7.41941140819712       -0.65285730976835
H           -0.91185140828941        2.48642211733782       -0.20235934663845
H           -3.59904344505190        1.97510306278274       -0.17551602945835
H           -6.06558326479010        2.14249973621263       -0.20613773802310
H           -7.16848484500605        4.31361677148099       -0.47245764275068
H           -5.85719662795166        6.39064138516156       -0.68056480706482
H           -4.58780259180018        7.80976312499429        0.94281773007978
H           -5.06264902113158       10.21387828576181        0.67106800403134
H           -4.00397623516297       11.48442850742627       -1.16099887297147
H           -2.48422405796692       10.33885223067401       -2.73228726541263
H           -2.04103245185348        7.92615396512916       -2.48556643969561
H            0.83172768586859        1.77023254916444       -1.55239749764847
H            2.75651161197281        0.24383154335640       -1.37526713128089
H            3.42119129286319       -1.07973746365399        0.89547387929604
H           -2.30925925066909       -1.70849959742708        0.53001451712199
H           -4.76322970019749       -1.71399169104327        0.47319619152490
H           -6.45344758075054       -1.98006233791230       -1.37427054479226
H           -8.27565348943082       -0.32178674456293       -1.27515858455570

          :  Hamiltonian                  GFN2-xTB          :
         :: gradient norm              0.000042462537 Eh/a0 ::
         :: HOMO-LUMO gap              0.407778386627 eV    ::
         :: SCC energy              -193.325684405173 Eh    ::
         :: -> dispersion             -0.181127509557 Eh    ::
         :: -> Gsolv                  -0.078209740234 Eh    ::
         :: repulsion energy           3.576551695842 Eh    ::

    * Orbital Energies and Occupations

         #    Occupation            Energy/Eh            Energy/eV
      -------------------------------------------------------------
         1        2.0000           -0.6796503             -18.4942
       ...           ...                  ...                  ...
       166        2.0000           -0.4010035             -10.9119
       167        2.0000           -0.3985766             -10.8458
       168        2.0000           -0.3836466             -10.4396
       169        2.0000           -0.3818587             -10.3909
       170        2.0000           -0.3805102             -10.3542
       171        2.0000           -0.3792777             -10.3207
       172        2.0000           -0.3770512             -10.2601
       173        2.0000           -0.3725386             -10.1373
       174        2.0000           -0.3642959              -9.9130
       175        2.0000           -0.3621618              -9.8549
       176        1.9167           -0.3533961              -9.6164
       177        1.0833           -0.3488400              -9.4924
       178        0.9995           -0.2634320              -7.1683 (HOMO)
       179        0.0003           -0.2484465              -6.7606 (LUMO)
       180        0.0001           -0.2474524              -6.7335
       181        0.0000           -0.2466409              -6.7114
       182        0.0000           -0.2438018              -6.6342
       183        0.0000           -0.2422110              -6.5909
       184                         -0.2390626              -6.5052
       185                         -0.2336502              -6.3579
       186                         -0.2324051              -6.3241
       187                         -0.2323713              -6.3231
       188                         -0.2317179              -6.3054
       189                         -0.2257832              -6.1439
       ...                                ...                  ...
       349                          0.7524844              20.4761
      -------------------------------------------------------------
                  HL-Gap            0.0149855 Eh            0.4078 eV

     #   Z          covCN         q      C6AA      α(0)
     1   6 C        2.919    -0.032    28.801     8.801
     2   6 C        2.920    -0.028    28.690     8.784
     3   6 C        2.922    -0.041    29.029     8.835
     4   6 C        2.913     0.064    26.571     8.453
     5   7 N        2.802    -0.041    22.029     6.971
     6   6 C        3.077     0.047    26.860     8.497
     7   6 C        2.909    -0.051    29.258     8.869
     8   6 C        2.924    -0.035    28.860     8.810
     9   6 C        2.920    -0.042    29.032     8.836
    10   6 C        2.912    -0.034    28.845     8.807
    11   6 C        3.067    -0.018    28.380     8.735
    12   6 C        3.064    -0.018    28.390     8.737
    13   6 C        2.917    -0.039    28.959     8.825
    14   6 C        2.976     0.001    28.008     8.681
    15   6 C        2.976     0.001    27.997     8.679
    16   6 C        2.927    -0.042    29.034     8.837
    17   6 C        2.908    -0.048    29.191     8.859
    18   6 C        3.081     0.043    26.951     8.511
    19   6 C        3.060    -0.019    28.413     8.741
    20   6 C        2.917    -0.038    28.955     8.824
    21   6 C        3.066    -0.018    28.390     8.737
    22   6 C        2.912    -0.034    28.849     8.807
    23   6 C        2.919    -0.041    29.007     8.832
    24   6 C        2.923    -0.036    28.905     8.817
    25   6 C        2.909    -0.047    29.178     8.857
    26   6 C        3.077     0.045    26.909     8.505
    27   7 N        2.797    -0.025    21.735     6.924
    28   6 C        2.908     0.029    27.362     8.577
    29   6 C        2.912    -0.048    29.197     8.860
    30   6 C        2.915    -0.050    29.246     8.868
    31   6 C        2.970    -0.025    28.623     8.776
    32   6 C        2.931     0.066    26.524     8.446
    33   6 C        2.913    -0.050    29.235     8.866
    34   6 C        2.920    -0.027    28.685     8.783
    35   6 C        2.912    -0.070    29.734     8.942
    36   6 C        2.876     0.061    26.626     8.459
    37   7 N        1.845    -0.237    27.055     7.709
    38   6 C        2.913     0.042    27.048     8.528
    39   7 N        2.803     0.006    21.147     6.830
    40   6 C        3.082     0.056    26.646     8.463
    41   6 C        2.909    -0.041    29.009     8.832
    42   6 C        2.924    -0.035    28.860     8.810
    43   6 C        2.920    -0.039    28.971     8.827
    44   6 C        2.912    -0.033    28.816     8.802
    45   6 C        3.067    -0.015    28.320     8.726
    46   6 C        3.061    -0.012    28.255     8.717
    47   6 C        2.916    -0.037    28.918     8.818
    48   6 C        2.977     0.008    27.844     8.656
    49   6 C        2.976     0.002    27.971     8.675
    50   6 C        2.927    -0.038    28.935     8.821
    51   6 C        2.908    -0.050    29.244     8.867
    52   6 C        3.075     0.047    26.858     8.497
    53   6 C        3.065    -0.017    28.360     8.733
    54   6 C        2.918    -0.037    28.930     8.820
    55   6 C        3.067    -0.017    28.366     8.733
    56   6 C        2.912    -0.033    28.828     8.804
    57   6 C        2.920    -0.041    29.011     8.833
    58   6 C        2.924    -0.034    28.846     8.808
    59   6 C        2.909    -0.050    29.238     8.866
    60   6 C        3.077     0.047    26.863     8.498
    61   7 N        2.802    -0.038    21.979     6.963
    62   6 C        2.913     0.063    26.582     8.454
    63   6 C        2.922    -0.041    29.025     8.835
    64   6 C        2.920    -0.027    28.686     8.783
    65   6 C        2.919    -0.032    28.792     8.799
    66   6 C        2.920    -0.027    28.685     8.783
    67   6 C        2.922    -0.041    29.028     8.835
    68   6 C        2.928    -0.039    28.968     8.826
    69   6 C        2.908    -0.041    29.028     8.834
    70   6 C        3.086     0.050    26.776     8.482
    71   6 C        2.920    -0.058    29.444     8.898
    72   6 C        2.928    -0.039    28.964     8.826
    73   6 C        2.907    -0.051    29.261     8.870
    74   6 C        3.077     0.046    26.878     8.500
    75   6 C        2.922    -0.041    29.028     8.835
    76   6 C        2.920    -0.027    28.686     8.783
    77   1 H        0.926     0.040     2.449     2.447
    78   1 H        0.926     0.041     2.440     2.443
    79   1 H        0.926     0.042     2.424     2.435
    80   1 H        0.926     0.032     2.562     2.503
    81   1 H        0.926     0.031     2.570     2.507
    82   1 H        0.926     0.029     2.602     2.523
    83   1 H        0.926     0.031     2.568     2.506
    84   1 H        0.926     0.034     2.532     2.488
    85   1 H        0.926     0.034     2.524     2.484
    86   1 H        0.926     0.033     2.549     2.497
    87   1 H        0.926     0.034     2.527     2.486
    88   1 H        0.926     0.032     2.557     2.501
    89   1 H        0.926     0.030     2.592     2.517
    90   1 H        0.926     0.030     2.580     2.512
    91   1 H        0.926     0.033     2.546     2.495
    92   1 H        0.926     0.033     2.545     2.495
    93   1 H        0.926     0.028     2.618     2.530
    94   1 H        0.926     0.025     2.659     2.550
    95   1 H        0.925     0.023     2.689     2.565
    96   1 H        0.926     0.019     2.756     2.596
    97   1 H        0.925     0.021     2.721     2.580
    98   1 H        0.926     0.029     2.603     2.523
    99   1 H        0.926     0.033     2.538     2.491
   100   1 H        0.926     0.035     2.516     2.480
   101   1 H        0.926     0.038     2.470     2.457
   102   1 H        0.926     0.042     2.428     2.436
   103   1 H        0.926     0.037     2.491     2.468
   104   1 H        0.926     0.035     2.520     2.482
   105   1 H        0.926     0.038     2.477     2.461
   106   1 H        0.926     0.033     2.542     2.493
   107   1 H        0.926     0.031     2.575     2.509
   108   1 H        0.926     0.033     2.550     2.497
   109   1 H        0.926     0.032     2.552     2.498
   110   1 H        0.926     0.043     2.409     2.427
   111   1 H        0.926     0.041     2.431     2.438
   112   1 H        0.926     0.040     2.447     2.446
   113   1 H        0.926     0.041     2.434     2.440
   114   1 H        0.926     0.043     2.414     2.429
   115   1 H        0.926     0.041     2.434     2.440
   116   1 H        0.926     0.035     2.521     2.483
   117   1 H        0.926     0.033     2.542     2.493
   118   1 H        0.926     0.035     2.521     2.483
   119   1 H        0.926     0.033     2.542     2.493
   120   1 H        0.926     0.042     2.416     2.431
   121   1 H        0.926     0.041     2.434     2.440

molecular dipole:
                 x           y           z       tot (Debye)
 q only:       -3.553       1.794       0.444
   full:       -3.133       1.823       0.260       9.237

 projected vibrational frequencies (cm⁻¹)
eigval :       -0.00    -0.00    -0.00     0.00     0.00     0.00
eigval :       -4.42     5.53    10.12    14.44    15.80    18.35
eigval :       21.20    28.13    31.05    34.79    45.41    47.19
eigval :       53.18    59.52    61.42    62.24    65.65    67.08
eigval :       73.73    80.11    91.99    94.26   102.13   106.40
eigval :      111.29   122.65   123.72   131.97   134.46   148.09
eigval :      150.68   158.50   164.63   167.01   171.80   192.61
eigval :      205.89   210.98   217.79   235.49   240.59   242.58
eigval :      257.86   261.09   264.36   271.62   277.13   283.30
eigval :      288.14   313.52   318.05   325.84   333.78   350.96
eigval :      366.95   372.71   376.44   378.53   379.83   385.69
eigval :      390.54   391.92   395.71   399.05   405.12   407.16
eigval :      414.44   415.83   420.93   423.70   430.46   432.92
eigval :      433.36   438.76   440.19   454.49   469.22   473.64
eigval :      479.28   480.78   491.45   512.38   524.76   529.16
eigval :      536.81   536.88   538.88   551.04   555.88   560.12
eigval :      569.70   571.80   575.45   584.60   586.73   588.90
eigval :      591.68   592.26   593.60   595.53   604.63   613.41
eigval :      614.41   616.12   620.93   623.51   624.16   631.75
eigval :      642.28   654.08   666.54   670.37   674.90   676.27
eigval :      676.91   685.78   688.81   695.53   705.75   706.26
eigval :      707.48   708.00   709.85   714.15   724.06   726.07
eigval :      763.13   763.78   764.58   767.41   769.64   770.62
eigval :      773.81   773.98   774.35   794.16   801.87   807.11
eigval :      812.75   826.02   831.96   842.72   845.35   865.15
eigval :      865.57   866.84   868.53   869.11   870.53   872.87
eigval :      876.02   877.48   882.04   883.92   884.12   892.32
eigval :      892.51   893.82   896.83   897.08   899.24   900.30
eigval :      901.23   903.68   906.09   906.47   907.73   912.52
eigval :      913.36   916.02   917.56   918.91   919.51   920.47
eigval :      921.18   921.55   929.09   929.48   930.71   934.40
eigval :      935.82   936.21   937.01   990.67   997.03   997.05
eigval :     1006.76  1010.90  1012.56  1026.55  1027.65  1063.04
eigval :     1064.35  1066.92  1067.29  1068.41  1070.54  1070.99
eigval :     1078.48  1079.87  1092.45  1114.98  1116.37  1116.74
eigval :     1118.59  1121.18  1121.88  1136.62  1146.88  1150.27
eigval :     1151.93  1153.63  1155.33  1169.08  1174.07  1176.64
eigval :     1178.02  1178.66  1179.85  1180.15  1182.14  1183.09
eigval :     1189.06  1198.22  1198.81  1208.68  1211.56  1216.31
eigval :     1223.88  1227.16  1229.22  1230.25  1243.09  1243.53
eigval :     1247.25  1250.97  1254.11  1267.74  1272.51  1273.95
eigval :     1274.24  1281.42  1283.43  1289.46  1291.64  1303.42
eigval :     1306.08  1306.69  1315.23  1315.26  1321.13  1329.50
eigval :     1339.82  1343.28  1348.37  1349.60  1352.65  1354.87
eigval :     1356.17  1358.23  1359.10  1360.53  1363.81  1370.24
eigval :     1377.51  1383.74  1402.77  1413.88  1415.17  1418.60
eigval :     1419.64  1421.55  1427.64  1431.44  1432.98  1435.29
eigval :     1435.94  1447.52  1450.89  1453.96  1458.47  1465.60
eigval :     1471.18  1474.69  1477.91  1478.06  1479.69  1481.86
eigval :     1485.66  1490.97  1542.34  1547.06  1549.99  1555.72
eigval :     1558.43  1559.67  1562.23  1567.48  1575.13  1579.68
eigval :     1580.32  1581.35  1581.81  1582.79  1585.72  1587.95
eigval :     1591.59  1591.97  1594.84  1595.69  1607.59  1608.82
eigval :     3020.44  3054.08  3071.93  3072.35  3073.40  3074.38
eigval :     3074.96  3076.31  3077.05  3077.61  3077.69  3078.24
eigval :     3078.74  3078.98  3079.32  3079.71  3080.42  3081.36
eigval :     3083.38  3083.85  3085.43  3085.97  3086.11  3087.08
eigval :     3087.20  3087.36  3088.20  3088.41  3088.93  3089.68
eigval :     3090.40  3090.80  3090.87  3091.88  3092.61  3093.10
eigval :     3093.40  3094.14  3094.77  3095.30  3095.99  3097.24
eigval :     3097.92  3099.28  3104.81

   temp. (K)  partition function   enthalpy   heat capacity  entropy
                                   cal/mol     cal/K/mol   cal/K/mol   J/K/mol
 298.15  VIB  0.336E+29            35156.780    223.295    220.734
         ROT  0.416E+09              888.752      2.981     42.419
         INT  0.140E+38            36045.532    226.276    263.153
         TR   0.291E+29             1481.254      4.968     46.464
         TOT                       37526.7860   231.2444   309.6169  1295.4372

       T/K    H(0)-H(T)+PV         H(T)/Eh          T*S/Eh         G(T)/Eh
   ------------------------------------------------------------------------
    298.15    0.598027E-01    0.982243E+00    0.147109E+00    0.835134E+00
   ------------------------------------------------------------------------

         :::::::::::::::::::::::::::::::::::::::::::::::::::::
         ::                  THERMODYNAMIC                  ::
         :::::::::::::::::::::::::::::::::::::::::::::::::::::
         :: total free energy        -188.913999073608 Eh   ::
         ::.................................................::
         :: total energy             -189.749132703664 Eh   ::
         :: zero point energy           0.922439881008 Eh   ::
         :: G(RRHO) w/o ZPVE           -0.087306250953 Eh   ::
         :: G(RRHO) contrib.            0.835133630056 Eh   ::
         :::::::::::::::::::::::::::::::::::::::::::::::::::::

           -------------------------------------------------
          | TOTAL ENERGY             -189.749132703664 Eh   |
          | TOTAL ENTHALPY           -188.766890082522 Eh   |
          | TOTAL FREE ENERGY        -188.913999073608 Eh   |
          | GRADIENT NORM               0.000042684530 Eh/α |
          | HOMO-LUMO GAP               0.407775861022 eV   |
           -------------------------------------------------

 * finished run on 2025/09/14 at 09:29:32.471
