   * xtb version 6.7.1 (edcfbbe) compiled by 'albert@albert-system' on 2024-07-22

   ID    Z sym.   atoms
    1    6 C      1-4, 6-26, 28-36, 38, 40-60, 62-76
    2    7 N      5, 27, 37, 39, 61
    3    1 H      77-121

          program call               : xtb data2507/toluene/2PBCzPy/2PBCzPy_toluene_S0_finalOpt.xtbopt.xyz --gfn 2 --uhf 2 --gbsa toluene --ohess vtight --parallel 40 --molden --ceasefiles --namespace data2507/toluene/2PBCzPy/2PBCzPy_toluene_T1_preOpt
      * Solvation model:               GBSA
        Solvent                        toluene
        Solvent mass                       9.2140E+01 g/mol
          :  Hamiltonian                  GFN2-xTB          :
 * total energy  :  -189.7361761 Eh     change       -0.3006804E-07 Eh
 * total energy  :  -189.7386898 Eh     change       -0.2513790E-02 Eh
 * total energy  :  -189.7404865 Eh     change       -0.1796672E-02 Eh
 * total energy  :  -189.7410234 Eh     change       -0.5369090E-03 Eh
 * total energy  :  -189.7417159 Eh     change       -0.6924698E-03 Eh
 * total energy  :  -189.7421594 Eh     change       -0.4434582E-03 Eh
 * total energy  :  -189.7424991 Eh     change       -0.3397470E-03 Eh
 * total energy  :  -189.7427014 Eh     change       -0.2023121E-03 Eh
 * total energy  :  -189.7428193 Eh     change       -0.1178599E-03 Eh
 * total energy  :  -189.7429029 Eh     change       -0.8360921E-04 Eh
 * total energy  :  -189.7435610 Eh     change       -0.5298661E-06 Eh
 * total energy  :  -189.7435616 Eh     change       -0.5120870E-06 Eh
 * total energy  :  -189.7435621 Eh     change       -0.5407958E-06 Eh
 * total energy  :  -189.7435625 Eh     change       -0.3989516E-06 Eh
 * total energy  :  -189.7435627 Eh     change       -0.2174042E-06 Eh
 * total energy  :  -189.7435629 Eh     change       -0.1623882E-06 Eh
 * total energy  :  -189.7435630 Eh     change       -0.1142537E-06 Eh
 * total energy  :  -189.7435631 Eh     change       -0.1116118E-06 Eh
 * total energy  :  -189.7435632 Eh     change       -0.9130704E-07 Eh
   *** GEOMETRY OPTIMIZATION CONVERGED AFTER 86 ITERATIONS ***

 final structure:
================
121
 xtb: 6.7.1 (edcfbbe)
C          -13.49026076909090       -3.35924208559980       -3.38656815096193
C          -13.13318875305143       -2.05992170858307       -3.06433723655305
C          -12.20797102444928       -1.81809555915529       -2.06510446002495
C          -11.62636012247608       -2.88460232143466       -1.38566138154230
N          -10.68240954279468       -2.64487241875900       -0.37318515542441
C          -10.72394131110381       -3.16117251542528        0.90831014614342
C          -11.68068488121249       -3.97046294716180        1.50421975818590
C          -11.48957836726703       -4.32908003691605        2.82587024822049
C          -10.38053145125114       -3.89004890662979        3.54557216891442
C           -9.43674873930909       -3.06476650037701        2.96407827686969
C           -9.60734509994531       -2.69128096493827        1.63802152871789
C           -8.85694464982836       -1.85510607785090        0.73998262958352
C           -7.67966579530970       -1.13935582417626        0.87010244951434
C           -7.19663281256409       -0.41396903445463       -0.21784085353166
C           -5.96741541251110        0.37167714743019       -0.09707793777065
C           -4.88423975466389       -0.11748857644706        0.65791188424719
C           -3.71701451559688        0.59669905693455        0.81479974710457
C           -3.62701002027080        1.85118597781010        0.21933089055792
C           -4.69255502173607        2.34499832364839       -0.58074036047104
C           -5.85269647260891        1.60790916954351       -0.73172087189981
C           -4.25816236456204        3.61306991602812       -1.09553187871094
C           -4.84632652140859        4.56412090405527       -1.91791765413875
C           -4.14387057444939        5.72065989771562       -2.20249335486356
C           -2.87840760298502        5.94251538547675       -1.66275968299654
C           -2.27251954842615        5.00665564652105       -0.84347470525429
C           -2.95641294683392        3.82990105738639       -0.57919765376262
N           -2.59090956116765        2.75653529954614        0.21670751742305
C           -1.38983620366528        2.62861268022265        0.90752627606250
C           -1.37163197559956        2.18378409689139        2.25562701803799
C           -0.19538747626764        2.06748595878551        2.92642410904196
C            1.06054666382663        2.39968386582552        2.33693313937756
C            2.21837913145817        2.42888059147605        3.15248005319066
C            3.41008178710959        3.14652318284788        2.84412426888469
C            4.48973967199064        3.07698574956723        3.67980333073301
C            4.41293153779232        2.31077635431235        4.85328997847310
C            3.19593413916592        1.69902701415941        5.12564513635120
N            2.15401344288734        1.74810402611486        4.33741116297550
C            1.02813993322267        2.73175875317070        0.93274249137582
N            2.21373330108576        2.82859022029729        0.18882339405722
C            2.57853964418463        3.87864470684399       -0.63033347633929
C            1.94037549498153        5.09181910447758       -0.84446760376263
C            2.53847314466026        5.99710137256848       -1.70123273428032
C            3.75023370498039        5.71068532150376       -2.32656252702360
C            4.40655733987281        4.51576620217934       -2.09484642642257
C            3.82485314098676        3.59215321642391       -1.23801858254688
C            4.22099369730965        2.29657436240227       -0.75575650562052
C            5.32781484324194        1.49712921701307       -0.97978325432957
C            5.41923516365697        0.26374883205435       -0.33896223170328
C            6.59790055712838       -0.58818846051122       -0.53205612296942
C            7.20409631209250       -0.68386300813036       -1.79513130174193
C            8.31698701412618       -1.46587084597187       -2.01908221636425
C            8.84403424378260       -2.17533757026814       -0.94689654801736
C            8.26186349523203       -2.07756954544433        0.33970088036441
C            7.13869053791638       -1.29259034642749        0.54022484491196
C            9.06882926938372       -2.88634691019328        1.21270028335824
C            8.99848113952816       -3.19849537558783        2.56374833724118
C            9.94822350874767       -4.04900693642573        3.09648969798607
C           10.95017247105635       -4.59549824368255        2.29734658538536
C           11.04086144735363       -4.29928174789871        0.95002677414350
C           10.10266760514469       -3.42837907880896        0.41416453590110
N            9.95286329702610       -2.98981217325181       -0.88723432431896
C           10.79841607849651       -3.30883315370469       -1.96326907440027
C           10.26493911142297       -3.81561176527085       -3.14457043765314
C           11.10153306388924       -4.12366097503473       -4.20205056591803
C           12.46962980785653       -3.93752780474143       -4.08784884374006
C           13.00166913831680       -3.43687456431622       -2.91063627215977
C           12.17242013785608       -3.11781532192041       -1.85071643517278
C            4.37471293709970       -0.15630043639927        0.50189847391225
C            3.25917680522367        0.61887300352123        0.73112471556895
C            3.19314906551836        1.86404684935669        0.11744182299329
C           -0.16903564187229        2.87356687747044        0.26916785271301
C           -7.90234191536524       -0.44512462996789       -1.43316981844494
C           -9.07008259269456       -1.15975655300527       -1.58726217100144
C           -9.56261780422408       -1.85359236321869       -0.48762702781391
C          -11.98185572310443       -4.18981027229111       -1.71328441994362
C          -12.91446068874207       -4.42112435736622       -2.70803360994541
H          -14.21546423564356       -3.54409884406550       -4.16475929043334
H          -13.58294919786539       -1.22935311503233       -3.58804914344700
H          -11.94179359075246       -0.80649538370534       -1.79678021219882
H          -12.55134177448685       -4.30309258965266        0.95965361286117
H          -12.21853763658654       -4.96101238528735        3.31188157514538
H          -10.26510604844124       -4.19398245670851        4.57559387996331
H           -8.58587102045466       -2.71228547009685        3.52755287238260
H           -7.15650824260784       -1.12226371736330        1.81391466099962
H           -4.95974093012901       -1.09998028783815        1.09886520248930
H           -2.88887405020180        0.18285084277169        1.36946910404753
H           -6.67149086955521        2.00133588170939       -1.31460801657997
H           -5.83560372988545        4.40451558922752       -2.31967543676382
H           -4.58376645369332        6.47146406970245       -2.84228378748777
H           -2.36182701154548        6.86484498693415       -1.88358591158259
H           -1.30249177702877        5.19551651910793       -0.41217970291333
H           -2.30872544117033        1.98669418376662        2.75400665604470
H           -0.17620859626024        1.75678980279809        3.95950350547877
H            3.43617070492715        3.79872736121833        1.98564410665172
H            5.39349384276184        3.62605912387001        3.45123093462658
H            5.24874114376008        2.21848034237774        5.52764316190340
H            3.05884555614365        1.12281632705606        6.03507005173497
H            1.01385954264016        5.32695382423493       -0.34403374375331
H            2.05875459834283        6.94707681791189       -1.88554574552081
H            4.18618872166857        6.44091433772247       -2.99223620105518
H            5.35584790041122        4.30533411041746       -2.56416391553207
H            6.12488291851669        1.84104303607120       -1.62136592966581
H            6.76992285435585       -0.14212590464274       -2.62214644600580
H            8.76756831131456       -1.51676304214050       -2.99869957144635
H            6.70703499962975       -1.20154583498863        1.52564998573307
H            8.21385513703738       -2.78612300543198        3.18057442527669
H            9.91247031394880       -4.30267982196852        4.14584462435607
H           11.66986997470000       -5.26879970356492        2.73962343600172
H           11.81140716940195       -4.73963816988819        0.33542519129792
H            9.19986685250232       -3.97677136559200       -3.22177304867685
H           10.68307793792871       -4.51776985798541       -5.11641990532544
H           13.12000038937087       -4.18259548189809       -4.91405111449181
H           14.06720197302404       -3.28613309196748       -2.81867926795597
H           12.58019664115079       -2.70920607532011       -0.93794564851788
H            4.43845826453076       -1.13067209417469        0.96329357131592
H            2.46346494129602        0.27200964399552        1.37252672140138
H           -0.16183049159931        3.09502981098614       -0.78892966910274
H           -7.49746250306901        0.08422807685966       -2.28268005698361
H           -9.57851412101140       -1.18883740227292       -2.53914316572632
H          -11.51491545129703       -5.01492412359930       -1.19624039108719
H          -13.18630318294563       -5.43575583784031       -2.95924004533802

          :  Hamiltonian                  GFN2-xTB          :
         :: gradient norm              0.000034114415 Eh/a0 ::
         :: HOMO-LUMO gap              0.360711162616 eV    ::
         :: SCC energy              -193.315534514431 Eh    ::
         :: -> dispersion             -0.178583766866 Eh    ::
         :: -> Gsolv                  -0.080095020958 Eh    ::
         :: repulsion energy           3.571971319836 Eh    ::

    * Orbital Energies and Occupations

         #    Occupation            Energy/Eh            Energy/eV
      -------------------------------------------------------------
         1        2.0000           -0.6806751             -18.5221
       ...           ...                  ...                  ...
       166        2.0000           -0.4017727             -10.9328
       167        2.0000           -0.3998245             -10.8798
       168        2.0000           -0.3840043             -10.4493
       169        2.0000           -0.3829409             -10.4204
       170        2.0000           -0.3819404             -10.3931
       171        2.0000           -0.3802995             -10.3485
       172        2.0000           -0.3788353             -10.3086
       173        2.0000           -0.3700744             -10.0702
       174        2.0000           -0.3646584              -9.9229
       175        1.9797           -0.3576435              -9.7320
       176        1.8640           -0.3557177              -9.6796
       177        1.1563           -0.3523588              -9.5882
       178        0.9988           -0.2622070              -7.1350 (HOMO)
       179        0.0007           -0.2489513              -6.7743 (LUMO)
       180        0.0003           -0.2480449              -6.7496
       181        0.0002           -0.2477520              -6.7417
       182        0.0001           -0.2467956              -6.7157
       183        0.0000           -0.2424893              -6.5985
       184        0.0000           -0.2409929              -6.5578
       185                         -0.2341969              -6.3728
       186                         -0.2335614              -6.3555
       187                         -0.2329186              -6.3380
       188                         -0.2323909              -6.3237
       189                         -0.2235369              -6.0827
       ...                                ...                  ...
       349                          0.7495902              20.3974
      -------------------------------------------------------------
                  HL-Gap            0.0132556 Eh            0.3607 eV

     #   Z          covCN         q      C6AA      α(0)
     1   6 C        2.919    -0.031    28.784     8.798
     2   6 C        2.920    -0.027    28.680     8.782
     3   6 C        2.922    -0.041    29.020     8.834
     4   6 C        2.913     0.063    26.586     8.455
     5   7 N        2.802    -0.036    21.926     6.955
     6   6 C        3.076     0.047    26.867     8.498
     7   6 C        2.909    -0.049    29.223     8.864
     8   6 C        2.924    -0.034    28.837     8.806
     9   6 C        2.920    -0.040    28.997     8.831
    10   6 C        2.912    -0.033    28.820     8.803
    11   6 C        3.066    -0.017    28.355     8.732
    12   6 C        3.063    -0.016    28.349     8.731
    13   6 C        2.917    -0.037    28.924     8.819
    14   6 C        2.976     0.003    27.953     8.672
    15   6 C        2.976     0.006    27.894     8.663
    16   6 C        2.926    -0.042    29.034     8.837
    17   6 C        2.907    -0.044    29.096     8.845
    18   6 C        3.075     0.042    26.977     8.516
    19   6 C        3.061    -0.016    28.352     8.732
    20   6 C        2.916    -0.037    28.909     8.817
    21   6 C        3.062    -0.016    28.351     8.732
    22   6 C        2.912    -0.033    28.819     8.803
    23   6 C        2.919    -0.038    28.936     8.821
    24   6 C        2.922    -0.036    28.897     8.815
    25   6 C        2.910    -0.043    29.076     8.842
    26   6 C        3.077     0.043    26.946     8.511
    27   7 N        2.796    -0.011    21.475     6.883
    28   6 C        2.909     0.029    27.357     8.576
    29   6 C        2.911    -0.048    29.196     8.860
    30   6 C        2.919    -0.042    29.049     8.838
    31   6 C        2.970    -0.022    28.550     8.764
    32   6 C        2.937     0.071    26.415     8.429
    33   6 C        2.913    -0.050    29.248     8.868
    34   6 C        2.920    -0.026    28.660     8.779
    35   6 C        2.911    -0.069    29.720     8.939
    36   6 C        2.881     0.062    26.609     8.457
    37   7 N        1.843    -0.268    27.803     7.814
    38   6 C        2.906     0.037    27.175     8.548
    39   7 N        2.801    -0.027    21.771     6.930
    40   6 C        3.079     0.048    26.850     8.495
    41   6 C        2.910    -0.046    29.149     8.853
    42   6 C        2.923    -0.035    28.863     8.810
    43   6 C        2.920    -0.039    28.976     8.827
    44   6 C        2.912    -0.033    28.828     8.804
    45   6 C        3.065    -0.017    28.359     8.732
    46   6 C        3.063    -0.017    28.375     8.735
    47   6 C        2.917    -0.038    28.955     8.824
    48   6 C        2.976     0.003    27.951     8.672
    49   6 C        2.976     0.002    27.984     8.677
    50   6 C        2.928    -0.038    28.953     8.824
    51   6 C        2.907    -0.050    29.253     8.869
    52   6 C        3.076     0.047    26.865     8.498
    53   6 C        3.064    -0.017    28.369     8.734
    54   6 C        2.917    -0.037    28.930     8.820
    55   6 C        3.067    -0.017    28.371     8.734
    56   6 C        2.912    -0.033    28.828     8.804
    57   6 C        2.920    -0.041    29.014     8.833
    58   6 C        2.924    -0.034    28.848     8.808
    59   6 C        2.909    -0.050    29.239     8.867
    60   6 C        3.077     0.047    26.859     8.497
    61   7 N        2.802    -0.039    21.984     6.964
    62   6 C        2.913     0.063    26.580     8.454
    63   6 C        2.922    -0.041    29.024     8.835
    64   6 C        2.920    -0.027    28.683     8.782
    65   6 C        2.919    -0.032    28.791     8.799
    66   6 C        2.920    -0.027    28.684     8.783
    67   6 C        2.922    -0.041    29.021     8.834
    68   6 C        2.928    -0.039    28.966     8.826
    69   6 C        2.907    -0.044    29.098     8.845
    70   6 C        3.079     0.049    26.813     8.489
    71   6 C        2.918    -0.058    29.453     8.900
    72   6 C        2.928    -0.038    28.942     8.823
    73   6 C        2.907    -0.050    29.231     8.865
    74   6 C        3.076     0.047    26.861     8.497
    75   6 C        2.922    -0.041    29.018     8.834
    76   6 C        2.920    -0.027    28.680     8.782
    77   1 H        0.926     0.041     2.439     2.442
    78   1 H        0.926     0.042     2.422     2.434
    79   1 H        0.926     0.044     2.403     2.424
    80   1 H        0.926     0.034     2.533     2.489
    81   1 H        0.926     0.033     2.543     2.494
    82   1 H        0.926     0.031     2.573     2.508
    83   1 H        0.926     0.034     2.534     2.490
    84   1 H        0.926     0.038     2.477     2.461
    85   1 H        0.926     0.037     2.488     2.467
    86   1 H        0.926     0.038     2.470     2.458
    87   1 H        0.926     0.040     2.453     2.449
    88   1 H        0.926     0.036     2.504     2.474
    89   1 H        0.926     0.033     2.540     2.492
    90   1 H        0.926     0.033     2.539     2.492
    91   1 H        0.926     0.033     2.545     2.495
    92   1 H        0.926     0.036     2.498     2.471
    93   1 H        0.926     0.045     2.378     2.412
    94   1 H        0.926     0.017     2.774     2.604
    95   1 H        0.925     0.017     2.785     2.609
    96   1 H        0.926     0.015     2.811     2.622
    97   1 H        0.925     0.019     2.754     2.595
    98   1 H        0.926     0.031     2.579     2.511
    99   1 H        0.926     0.034     2.524     2.485
   100   1 H        0.926     0.033     2.539     2.492
   101   1 H        0.926     0.035     2.515     2.480
   102   1 H        0.926     0.039     2.465     2.455
   103   1 H        0.926     0.037     2.490     2.468
   104   1 H        0.926     0.035     2.511     2.478
   105   1 H        0.926     0.033     2.543     2.494
   106   1 H        0.926     0.031     2.571     2.508
   107   1 H        0.926     0.030     2.587     2.515
   108   1 H        0.926     0.033     2.546     2.495
   109   1 H        0.926     0.033     2.539     2.492
   110   1 H        0.926     0.043     2.411     2.428
   111   1 H        0.926     0.042     2.423     2.434
   112   1 H        0.926     0.041     2.437     2.441
   113   1 H        0.926     0.042     2.426     2.436
   114   1 H        0.926     0.042     2.416     2.431
   115   1 H        0.926     0.035     2.523     2.484
   116   1 H        0.926     0.031     2.573     2.509
   117   1 H        0.926     0.035     2.514     2.480
   118   1 H        0.926     0.038     2.479     2.462
   119   1 H        0.926     0.036     2.507     2.476
   120   1 H        0.926     0.043     2.406     2.426
   121   1 H        0.926     0.042     2.425     2.435

molecular dipole:
                 x           y           z       tot (Debye)
 q only:       -1.759      -1.705      -2.838
   full:       -1.417      -1.547      -2.752       8.796

 projected vibrational frequencies (cm⁻¹)
eigval :       -0.00    -0.00    -0.00    -0.00     0.00     0.00
eigval :        5.34     8.76     9.91    12.21    15.85    19.35
eigval :       24.89    27.82    31.48    33.51    39.51    48.62
eigval :       56.02    56.57    59.85    60.82    65.51    67.76
eigval :       74.61    80.90    91.78    94.95   105.16   111.42
eigval :      112.42   119.08   124.60   129.10   131.94   139.36
eigval :      143.56   163.86   171.33   177.82   180.55   187.52
eigval :      190.41   210.06   218.87   231.58   237.86   239.97
eigval :      256.74   260.58   266.15   268.19   281.68   284.10
eigval :      289.73   310.97   325.01   328.82   335.19   347.31
eigval :      363.29   377.48   378.89   379.86   380.57   383.44
eigval :      390.88   393.92   395.73   397.68   401.06   409.27
eigval :      412.56   415.35   421.69   426.38   429.11   433.35
eigval :      434.87   442.70   442.91   448.27   463.91   470.08
eigval :      476.92   484.48   493.48   509.01   524.30   525.13
eigval :      537.46   538.00   539.24   552.23   556.11   557.97
eigval :      566.71   571.78   573.88   576.47   584.84   587.02
eigval :      590.99   592.07   592.96   600.26   604.08   609.14
eigval :      611.82   615.57   620.56   622.14   630.69   639.88
eigval :      648.27   654.76   662.65   669.51   671.11   674.79
eigval :      676.44   685.95   688.26   693.22   702.27   704.16
eigval :      704.60   707.54   707.79   709.52   722.71   725.03
eigval :      762.24   763.45   765.38   765.87   766.31   771.34
eigval :      772.77   774.72   775.64   792.30   808.66   811.38
eigval :      818.36   831.56   832.40   843.55   848.66   861.12
eigval :      864.53   866.10   868.38   869.07   869.36   872.66
eigval :      877.16   878.02   881.51   883.60   886.06   891.07
eigval :      893.11   894.53   897.16   901.15   901.96   903.44
eigval :      905.23   905.51   905.83   907.68   910.70   913.68
eigval :      913.81   914.89   917.67   919.15   919.68   921.45
eigval :      922.07   924.75   927.64   929.00   930.94   933.21
eigval :      934.40   934.52   935.59   983.24   996.83   997.17
eigval :     1002.25  1010.08  1012.01  1026.55  1028.23  1063.07
eigval :     1063.26  1065.46  1068.77  1069.51  1069.80  1072.94
eigval :     1078.75  1078.99  1092.87  1107.60  1115.38  1116.91
eigval :     1117.79  1120.77  1121.28  1137.62  1139.25  1148.79
eigval :     1152.43  1153.75  1156.51  1168.51  1173.54  1175.10
eigval :     1175.80  1177.99  1179.42  1181.40  1181.71  1182.36
eigval :     1187.70  1196.68  1197.66  1200.13  1208.89  1210.70
eigval :     1221.82  1226.15  1228.91  1230.87  1237.50  1242.73
eigval :     1244.37  1249.05  1251.70  1266.41  1268.37  1272.57
eigval :     1273.66  1275.47  1283.82  1286.51  1295.03  1298.52
eigval :     1302.73  1305.93  1314.68  1315.21  1315.32  1317.39
eigval :     1338.66  1341.14  1344.03  1347.30  1349.96  1351.34
eigval :     1353.14  1355.85  1358.37  1358.65  1364.87  1367.57
eigval :     1374.24  1382.90  1397.87  1403.72  1412.17  1415.31
eigval :     1418.98  1419.64  1422.60  1428.80  1432.62  1433.93
eigval :     1436.87  1439.96  1447.06  1449.85  1456.00  1460.55
eigval :     1470.71  1474.11  1476.20  1477.36  1479.01  1479.66
eigval :     1488.13  1492.07  1531.13  1539.59  1541.81  1547.93
eigval :     1551.76  1554.66  1559.34  1565.59  1572.74  1574.87
eigval :     1579.48  1579.70  1581.22  1582.09  1583.39  1588.33
eigval :     1590.43  1591.58  1591.81  1596.84  1603.80  1607.61
eigval :     3010.35  3049.68  3072.58  3074.70  3075.27  3075.44
eigval :     3075.69  3077.47  3077.59  3078.20  3079.40  3079.46
eigval :     3080.16  3080.30  3080.96  3081.30  3081.58  3082.20
eigval :     3083.31  3084.97  3085.37  3086.89  3087.56  3087.72
eigval :     3088.54  3088.56  3089.38  3089.71  3090.80  3091.34
eigval :     3091.65  3091.81  3091.96  3092.45  3093.03  3093.25
eigval :     3093.73  3094.36  3094.94  3095.80  3096.73  3098.05
eigval :     3098.23  3100.69  3102.43

   temp. (K)  partition function   enthalpy   heat capacity  entropy
                                   cal/mol     cal/K/mol   cal/K/mol   J/K/mol
 298.15  VIB  0.204E+29            35175.049    223.352    220.225
         ROT  0.588E+09              888.752      2.981     43.109
         INT  0.120E+38            36063.802    226.333    263.334
         TR   0.291E+29             1481.254      4.968     46.464
         TOT                       37545.0555   231.3009   309.7976  1296.1930

       T/K    H(0)-H(T)+PV         H(T)/Eh          T*S/Eh         G(T)/Eh
   ------------------------------------------------------------------------
    298.15    0.598319E-01    0.981689E+00    0.147195E+00    0.834495E+00
   ------------------------------------------------------------------------

         :::::::::::::::::::::::::::::::::::::::::::::::::::::
         ::                  THERMODYNAMIC                  ::
         :::::::::::::::::::::::::::::::::::::::::::::::::::::
         :: total free energy        -188.909068679697 Eh   ::
         ::.................................................::
         :: total energy             -189.743563186103 Eh   ::
         :: zero point energy           0.921857468890 Eh   ::
         :: G(RRHO) w/o ZPVE           -0.087362962485 Eh   ::
         :: G(RRHO) contrib.            0.834494506405 Eh   ::
         :::::::::::::::::::::::::::::::::::::::::::::::::::::

           -------------------------------------------------
          | TOTAL ENERGY             -189.743563186103 Eh   |
          | TOTAL ENTHALPY           -188.761873862802 Eh   |
          | TOTAL FREE ENERGY        -188.909068679697 Eh   |
          | GRADIENT NORM               0.000031620030 Eh/α |
          | HOMO-LUMO GAP               0.360704422199 eV   |
           -------------------------------------------------

 * finished run on 2025/09/14 at 09:13:19.803
