   * xtb version 6.7.1 (edcfbbe) compiled by 'albert@albert-system' on 2024-07-22

   ID    Z sym.   atoms
    1    6 C      1-4, 6-26, 28-36, 38, 40-60, 62-76
    2    7 N      5, 27, 37, 39, 61
    3    1 H      77-121

          program call               : xtb data2507/toluene/2PBCzPy/2PBCzPy.xyz --gfn 2 --gbsa toluene --ohess vtight --parallel 40 --molden --ceasefiles --namespace data2507/toluene/2PBCzPy/2PBCzPy_toluene_S0_preOpt
      * Solvation model:               GBSA
        Solvent                        toluene
        Solvent mass                       9.2140E+01 g/mol
          :  Hamiltonian                  GFN2-xTB          :
 * total energy  :  -189.8010968 Eh     change       -0.2670362E-08 Eh
 * total energy  :  -189.8235573 Eh     change       -0.2246052E-01 Eh
 * total energy  :  -189.8295868 Eh     change       -0.6029477E-02 Eh
 * total energy  :  -189.8313975 Eh     change       -0.1810719E-02 Eh
 * total energy  :  -189.8327874 Eh     change       -0.1389918E-02 Eh
 * total energy  :  -189.8334049 Eh     change       -0.6174592E-03 Eh
 * total energy  :  -189.8337609 Eh     change       -0.3559570E-03 Eh
 * total energy  :  -189.8340455 Eh     change       -0.2846587E-03 Eh
 * total energy  :  -189.8342745 Eh     change       -0.2289436E-03 Eh
 * total energy  :  -189.8344657 Eh     change       -0.1912759E-03 Eh
 * total energy  :  -189.8356936 Eh     change       -0.1336132E-05 Eh
 * total energy  :  -189.8356948 Eh     change       -0.1249826E-05 Eh
 * total energy  :  -189.8356958 Eh     change       -0.9593586E-06 Eh
 * total energy  :  -189.8356966 Eh     change       -0.8597164E-06 Eh
 * total energy  :  -189.8356974 Eh     change       -0.7153813E-06 Eh
 * total energy  :  -189.8356982 Eh     change       -0.8571510E-06 Eh
 * total energy  :  -189.8356991 Eh     change       -0.9208536E-06 Eh
 * total energy  :  -189.8357002 Eh     change       -0.1022019E-05 Eh
 * total energy  :  -189.8357002 Eh     change       -0.7075187E-08 Eh
   *** GEOMETRY OPTIMIZATION CONVERGED AFTER 94 ITERATIONS ***

 final structure:
================
121
 xtb: 6.7.1 (edcfbbe)
C          -13.26609712337962       -4.02782932883494       -3.05320305604420
C          -12.95109199272375       -2.67991965908333       -2.99736999396123
C          -12.11058636049172       -2.19999162691841       -2.00935515640772
C          -11.57036507363406       -3.07523298875667       -1.07161620338447
N          -10.71346784188985       -2.59389754238378       -0.06841350894658
C          -10.84517858883290       -2.82437621169471        1.28637335369044
C          -11.83923237907520       -3.50638415326628        1.97438134831934
C          -11.74644600294801       -3.56655374507465        3.35186501757529
C          -10.69694678292100       -2.95799009962574        4.03785121943511
C           -9.71693677785146       -2.25949340513605        3.36073979971409
C           -9.78882050455071       -2.18397423805483        1.97562709061110
C           -8.98027558754205       -1.54224484768151        0.97620642568291
C           -7.81842066958513       -0.78705092140440        1.03300080250238
C           -7.26191251068148       -0.30579123779990       -0.14512649553609
C           -6.03392732535374        0.50497612905489       -0.11490863104526
C           -4.97454360166624        0.14379017990825        0.72921775696158
C           -3.80498275257332        0.87355625935713        0.79535550807040
C           -3.69882054084810        2.00803831453888        0.00322873399246
C           -4.74416174239941        2.37554763492729       -0.87348148140503
C           -5.90829251769262        1.62423084796685       -0.92798048308460
C           -4.29599588481274        3.54639295234617       -1.57634457715467
C           -4.87721286430599        4.36477269437081       -2.53608129202262
C           -4.16238532058916        5.45060709516908       -3.00239832067163
C           -2.89003785594657        5.73368966009809       -2.51081366370450
C           -2.29335868053635        4.93427622278029       -1.55435785445751
C           -2.99456756660607        3.82691766690752       -1.10046284019904
N           -2.64558069921430        2.89290417500284       -0.14268690653377
C           -1.43759730275930        2.84475539951618        0.56092588189849
C           -1.43382695395407        2.70236105092028        1.94794139865730
C           -0.23668151264510        2.64232072780302        2.63031354428723
C            0.98322380333023        2.74450351102385        1.96639978120724
C            2.23026217831851        2.73262329723017        2.75092416192180
C            3.27939054895563        3.61420178068465        2.48474037707897
C            4.42435729348967        3.53818876536208        3.25680274401249
C            4.48730580630758        2.59923454933568        4.27542583711966
C            3.37837383083838        1.79413889725118        4.48538276020020
N            2.28289612749836        1.85591960017861        3.75182208299931
C            0.97669135842669        2.85937891823395        0.56926656857914
N            2.17868253171618        2.87148185613477       -0.15766577011359
C            2.59097894356638        3.86144525684891       -1.02680142057184
C            1.95567087300579        5.04163442971054       -1.38371482121239
C            2.60587029964060        5.88618842585443       -2.26331827794131
C            3.86501996909879        5.57370672328372       -2.77177026371475
C            4.51265248360139        4.41096034143846       -2.40224361400544
C            3.87848529082172        3.54599018925796       -1.51961800660294
C            4.25119736708417        2.29704100301915       -0.91367265946730
C            5.37752055299613        1.49287838810292       -1.00512163480918
C            5.43228986217820        0.31540694762420       -0.27073904799833
C            6.62031827828828       -0.55136485999437       -0.33147363691074
C            7.25093438597390       -0.79642509139339       -1.55957916498224
C            8.35980627139430       -1.61051289256123       -1.66622376892593
C            8.85151786083803       -2.19806034627979       -0.50880601347131
C            8.24731730814322       -1.94273112141331        0.74399425883582
C            7.12954173697582       -1.12596485568507        0.82615034902844
C            9.02195446256949       -2.65577439882495        1.72157881660966
C            8.91852748716300       -2.80787466960615        3.09841173054432
C            9.83950923885698       -3.60592305476472        3.74771596339168
C           10.84723417464901       -4.25833373756417        3.03969471534041
C           10.97068861639420       -4.12291757524268        1.66995268565328
C           10.06121578781865       -3.30457990210413        1.01440781561892
N            9.94593754672722       -3.01939429506125       -0.33143926073227
C           10.78604224328944       -3.50151736525557       -1.34858687945223
C           10.24175472747655       -4.13484385796438       -2.46213004491581
C           11.07244595008782       -4.60850399209456       -3.46134933673228
C           12.44620204271840       -4.46372871596564       -3.35529264256010
C           12.98918887954883       -3.83607634297450       -2.24607316233228
C           12.16582850292814       -3.35046246446736       -1.24640690462347
C            4.34098435283602       -0.05202391508353        0.52965095873539
C            3.20669094607147        0.72658052263705        0.62839626071174
C            3.17491210634267        1.91866976132423       -0.08033887299020
C           -0.22697214502100        2.91018866963745       -0.12111721209412
C           -7.87353148769530       -0.60562176605969       -1.37083407051972
C           -9.02497816136124       -1.36119208220258       -1.45206951462696
C           -9.59084427785646       -1.81678857102254       -0.26927906692175
C          -11.88185054490780       -4.43046015868297       -1.13317196114993
C          -12.73178685421698       -4.89942296533086       -2.11826705648153
H          -13.92670987684427       -4.39801627420587       -3.82284303140914
H          -13.36790174544375       -1.99619674943043       -3.72233610180708
H          -11.87834009302690       -1.14694954912438       -1.95041732775626
H          -12.66441444607820       -3.96820119996379        1.45324190655953
H          -12.50679870530296       -4.09363097231184        3.90993176361907
H          -10.65860017807822       -3.02950630293998        5.11511586216340
H           -8.91231795388704       -1.77501575287745        3.89380423563310
H           -7.36218649444306       -0.56251709837975        1.98556139888605
H           -5.06976242408527       -0.74978242568459        1.32859159509792
H           -2.99436720269922        0.55661979309000        1.43396719273468
H           -6.71349469319148        1.91691788853241       -1.58490341481952
H           -5.87037180000920        4.15521205486012       -2.90435398921668
H           -4.59525695615740        6.09726491218313       -3.75149980992948
H           -2.35946078143729        6.59844979522474       -2.88196596885799
H           -1.31620417493929        5.17472968065639       -1.16609221454520
H           -2.36962100279450        2.65566593485308        2.48270732296926
H           -0.22582723300907        2.53523538237902        3.70395463312011
H            3.19378383136785        4.35224692466655        1.70217813576830
H            5.25401717165004        4.20400030744996        3.06758314874743
H            5.36522793900891        2.50198903920144        4.89456974874298
H            3.36078360621402        1.05803052217482        5.27966671403312
H            0.98928514569665        5.29874466369313       -0.97774057128319
H            2.12978535667538        6.80966982828641       -2.55912039320661
H            4.34115421483417        6.25809636172209       -3.45847493809872
H            5.49506065540996        4.17797332842987       -2.78497130462299
H            6.20999518081210        1.79152695351213       -1.62440568063965
H            6.84184390044261       -0.34714685424910       -2.45270627499879
H            8.83111518556893       -1.77870700026962       -2.62298941801096
H            6.67420934932385       -0.92028805236491        1.78367678549520
H            8.12855115351099       -2.31417303838394        3.64491395735493
H            9.77746461200353       -3.73587807657088        4.81840581256539
H           11.54473285308146       -4.88785178606239        3.57313936704896
H           11.74464286459619       -4.64562186234275        1.12826966075722
H            9.17151093862574       -4.26262424880043       -2.53137212657477
H           10.64466438330537       -5.09974633432476       -4.32302224645449
H           13.09176297271814       -4.83891207046857       -4.13521229132902
H           14.05937479063084       -3.71639432652903       -2.16135560925545
H           12.58370692353452       -2.84401317156701       -0.38886947395515
H            4.38331614446896       -0.98720034807411        1.06872036046138
H            2.37410770041683        0.41469032586910        1.24073683988087
H           -0.21725538055103        2.96584389138564       -1.19947878857165
H           -7.41189877457633       -0.25330760233684       -2.28175280428474
H           -9.46309012953849       -1.59810182877036       -2.41012686149095
H          -11.44728536131871       -5.10939318017439       -0.41437680340666
H          -12.97063670530874       -5.95200232357419       -2.16039119472039

          :  Hamiltonian                  GFN2-xTB          :
         :: gradient norm              0.000065370929 Eh/a0 ::
         :: HOMO-LUMO gap              2.358171367014 eV    ::
         :: SCC energy              -193.425110676722 Eh    ::
         :: -> dispersion             -0.179383419657 Eh    ::
         :: -> Gsolv                  -0.077359579045 Eh    ::
         :: repulsion energy           3.589410513663 Eh    ::

    * Orbital Energies and Occupations

         #    Occupation            Energy/Eh            Energy/eV
      -------------------------------------------------------------
         1        2.0000           -0.6794623             -18.4891
       ...           ...                  ...                  ...
       165        2.0000           -0.4073305             -11.0840
       166        2.0000           -0.4048867             -11.0175
       167        2.0000           -0.3984279             -10.8418
       168        2.0000           -0.3970358             -10.8039
       169        2.0000           -0.3808086             -10.3623
       170        2.0000           -0.3794210             -10.3246
       171        2.0000           -0.3774044             -10.2697
       172        2.0000           -0.3762184             -10.2374
       173        2.0000           -0.3742345             -10.1834
       174        2.0000           -0.3683652             -10.0237
       175        2.0000           -0.3661645              -9.9638
       176        2.0000           -0.3554331              -9.6718
       177        2.0000           -0.3539379              -9.6311 (HOMO)
       178                         -0.2672767              -7.2730 (LUMO)
       179                         -0.2496856              -6.7943
       180                         -0.2471956              -6.7265
       181                         -0.2450922              -6.6693
       182                         -0.2445203              -6.6537
       183                         -0.2440680              -6.6414
       184                         -0.2408344              -6.5534
       185                         -0.2360490              -6.4232
       186                         -0.2359634              -6.4209
       187                         -0.2308289              -6.2812
       188                         -0.2306010              -6.2750
       ...                                ...                  ...
       349                          0.7524926              20.4764
      -------------------------------------------------------------
                  HL-Gap            0.0866612 Eh            2.3582 eV

     #   Z          covCN         q      C6AA      α(0)
     1   6 C        2.919    -0.033    28.825     8.804
     2   6 C        2.920    -0.028    28.705     8.786
     3   6 C        2.922    -0.042    29.047     8.838
     4   6 C        2.913     0.064    26.558     8.450
     5   7 N        2.802    -0.047    22.151     6.990
     6   6 C        3.076     0.047    26.855     8.496
     7   6 C        2.909    -0.052    29.294     8.875
     8   6 C        2.924    -0.035    28.883     8.813
     9   6 C        2.919    -0.043    29.072     8.842
    10   6 C        2.912    -0.035    28.873     8.811
    11   6 C        3.068    -0.019    28.408     8.740
    12   6 C        3.064    -0.020    28.430     8.743
    13   6 C        2.918    -0.040    29.003     8.831
    14   6 C        2.976    -0.002    28.076     8.692
    15   6 C        2.976    -0.000    28.035     8.685
    16   6 C        2.929    -0.039    28.967     8.827
    17   6 C        2.908    -0.052    29.298     8.876
    18   6 C        3.074     0.044    26.934     8.509
    19   6 C        3.064    -0.018    28.390     8.737
    20   6 C        2.918    -0.040    28.991     8.830
    21   6 C        3.067    -0.017    28.366     8.733
    22   6 C        2.912    -0.034    28.850     8.808
    23   6 C        2.920    -0.042    29.042     8.837
    24   6 C        2.923    -0.035    28.860     8.810
    25   6 C        2.910    -0.051    29.262     8.870
    26   6 C        3.073     0.046    26.888     8.502
    27   7 N        2.801    -0.041    22.038     6.972
    28   6 C        2.911     0.067    26.494     8.440
    29   6 C        2.919    -0.046    29.149     8.854
    30   6 C        2.925    -0.026    28.656     8.779
    31   6 C        2.980    -0.010    28.264     8.721
    32   6 C        2.962     0.102    25.742     8.322
    33   6 C        2.917    -0.042    29.053     8.839
    34   6 C        2.927    -0.012    28.306     8.725
    35   6 C        2.914    -0.042    29.033     8.836
    36   6 C        2.905     0.061    26.625     8.461
    37   7 N        1.844    -0.248    27.314     7.746
    38   6 C        2.913     0.062    26.601     8.457
    39   7 N        2.802    -0.049    22.188     6.996
    40   6 C        3.076     0.047    26.860     8.497
    41   6 C        2.910    -0.052    29.284     8.874
    42   6 C        2.923    -0.035    28.861     8.810
    43   6 C        2.920    -0.042    29.053     8.839
    44   6 C        2.912    -0.034    28.853     8.808
    45   6 C        3.067    -0.018    28.393     8.737
    46   6 C        3.065    -0.020    28.435     8.744
    47   6 C        2.918    -0.041    29.019     8.834
    48   6 C        2.977    -0.002    28.061     8.689
    49   6 C        2.976    -0.002    28.083     8.693
    50   6 C        2.928    -0.040    28.989     8.830
    51   6 C        2.908    -0.053    29.307     8.877
    52   6 C        3.077     0.046    26.893     8.502
    53   6 C        3.064    -0.020    28.429     8.743
    54   6 C        2.918    -0.040    28.998     8.831
    55   6 C        3.068    -0.019    28.411     8.740
    56   6 C        2.912    -0.035    28.872     8.811
    57   6 C        2.919    -0.043    29.070     8.842
    58   6 C        2.924    -0.035    28.880     8.813
    59   6 C        2.909    -0.052    29.293     8.875
    60   6 C        3.076     0.048    26.853     8.496
    61   7 N        2.802    -0.047    22.146     6.989
    62   6 C        2.913     0.064    26.560     8.451
    63   6 C        2.922    -0.042    29.044     8.838
    64   6 C        2.920    -0.028    28.701     8.785
    65   6 C        2.919    -0.033    28.821     8.804
    66   6 C        2.920    -0.028    28.703     8.786
    67   6 C        2.922    -0.042    29.047     8.838
    68   6 C        2.930    -0.040    28.984     8.829
    69   6 C        2.908    -0.052    29.290     8.874
    70   6 C        3.077     0.046    26.896     8.503
    71   6 C        2.925    -0.057    29.409     8.893
    72   6 C        2.929    -0.040    28.990     8.830
    73   6 C        2.908    -0.053    29.310     8.877
    74   6 C        3.077     0.046    26.895     8.503
    75   6 C        2.922    -0.042    29.047     8.838
    76   6 C        2.920    -0.028    28.705     8.786
    77   1 H        0.926     0.039     2.465     2.455
    78   1 H        0.926     0.040     2.452     2.449
    79   1 H        0.926     0.041     2.435     2.440
    80   1 H        0.926     0.029     2.601     2.522
    81   1 H        0.926     0.029     2.601     2.522
    82   1 H        0.926     0.027     2.630     2.536
    83   1 H        0.926     0.030     2.591     2.517
    84   1 H        0.926     0.032     2.564     2.504
    85   1 H        0.926     0.033     2.539     2.492
    86   1 H        0.926     0.033     2.548     2.496
    87   1 H        0.926     0.033     2.544     2.494
    88   1 H        0.926     0.032     2.560     2.502
    89   1 H        0.926     0.029     2.600     2.521
    90   1 H        0.926     0.031     2.573     2.508
    91   1 H        0.926     0.027     2.623     2.533
    92   1 H        0.926     0.055     2.260     2.351
    93   1 H        0.926     0.058     2.218     2.329
    94   1 H        0.926     0.035     2.513     2.479
    95   1 H        0.926     0.041     2.433     2.439
    96   1 H        0.926     0.042     2.421     2.433
    97   1 H        0.925     0.038     2.479     2.462
    98   1 H        0.926     0.026     2.649     2.545
    99   1 H        0.926     0.031     2.566     2.505
   100   1 H        0.926     0.029     2.595     2.519
   101   1 H        0.926     0.032     2.563     2.504
   102   1 H        0.926     0.034     2.536     2.490
   103   1 H        0.926     0.032     2.561     2.503
   104   1 H        0.926     0.030     2.581     2.512
   105   1 H        0.926     0.029     2.602     2.523
   106   1 H        0.926     0.029     2.602     2.523
   107   1 H        0.926     0.027     2.626     2.534
   108   1 H        0.926     0.030     2.592     2.518
   109   1 H        0.926     0.030     2.591     2.517
   110   1 H        0.926     0.041     2.438     2.442
   111   1 H        0.926     0.040     2.449     2.447
   112   1 H        0.926     0.039     2.460     2.453
   113   1 H        0.926     0.040     2.449     2.447
   114   1 H        0.926     0.041     2.436     2.441
   115   1 H        0.926     0.031     2.571     2.508
   116   1 H        0.926     0.027     2.631     2.537
   117   1 H        0.926     0.053     2.279     2.361
   118   1 H        0.926     0.031     2.567     2.505
   119   1 H        0.926     0.030     2.593     2.518
   120   1 H        0.926     0.041     2.440     2.443
   121   1 H        0.926     0.040     2.454     2.449

molecular dipole:
                 x           y           z       tot (Debye)
 q only:        0.084      -0.297      -0.669
   full:        0.412      -0.127      -0.691       2.069

 projected vibrational frequencies (cm⁻¹)
eigval :       -0.00    -0.00    -0.00     0.00     0.00     0.00
eigval :        3.04     7.63     8.19    10.85    15.82    16.89
eigval :       24.31    26.13    28.21    35.12    38.54    45.92
eigval :       48.59    55.82    58.26    61.15    62.36    63.81
eigval :       72.49    77.71    89.13    92.25   101.82   108.97
eigval :      110.45   115.98   125.34   128.06   132.32   139.53
eigval :      151.87   164.29   170.39   179.06   180.84   192.34
eigval :      194.01   215.27   217.47   230.93   234.24   239.37
eigval :      255.17   259.49   266.21   267.77   281.02   284.33
eigval :      288.93   319.40   326.48   327.83   335.64   356.41
eigval :      365.17   372.21   379.12   379.43   383.50   392.87
eigval :      395.03   396.57   398.02   399.74   403.75   415.18
eigval :      416.89   418.95   427.13   428.97   430.78   434.94
eigval :      440.27   446.02   455.10   460.43   465.48   475.39
eigval :      484.47   488.71   518.10   525.47   526.03   532.29
eigval :      534.19   535.19   535.90   553.84   558.63   569.03
eigval :      573.07   576.14   579.72   586.88   589.23   592.33
eigval :      592.99   596.16   597.06   604.67   612.24   613.01
eigval :      615.34   617.49   624.53   624.80   644.40   652.16
eigval :      661.70   669.41   672.29   675.70   676.73   686.42
eigval :      686.79   692.14   698.02   706.35   707.17   707.39
eigval :      708.99   716.47   717.70   725.31   729.16   760.37
eigval :      762.39   765.24   766.79   769.18   770.15   773.36
eigval :      775.29   775.68   781.27   812.01   813.25   830.04
eigval :      833.19   839.22   846.84   850.20   862.16   867.58
eigval :      868.20   869.52   871.01   874.75   876.73   877.66
eigval :      881.26   881.40   890.07   893.06   894.42   894.62
eigval :      899.59   900.40   900.92   904.40   904.90   905.90
eigval :      908.84   911.87   912.53   913.57   914.22   915.02
eigval :      918.57   918.90   919.56   920.07   921.43   923.57
eigval :      926.45   929.68   930.76   931.36   931.54   932.10
eigval :      933.23   933.69   987.73   997.17   997.23  1007.29
eigval :     1012.31  1014.89  1029.53  1030.16  1046.16  1065.32
eigval :     1069.48  1069.78  1070.61  1071.95  1072.15  1078.40
eigval :     1078.95  1094.10  1111.64  1115.66  1116.34  1120.72
eigval :     1121.58  1124.36  1126.23  1147.55  1150.10  1154.35
eigval :     1154.65  1157.15  1164.50  1174.18  1177.42  1177.65
eigval :     1178.03  1178.48  1178.56  1179.01  1181.83  1182.34
eigval :     1194.84  1197.52  1198.38  1208.69  1210.92  1226.67
eigval :     1228.84  1231.17  1235.29  1242.50  1244.59  1244.91
eigval :     1248.28  1254.81  1255.49  1272.10  1272.21  1273.09
eigval :     1273.60  1277.76  1287.28  1290.94  1293.49  1301.21
eigval :     1302.87  1310.03  1314.45  1315.13  1315.39  1319.56
eigval :     1341.79  1343.43  1344.13  1351.96  1352.89  1357.13
eigval :     1360.28  1360.50  1360.68  1365.89  1372.18  1373.71
eigval :     1404.68  1413.72  1416.35  1418.46  1420.31  1423.08
eigval :     1424.21  1430.88  1431.95  1434.07  1436.14  1437.02
eigval :     1452.50  1457.62  1458.35  1479.00  1479.44  1480.14
eigval :     1480.44  1481.68  1481.90  1487.17  1498.98  1499.43
eigval :     1545.26  1556.60  1562.96  1563.54  1567.74  1568.65
eigval :     1573.83  1581.09  1581.32  1582.05  1582.62  1583.24
eigval :     1584.46  1585.22  1592.84  1593.16  1595.41  1595.83
eigval :     1598.71  1598.90  1610.29  1610.95  1615.33  1615.99
eigval :     3045.82  3070.08  3070.27  3071.92  3072.78  3073.46
eigval :     3074.87  3075.28  3075.44  3075.55  3075.85  3076.15
eigval :     3077.34  3077.49  3077.76  3078.58  3078.98  3079.19
eigval :     3080.91  3082.94  3083.36  3084.17  3084.50  3085.55
eigval :     3086.46  3086.47  3086.86  3087.68  3088.38  3088.97
eigval :     3089.72  3089.89  3090.94  3091.00  3091.57  3091.97
eigval :     3092.33  3094.34  3095.45  3096.34  3096.40  3096.53
eigval :     3097.50  3098.46  3106.56

   temp. (K)  partition function   enthalpy   heat capacity  entropy
                                   cal/mol     cal/K/mol   cal/K/mol   J/K/mol
 298.15  VIB  0.910E+29            34979.306    221.013    220.540
         ROT  0.587E+09              888.752      2.981     43.105
         INT  0.534E+38            35868.058    223.994    263.645
         TR   0.291E+29             1481.254      4.968     46.464
         TOT                       37349.3119   228.9620   310.1092  1297.4968

       T/K    H(0)-H(T)+PV         H(T)/Eh          T*S/Eh         G(T)/Eh
   ------------------------------------------------------------------------
    298.15    0.595199E-01    0.985695E+00    0.147343E+00    0.838352E+00
   ------------------------------------------------------------------------

         :::::::::::::::::::::::::::::::::::::::::::::::::::::
         ::                  THERMODYNAMIC                  ::
         :::::::::::::::::::::::::::::::::::::::::::::::::::::
         :: total free energy        -188.997348067227 Eh   ::
         ::.................................................::
         :: total energy             -189.835700156728 Eh   ::
         :: zero point energy           0.926175054194 Eh   ::
         :: G(RRHO) w/o ZPVE           -0.087822964693 Eh   ::
         :: G(RRHO) contrib.            0.838352089501 Eh   ::
         :::::::::::::::::::::::::::::::::::::::::::::::::::::

           -------------------------------------------------
          | TOTAL ENERGY             -189.835700156728 Eh   |
          | TOTAL ENTHALPY           -188.850005185421 Eh   |
          | TOTAL FREE ENERGY        -188.997348067227 Eh   |
          | GRADIENT NORM               0.000065369573 Eh/α |
          | HOMO-LUMO GAP               2.358171781400 eV   |
           -------------------------------------------------

 * finished run on 2025/09/14 at 09:01:09.932
