   * xtb version 6.7.1 (edcfbbe) compiled by 'albert@albert-system' on 2024-07-22

   ID    Z sym.   atoms
    1    6 C      1-4, 6-11, 13-17, 19-32, 34-49
    2    7 N      5, 12, 18, 33
    3    1 H      50-79

          program call               : xtb data2507/gas/PPZPPI/PPZPPI_gas_S0_crest.xyz --gfn 2 --ohess vtight --parallel 40 --molden --ceasefiles --namespace data2507/gas/PPZPPI/PPZPPI_gas_S0_finalOpt
          :  Hamiltonian                  GFN2-xTB          :
 * total energy  :  -123.4308674 Eh     change       -0.3346585E-08 Eh
 * total energy  :  -123.4308684 Eh     change       -0.9822330E-06 Eh
 * total energy  :  -123.4308703 Eh     change       -0.1888265E-05 Eh
 * total energy  :  -123.4308734 Eh     change       -0.3062927E-05 Eh
 * total energy  :  -123.4308764 Eh     change       -0.3029929E-05 Eh
 * total energy  :  -123.4308787 Eh     change       -0.2263356E-05 Eh
 * total energy  :  -123.4308804 Eh     change       -0.1703858E-05 Eh
 * total energy  :  -123.4308820 Eh     change       -0.1665121E-05 Eh
 * total energy  :  -123.4308842 Eh     change       -0.2144480E-05 Eh
 * total energy  :  -123.4308868 Eh     change       -0.2640006E-05 Eh
 * total energy  :  -123.4309058 Eh     change       -0.2693943E-06 Eh
 * total energy  :  -123.4309060 Eh     change       -0.2098162E-06 Eh
 * total energy  :  -123.4309063 Eh     change       -0.2767823E-06 Eh
 * total energy  :  -123.4309066 Eh     change       -0.2961161E-06 Eh
 * total energy  :  -123.4309069 Eh     change       -0.2365989E-06 Eh
 * total energy  :  -123.4309070 Eh     change       -0.1898429E-06 Eh
 * total energy  :  -123.4309072 Eh     change       -0.1436358E-06 Eh
 * total energy  :  -123.4309073 Eh     change       -0.1025563E-06 Eh
 * total energy  :  -123.4309074 Eh     change       -0.8910696E-07 Eh
   *** GEOMETRY OPTIMIZATION CONVERGED AFTER 35 ITERATIONS ***

 final structure:
================
79
 xtb: 6.7.1 (edcfbbe)
C           10.03378387499441        0.01060638559831        0.18971036088050
C            9.37972912209798       -0.10763860486380       -1.02554382943077
C            7.99925421119948       -0.17849608886577       -1.06844157640810
C            7.26505912804345       -0.13779185399968        0.11172613816843
N            5.85120953809642       -0.21421668174550        0.07193945422779
C            5.09045405527061        0.90939227089117        0.38830495271265
C            5.69395123874673        2.11680203123964        0.70808035454661
C            4.93521547473789        3.22366263085110        1.06433813468803
C            3.56248634010563        3.12511032970271        1.11092770304226
C            2.94299118841103        1.93188782092137        0.76294848006704
C            3.68577365461987        0.82824593694488        0.36997605670839
N            3.06824632092623       -0.36363383528538       -0.01386115119161
C            1.65889081409407       -0.43623513679833       -0.04871899875199
C            0.97217951068258       -1.27830195531764        0.82261867527789
C           -0.40602054808354       -1.31422945818658        0.80770036774108
C           -1.12842557553421       -0.50020496055241       -0.06529674929209
C           -2.58037956049350       -0.54117912851482       -0.00883046025442
N           -3.27052356238041       -1.63509210982515        0.18900232391281
C           -4.57704481724901       -1.26124807813735        0.17064027973220
C           -5.72356922875137       -2.09359738975113        0.29858864060137
C           -5.59951381577807       -3.47768267435073        0.45836620140774
C           -6.71804200156268       -4.26784388559078        0.54635237026559
C           -7.97899672105402       -3.67948150385264        0.47046116425334
C           -8.11234854080797       -2.31906441691239        0.31944527728896
C           -6.99349435612111       -1.47604182679366        0.23570937100861
C           -7.10031810207970       -0.03245443912522        0.11275677368684
C           -8.34326060437427        0.61620991524575        0.12880661124254
C           -8.45360275287966        1.98470686593677        0.05989303338439
C           -7.31050334320123        2.77442071299604       -0.01041729840718
C           -6.07381576891364        2.17876279557254       -0.03725902121691
C           -5.94058001130415        0.78333700329249        0.00083761970944
C           -4.68436418382304        0.11457401017630       -0.02738101156517
N           -3.38967299891132        0.56590362467277       -0.15295110856537
C           -2.91626827648446        1.87338660574336       -0.37541726572764
C           -2.08253107509478        2.46898429606288        0.56409636635038
C           -1.56996364891366        3.73073848647181        0.32333511556203
C           -1.88824138676756        4.40088149263717       -0.84604510085493
C           -2.72255633471401        3.80775574387472       -1.78003058784460
C           -3.23448489005898        2.54366767381121       -1.55285473413488
C           -0.43628355947520        0.30968699792217       -0.96488862236717
C            0.94277063852223        0.33969244148751       -0.95572602193113
C            3.83229758584380       -1.47985379489670       -0.36066968306543
C            3.23516044511389       -2.65158391669844       -0.80059445847819
C            3.99770733148646       -3.77000718407859       -1.11011485628718
C            5.36776738378396       -3.72339890037859       -0.97721546038428
C            5.98223508192140       -2.54538467662215       -0.57408032151372
C            5.23544861683124       -1.41116539712033       -0.29193056394284
C            7.92324320312938       -0.02225353607396        1.33108354838357
C            9.30363737485124        0.05480628721317        1.36594163597914
H           11.11147768890018        0.06818191618936        0.22007201042440
H            9.94646500559106       -0.13991194124053       -1.94429132255907
H            7.48058293159531       -0.26871290714208       -2.01158967119916
H            6.76933894018660        2.19756621684119        0.67978811763821
H            5.43097080336133        4.14999686135565        1.31040114055463
H            2.95896412723199        3.96853936347917        1.40934829403647
H            1.86684296453047        1.86522035703351        0.80061706392467
H            1.52888027773880       -1.89341984064924        1.51398436563447
H           -0.94859625456325       -1.95888788467847        1.48122299043061
H           -4.60460047779725       -3.89275261371464        0.50187557436311
H           -6.62755174342359       -5.33715452463881        0.66823024178579
H           -8.86273728480033       -4.29832170165426        0.53106624366917
H           -9.10856202248217       -1.90982307427601        0.26261261160497
H           -9.24904201527700        0.03698844623773        0.20712019616905
H           -9.42911987811693        2.44811798578535        0.07482252408212
H           -7.39377373135707        3.85085581655977       -0.03902163742219
H           -5.19008128990079        2.79608048882391       -0.07119293660216
H           -1.83981105145817        1.93723933091292        1.47222746655807
H           -0.92081371852009        4.19140786649845        1.05251664734195
H           -1.48596250321002        5.38525513337674       -1.03098991062521
H           -2.97102183292000        4.32791274693874       -2.69293571315860
H           -3.88000187503123        2.06871191553945       -2.27746591963548
H           -0.97190239061515        0.90170128048284       -1.69113672312952
H            1.47761849913140        0.96864995648614       -1.65198886100183
H            2.16269117376138       -2.69639105783193       -0.90668570454199
H            3.50620985402487       -4.66970459201090       -1.44645340507987
H            5.97290062780635       -4.59061213868939       -1.19194703899962
H            7.05635397386607       -2.51244895174985       -0.47894660186788
H            7.34577618298320        0.00887534916500        2.24333949670379
H            9.81125263256349        0.14445070552122        2.31494827238039

          :  Hamiltonian                  GFN2-xTB          :
         :: gradient norm              0.000047799171 Eh/a0 ::
         :: HOMO-LUMO gap              1.650083332635 eV    ::
         :: SCC energy              -125.733753210349 Eh    ::
         :: -> dispersion             -0.117133987941 Eh    ::
         :: repulsion energy           2.302845828417 Eh    ::

    * Orbital Energies and Occupations

         #    Occupation            Energy/Eh            Energy/eV
      -------------------------------------------------------------
         1        2.0000           -0.6861715             -18.6717
       ...           ...                  ...                  ...
       103        2.0000           -0.4131058             -11.2412
       104        2.0000           -0.4111682             -11.1885
       105        2.0000           -0.4082044             -11.1078
       106        2.0000           -0.4056840             -11.0392
       107        2.0000           -0.4042091             -10.9991
       108        2.0000           -0.4030857             -10.9685
       109        2.0000           -0.3996820             -10.8759
       110        2.0000           -0.3951743             -10.7532
       111        2.0000           -0.3788832             -10.3099
       112        2.0000           -0.3752690             -10.2116
       113        2.0000           -0.3719329             -10.1208
       114        2.0000           -0.3620349              -9.8515
       115        2.0000           -0.3211970              -8.7402 (HOMO)
       116                         -0.2605577              -7.0901 (LUMO)
       117                         -0.2484549              -6.7608
       118                         -0.2429024              -6.6097
       119                         -0.2405744              -6.5464
       120                         -0.2391352              -6.5072
       121                         -0.2341961              -6.3728
       122                         -0.2324166              -6.3244
       123                         -0.2315927              -6.3020
       124                         -0.2258791              -6.1465
       125                         -0.2173946              -5.9156
       126                         -0.2090223              -5.6878
       ...                                ...                  ...
       226                          0.7304535              19.8767
      -------------------------------------------------------------
                  HL-Gap            0.0606394 Eh            1.6501 eV

     #   Z          covCN         q      C6AA      α(0)
     1   6 C        2.920    -0.032    28.795     8.800
     2   6 C        2.920    -0.028    28.709     8.786
     3   6 C        2.922    -0.039    28.962     8.825
     4   6 C        2.924     0.069    26.462     8.436
     5   7 N        2.752    -0.079    22.769     7.087
     6   6 C        2.926     0.049    26.894     8.505
     7   6 C        2.924    -0.062    29.543     8.914
     8   6 C        2.918    -0.042    29.042     8.837
     9   6 C        2.918    -0.042    29.055     8.839
    10   6 C        2.924    -0.062    29.540     8.913
    11   6 C        2.926     0.048    26.926     8.510
    12   7 N        2.752    -0.076    22.718     7.079
    13   6 C        2.924     0.068    26.481     8.439
    14   6 C        2.920    -0.039    28.976     8.827
    15   6 C        2.927    -0.028    28.699     8.785
    16   6 C        2.974    -0.000    28.026     8.684
    17   6 C        3.196     0.127    24.731     8.107
    18   7 N        1.894    -0.290    28.372     7.897
    19   6 C        3.210     0.057    26.116     8.319
    20   6 C        2.986     0.003    27.953     8.673
    21   6 C        2.922    -0.031    28.777     8.797
    22   6 C        2.917    -0.030    28.754     8.793
    23   6 C        2.917    -0.033    28.819     8.803
    24   6 C        2.922    -0.035    28.867     8.811
    25   6 C        2.979    -0.001    28.058     8.689
    26   6 C        2.980     0.002    27.976     8.676
    27   6 C        2.922    -0.034    28.840     8.807
    28   6 C        2.916    -0.033    28.831     8.805
    29   6 C        2.917    -0.032    28.795     8.799
    30   6 C        2.919    -0.040    29.000     8.831
    31   6 C        2.978    -0.002    28.065     8.690
    32   6 C        3.073     0.020    27.492     8.597
    33   7 N        2.841    -0.045    22.116     6.985
    34   6 C        2.913     0.068    26.470     8.437
    35   6 C        2.922    -0.038    28.947     8.823
    36   6 C        2.920    -0.025    28.636     8.775
    37   6 C        2.920    -0.030    28.742     8.792
    38   6 C        2.920    -0.027    28.678     8.782
    39   6 C        2.921    -0.037    28.919     8.819
    40   6 C        2.922    -0.034    28.850     8.808
    41   6 C        2.921    -0.040    29.003     8.831
    42   6 C        2.925     0.048    26.928     8.510
    43   6 C        2.924    -0.061    29.520     8.910
    44   6 C        2.918    -0.042    29.032     8.836
    45   6 C        2.918    -0.041    29.030     8.835
    46   6 C        2.924    -0.062    29.532     8.912
    47   6 C        2.926     0.049    26.907     8.507
    48   6 C        2.922    -0.039    28.962     8.825
    49   6 C        2.920    -0.028    28.709     8.786
    50   1 H        0.926     0.036     2.509     2.477
    51   1 H        0.926     0.036     2.496     2.471
    52   1 H        0.926     0.040     2.449     2.447
    53   1 H        0.926     0.027     2.634     2.538
    54   1 H        0.926     0.027     2.636     2.539
    55   1 H        0.926     0.025     2.664     2.553
    56   1 H        0.926     0.025     2.662     2.552
    57   1 H        0.926     0.045     2.379     2.412
    58   1 H        0.926     0.056     2.249     2.345
    59   1 H        0.926     0.050     2.314     2.379
    60   1 H        0.926     0.030     2.587     2.515
    61   1 H        0.926     0.028     2.619     2.531
    62   1 H        0.926     0.030     2.582     2.513
    63   1 H        0.926     0.034     2.528     2.486
    64   1 H        0.926     0.028     2.610     2.526
    65   1 H        0.926     0.027     2.635     2.538
    66   1 H        0.926     0.026     2.649     2.545
    67   1 H        0.926     0.039     2.464     2.455
    68   1 H        0.926     0.041     2.438     2.442
    69   1 H        0.926     0.040     2.449     2.447
    70   1 H        0.926     0.040     2.443     2.444
    71   1 H        0.926     0.043     2.410     2.427
    72   1 H        0.926     0.032     2.557     2.500
    73   1 H        0.926     0.041     2.436     2.441
    74   1 H        0.926     0.030     2.591     2.517
    75   1 H        0.926     0.028     2.609     2.526
    76   1 H        0.926     0.027     2.626     2.534
    77   1 H        0.926     0.027     2.635     2.538
    78   1 H        0.926     0.040     2.447     2.446
    79   1 H        0.926     0.037     2.495     2.470

molecular dipole:
                 x           y           z       tot (Debye)
 q only:        0.676       0.824      -0.114
   full:        0.561       1.263      -0.189       3.546

 projected vibrational frequencies (cm⁻¹)
eigval :       -0.00     0.00     0.00     0.00     0.00     0.00
eigval :        7.48     8.61    12.52    21.71    29.35    37.74
eigval :       41.15    45.04    50.08    58.10    62.12    73.37
eigval :       77.41    84.35    93.82   106.50   118.13   127.54
eigval :      163.97   169.15   182.58   206.74   219.82   223.64
eigval :      235.34   246.89   248.05   252.94   263.15   268.20
eigval :      300.31   309.54   345.88   371.40   375.46   377.21
eigval :      381.39   387.78   395.36   396.77   404.05   407.94
eigval :      416.42   428.48   430.87   437.45   446.99   453.63
eigval :      474.12   481.00   493.66   507.82   513.03   518.21
eigval :      524.08   529.42   535.32   584.13   586.43   587.74
eigval :      590.31   594.64   595.66   606.57   632.90   639.19
eigval :      645.69   653.05   656.83   658.89   668.45   672.34
eigval :      676.15   681.46   683.78   700.44   705.13   722.34
eigval :      735.50   744.72   761.50   763.69   767.27   770.66
eigval :      772.26   782.78   794.74   820.41   854.50   856.84
eigval :      862.94   873.94   874.95   877.09   878.65   887.71
eigval :      887.88   890.19   901.98   904.12   905.88   908.09
eigval :      908.88   910.58   911.47   914.49   922.21   924.07
eigval :      927.45   929.20   930.66   930.85   932.32   932.81
eigval :      939.30   945.07   956.93   993.35   998.26  1016.97
eigval :     1030.41  1068.99  1079.20  1079.50  1085.88  1108.36
eigval :     1111.89  1113.52  1115.03  1115.73  1123.37  1128.05
eigval :     1131.64  1135.19  1152.66  1173.95  1180.42  1180.66
eigval :     1182.03  1183.03  1183.76  1184.36  1185.96  1186.41
eigval :     1189.71  1196.45  1209.88  1221.41  1238.55  1253.43
eigval :     1257.83  1261.40  1264.18  1269.87  1275.58  1278.21
eigval :     1284.26  1295.03  1306.63  1311.89  1313.80  1315.15
eigval :     1317.60  1323.04  1333.65  1339.09  1348.15  1365.65
eigval :     1367.90  1374.42  1405.69  1408.05  1419.55  1424.62
eigval :     1431.27  1433.93  1435.14  1437.92  1438.86  1466.01
eigval :     1471.45  1481.31  1499.59  1513.75  1514.62  1517.74
eigval :     1545.14  1556.25  1557.29  1564.44  1570.42  1578.19
eigval :     1581.43  1582.91  1585.56  1592.71  1594.29  1594.78
eigval :     1595.18  1598.20  1605.05  3072.01  3075.44  3078.07
eigval :     3079.98  3082.09  3083.20  3083.59  3084.07  3085.52
eigval :     3085.73  3085.92  3088.16  3088.52  3090.08  3091.83
eigval :     3092.05  3094.07  3095.05  3096.83  3098.05  3098.94
eigval :     3101.75  3102.36  3103.48  3105.22  3106.15  3107.05
eigval :     3108.04  3110.54  3112.10

   temp. (K)  partition function   enthalpy   heat capacity  entropy
                                   cal/mol     cal/K/mol   cal/K/mol   J/K/mol
 298.15  VIB  0.585E+18            22082.038    140.836    138.110
         ROT  0.900E+08              888.752      2.981     39.378
         INT  0.527E+26            22970.790    143.817    177.488
         TR   0.152E+29             1481.254      4.968     45.168
         TOT                       24452.0441   148.7854   222.6565   931.5946

       T/K    H(0)-H(T)+PV         H(T)/Eh          T*S/Eh         G(T)/Eh
   ------------------------------------------------------------------------
    298.15    0.389668E-01    0.645972E+00    0.105791E+00    0.540180E+00
   ------------------------------------------------------------------------

         :::::::::::::::::::::::::::::::::::::::::::::::::::::
         ::                  THERMODYNAMIC                  ::
         :::::::::::::::::::::::::::::::::::::::::::::::::::::
         :: total free energy        -122.890726964167 Eh   ::
         ::.................................................::
         :: total energy             -123.430907381934 Eh   ::
         :: zero point energy           0.607004875785 Eh   ::
         :: G(RRHO) w/o ZPVE           -0.066824458019 Eh   ::
         :: G(RRHO) contrib.            0.540180417767 Eh   ::
         :::::::::::::::::::::::::::::::::::::::::::::::::::::

           -------------------------------------------------
          | TOTAL ENERGY             -123.430907381934 Eh   |
          | TOTAL ENTHALPY           -122.784935693500 Eh   |
          | TOTAL FREE ENERGY        -122.890726964167 Eh   |
          | GRADIENT NORM               0.000047802206 Eh/α |
          | HOMO-LUMO GAP               1.650080802140 eV   |
           -------------------------------------------------

 * finished run on 2025/09/04 at 10:01:34.810
