   * xtb version 6.7.1 (edcfbbe) compiled by 'albert@albert-system' on 2024-07-22

   ID    Z sym.   atoms
    1    6 C      1-4, 6-11, 13-17, 19-32, 34-49
    2    7 N      5, 12, 18, 33
    3    1 H      50-79

          program call               : xtb data2507/gas/PPZPPI/PPZPPI.xyz --gfn 2 --ohess vtight --parallel 40 --molden --ceasefiles --namespace data2507/gas/PPZPPI/PPZPPI_gas_S0_preOpt
          :  Hamiltonian                  GFN2-xTB          :
 * total energy  :  -123.4022744 Eh     change       -0.3715954E-08 Eh
 * total energy  :  -123.4193663 Eh     change       -0.1709190E-01 Eh
 * total energy  :  -123.4249487 Eh     change       -0.5582400E-02 Eh
 * total energy  :  -123.4262293 Eh     change       -0.1280681E-02 Eh
 * total energy  :  -123.4271082 Eh     change       -0.8788246E-03 Eh
 * total energy  :  -123.4275220 Eh     change       -0.4138065E-03 Eh
 * total energy  :  -123.4278712 Eh     change       -0.3492276E-03 Eh
 * total energy  :  -123.4282013 Eh     change       -0.3301405E-03 Eh
 * total energy  :  -123.4284955 Eh     change       -0.2941820E-03 Eh
 * total energy  :  -123.4288335 Eh     change       -0.3380025E-03 Eh
 * total energy  :  -123.4308127 Eh     change       -0.3148788E-06 Eh
 * total energy  :  -123.4308130 Eh     change       -0.2951530E-06 Eh
 * total energy  :  -123.4308132 Eh     change       -0.2010554E-06 Eh
 * total energy  :  -123.4308134 Eh     change       -0.1599582E-06 Eh
 * total energy  :  -123.4308135 Eh     change       -0.1814503E-06 Eh
 * total energy  :  -123.4308137 Eh     change       -0.1882306E-06 Eh
 * total energy  :  -123.4308139 Eh     change       -0.1570388E-06 Eh
 * total energy  :  -123.4308140 Eh     change       -0.1361379E-06 Eh
 * total energy  :  -123.4308141 Eh     change       -0.9949770E-07 Eh
   *** GEOMETRY OPTIMIZATION CONVERGED AFTER 85 ITERATIONS ***

 final structure:
================
79
 xtb: 6.7.1 (edcfbbe)
C            9.91199878222372        0.06003505001190        0.16072505480860
C            9.20463393594952        0.69491941876903       -0.84680340433693
C            7.82526210063925        0.60474593095944       -0.89115145698763
C            7.14562710113628       -0.11954650881406        0.08169851188470
N            5.73229246859434       -0.21235283770444        0.04147696144343
C            4.95865094942619        0.90532606075661        0.34719121056008
C            5.54936704990685        2.09855829921197        0.73641232081676
C            4.77820267925191        3.20360320750189        1.07088531197954
C            3.40467466694929        3.11248361478491        1.04097079384857
C            2.79871393183471        1.91839090720256        0.67244916758925
C            3.55496472554390        0.81391156596079        0.30872802669016
N            2.95172064813656       -0.39607461490113       -0.04122204657010
C            1.54351461526223       -0.49267584476756       -0.05767244738228
C            0.88164312437622       -1.31668313773545        0.84940182908918
C           -0.49573162121294       -1.37732867062240        0.85211030956457
C           -1.24211003968686       -0.60524773706483       -0.03851228801439
C           -2.69255111840521       -0.66903118172837        0.03594713450089
N           -3.36234854816052       -1.76840663611858        0.26949703878290
C           -4.67500151646595       -1.41613931082323        0.25631552032157
C           -5.80622301401773       -2.26318826624095        0.41905905698694
C           -5.65770970344228       -3.64048033252914        0.61307709639510
C           -6.76206127982421       -4.44586081374900        0.73536904942966
C           -8.03326354512035       -3.87988929944741        0.66008981306424
C           -8.19058115562126       -2.52622512974192        0.47527182710591
C           -7.08671398003883       -1.66792086845474        0.35550026751869
C           -7.21850915057165       -0.22997842324063        0.19610928126348
C           -8.47167567485227        0.39879863701578        0.20902643290289
C           -8.60512395715369        1.76308997260438        0.10612726659999
C           -7.47590816836985        2.56902879979886        0.00304208475151
C           -6.23001243032379        1.99283198228672       -0.02240324644085
C           -6.07357990396979        0.60117235165833        0.04994221632879
C           -4.80696653881614       -0.04778850129567        0.02438164746460
N           -3.52123041093164        0.42085075126882       -0.12738548535344
C           -3.07046218544113        1.72920600853382       -0.38823568681633
C           -2.23368271134072        2.35983713466819        0.52536941351265
C           -1.74312961587467        3.62265596997906        0.24723118062631
C           -2.08629810104594        4.25912762646295       -0.93385818951471
C           -2.92338477271578        3.63098619254432       -1.84212054522348
C           -3.41343960154414        2.36550939501253       -1.57749912923605
C           -0.57484337944011        0.18630158150407       -0.97242503546087
C            0.80360167127190        0.23981081873127       -0.98144666391000
C            3.72902634496339       -1.51132503388798       -0.36212308650519
C            3.14451204333137       -2.69779643764687       -0.77890708647925
C            3.92127101412458       -3.79869649113936       -1.11485114723752
C            5.29450730318360       -3.71150695216663       -1.05830925847543
C            5.89491425659228       -2.52052052468694       -0.67252410794346
C            5.13158727853991       -1.41875364926037       -0.31589670019226
C            7.85669490116524       -0.75375222586121        1.09408758446699
C            9.23645171789669       -0.66474617429416        1.12862678787481
H           10.98896557801526        0.12990164504759        0.19143241715465
H            9.72933953232501        1.25836779430146       -1.60413313083809
H            7.26519149578449        1.09418715676267       -1.67439804398831
H            6.62467665654919        2.16680034227693        0.78924754462530
H            5.26458466413405        4.12119162040244        1.36395303855335
H            2.79006705724951        3.95724358999158        1.31177747761560
H            1.72208271655072        1.85019444312183        0.67858057332735
H            1.45707288534310       -1.89854303740366        1.55411335886130
H           -1.01904261016312       -2.00867036107135        1.55295113759741
H           -4.65570859184187       -4.03830310003250        0.65503909847460
H           -6.65268771037255       -5.51005228502997        0.88369935004347
H           -8.90600401657351       -4.51093565263165        0.74805204627631
H           -9.19395285628342       -2.13456912238582        0.42054140514590
H           -9.36699945520960       -0.19271245582110        0.31187938199722
H           -9.58788714318137        2.21097170218753        0.11974311686771
H           -7.57710617196671        3.64289527704945       -0.05203525812240
H           -5.35687310695934        2.62315529505447       -0.08198535068164
H           -1.97147415826436        1.85432420281957        1.44301398594603
H           -1.09169313268205        4.11046600325352        0.95646319998255
H           -1.70119701930111        5.24445144336028       -1.14803187053131
H           -3.19112440296663        4.12481551763612       -2.76415528829857
H           -4.06091164662706        1.86350941361198       -2.28185419237387
H           -1.12949437541499        0.74502238746990       -1.71074012529474
H            1.31918872786601        0.85320475029268       -1.70556990718458
H            2.07060286753792       -2.76634795588345       -0.85245955881544
H            3.43879666719624       -4.71155414979044       -1.42803441514716
H            5.91245239801574       -4.55539566665301       -1.32359689458903
H            6.97126527804622       -2.44907076512915       -0.65815398922170
H            7.32093827527523       -1.31495140010313        1.84551314032641
H            9.78563641201000       -1.15886130597063        1.91637156620951

          :  Hamiltonian                  GFN2-xTB          :
         :: gradient norm              0.000032449185 Eh/a0 ::
         :: HOMO-LUMO gap              1.649667123037 eV    ::
         :: SCC energy              -125.733734304709 Eh    ::
         :: -> dispersion             -0.117100436037 Eh    ::
         :: repulsion energy           2.302920176302 Eh    ::

    * Orbital Energies and Occupations

         #    Occupation            Energy/Eh            Energy/eV
      -------------------------------------------------------------
         1        2.0000           -0.6861702             -18.6716
       ...           ...                  ...                  ...
       103        2.0000           -0.4130921             -11.2408
       104        2.0000           -0.4104053             -11.1677
       105        2.0000           -0.4083786             -11.1125
       106        2.0000           -0.4056551             -11.0384
       107        2.0000           -0.4041671             -10.9979
       108        2.0000           -0.4030624             -10.9679
       109        2.0000           -0.4000637             -10.8863
       110        2.0000           -0.3951703             -10.7531
       111        2.0000           -0.3788681             -10.3095
       112        2.0000           -0.3752650             -10.2115
       113        2.0000           -0.3718767             -10.1193
       114        2.0000           -0.3620061              -9.8507
       115        2.0000           -0.3210795              -8.7370 (HOMO)
       116                         -0.2604553              -7.0873 (LUMO)
       117                         -0.2484417              -6.7604
       118                         -0.2428905              -6.6094
       119                         -0.2405425              -6.5455
       120                         -0.2390975              -6.5062
       121                         -0.2343888              -6.3780
       122                         -0.2326796              -6.3315
       123                         -0.2315695              -6.3013
       124                         -0.2257727              -6.1436
       125                         -0.2173309              -5.9139
       126                         -0.2090513              -5.6886
       ...                                ...                  ...
       226                          0.7304763              19.8773
      -------------------------------------------------------------
                  HL-Gap            0.0606242 Eh            1.6497 eV

     #   Z          covCN         q      C6AA      α(0)
     1   6 C        2.920    -0.032    28.790     8.799
     2   6 C        2.920    -0.028    28.708     8.786
     3   6 C        2.922    -0.039    28.958     8.825
     4   6 C        2.924     0.069    26.453     8.435
     5   7 N        2.752    -0.079    22.783     7.089
     6   6 C        2.926     0.049    26.892     8.504
     7   6 C        2.924    -0.062    29.546     8.914
     8   6 C        2.918    -0.042    29.040     8.837
     9   6 C        2.918    -0.042    29.055     8.839
    10   6 C        2.923    -0.062    29.545     8.914
    11   6 C        2.925     0.048    26.926     8.510
    12   7 N        2.752    -0.077    22.727     7.080
    13   6 C        2.924     0.068    26.477     8.438
    14   6 C        2.920    -0.039    28.975     8.827
    15   6 C        2.927    -0.028    28.699     8.785
    16   6 C        2.974    -0.000    28.025     8.684
    17   6 C        3.196     0.127    24.728     8.107
    18   7 N        1.894    -0.290    28.371     7.897
    19   6 C        3.210     0.057    26.114     8.318
    20   6 C        2.986     0.003    27.953     8.673
    21   6 C        2.922    -0.031    28.777     8.797
    22   6 C        2.917    -0.030    28.754     8.793
    23   6 C        2.917    -0.033    28.819     8.803
    24   6 C        2.922    -0.035    28.867     8.811
    25   6 C        2.979    -0.001    28.058     8.689
    26   6 C        2.980     0.002    27.977     8.676
    27   6 C        2.922    -0.034    28.840     8.807
    28   6 C        2.916    -0.033    28.831     8.805
    29   6 C        2.917    -0.032    28.795     8.799
    30   6 C        2.919    -0.040    29.000     8.831
    31   6 C        2.978    -0.002    28.065     8.690
    32   6 C        3.073     0.020    27.492     8.597
    33   7 N        2.841    -0.045    22.116     6.985
    34   6 C        2.913     0.068    26.471     8.437
    35   6 C        2.922    -0.038    28.947     8.823
    36   6 C        2.920    -0.025    28.637     8.775
    37   6 C        2.920    -0.030    28.743     8.792
    38   6 C        2.920    -0.027    28.678     8.782
    39   6 C        2.921    -0.037    28.919     8.819
    40   6 C        2.922    -0.034    28.848     8.808
    41   6 C        2.921    -0.040    29.004     8.832
    42   6 C        2.925     0.048    26.929     8.510
    43   6 C        2.924    -0.061    29.520     8.910
    44   6 C        2.918    -0.042    29.032     8.836
    45   6 C        2.918    -0.041    29.028     8.835
    46   6 C        2.924    -0.062    29.536     8.912
    47   6 C        2.926     0.049    26.904     8.506
    48   6 C        2.922    -0.038    28.956     8.824
    49   6 C        2.920    -0.028    28.706     8.786
    50   1 H        0.926     0.036     2.506     2.476
    51   1 H        0.926     0.037     2.495     2.470
    52   1 H        0.926     0.040     2.451     2.448
    53   1 H        0.926     0.027     2.636     2.539
    54   1 H        0.926     0.026     2.637     2.539
    55   1 H        0.926     0.025     2.665     2.553
    56   1 H        0.926     0.025     2.661     2.551
    57   1 H        0.926     0.045     2.381     2.413
    58   1 H        0.926     0.056     2.251     2.346
    59   1 H        0.926     0.050     2.314     2.379
    60   1 H        0.926     0.030     2.587     2.515
    61   1 H        0.926     0.028     2.619     2.531
    62   1 H        0.926     0.030     2.582     2.513
    63   1 H        0.926     0.034     2.528     2.486
    64   1 H        0.926     0.028     2.610     2.526
    65   1 H        0.926     0.027     2.635     2.538
    66   1 H        0.926     0.026     2.649     2.545
    67   1 H        0.926     0.039     2.463     2.454
    68   1 H        0.926     0.041     2.438     2.442
    69   1 H        0.926     0.040     2.450     2.447
    70   1 H        0.926     0.040     2.443     2.444
    71   1 H        0.926     0.043     2.409     2.427
    72   1 H        0.926     0.032     2.557     2.501
    73   1 H        0.926     0.041     2.435     2.440
    74   1 H        0.926     0.030     2.592     2.517
    75   1 H        0.926     0.028     2.609     2.526
    76   1 H        0.926     0.027     2.626     2.534
    77   1 H        0.926     0.026     2.638     2.540
    78   1 H        0.926     0.040     2.443     2.444
    79   1 H        0.926     0.037     2.492     2.468

molecular dipole:
                 x           y           z       tot (Debye)
 q only:        0.675       0.828      -0.134
   full:        0.553       1.263      -0.218       3.548

 projected vibrational frequencies (cm⁻¹)
eigval :       -0.00    -0.00    -0.00     0.00     0.00     0.00
eigval :        7.46     9.00    12.29    21.85    28.78    36.23
eigval :       41.14    42.72    50.06    59.09    63.46    72.29
eigval :       76.07    84.36    93.79   105.17   114.11   125.70
eigval :      163.51   166.69   182.72   210.19   219.43   223.24
eigval :      237.28   246.45   247.38   251.70   262.80   268.44
eigval :      300.18   309.20   345.61   374.64   375.24   377.27
eigval :      380.10   383.49   396.03   397.99   400.58   413.41
eigval :      417.04   427.87   432.61   437.41   446.82   449.43
eigval :      474.12   479.83   493.79   508.01   513.04   517.77
eigval :      523.96   529.55   535.32   584.12   586.57   587.76
eigval :      590.35   594.51   595.52   606.49   632.87   639.04
eigval :      645.74   653.08   656.94   658.88   668.46   672.36
eigval :      675.95   681.31   683.81   700.44   705.23   722.41
eigval :      735.49   744.71   761.72   763.78   767.29   770.21
eigval :      771.88   782.76   794.72   820.26   854.32   856.57
eigval :      862.92   873.88   874.93   877.18   878.26   886.97
eigval :      888.12   889.73   902.07   903.97   905.84   908.10
eigval :      908.78   910.49   911.32   914.49   922.19   924.07
eigval :      927.44   929.31   930.51   930.71   932.32   932.85
eigval :      939.30   944.93   956.93   993.34   998.28  1016.98
eigval :     1030.43  1068.97  1079.04  1079.51  1085.88  1108.34
eigval :     1112.39  1113.84  1115.11  1115.79  1123.53  1128.14
eigval :     1131.60  1135.22  1152.67  1173.96  1180.42  1180.69
eigval :     1182.01  1183.04  1184.06  1184.63  1185.98  1186.42
eigval :     1189.73  1196.37  1209.82  1221.31  1238.85  1253.42
eigval :     1257.82  1261.20  1264.46  1270.22  1275.60  1277.96
eigval :     1284.26  1294.81  1306.45  1311.61  1313.77  1314.96
eigval :     1317.96  1323.05  1333.61  1339.10  1348.14  1365.81
eigval :     1367.95  1374.42  1405.66  1408.06  1419.54  1424.58
eigval :     1431.27  1433.93  1434.91  1437.94  1438.83  1466.19
eigval :     1471.66  1481.34  1499.93  1513.86  1514.64  1517.83
eigval :     1545.37  1556.38  1557.38  1564.49  1570.54  1578.64
eigval :     1581.76  1582.93  1585.69  1592.87  1594.30  1594.94
eigval :     1595.23  1598.79  1605.07  3072.01  3075.44  3078.08
eigval :     3080.02  3082.06  3083.12  3083.59  3084.03  3085.31
eigval :     3085.62  3085.92  3088.14  3088.33  3090.06  3091.93
eigval :     3092.16  3094.14  3095.03  3096.85  3098.08  3098.47
eigval :     3102.22  3102.46  3103.84  3105.23  3106.45  3106.88
eigval :     3108.30  3110.54  3112.01

   temp. (K)  partition function   enthalpy   heat capacity  entropy
                                   cal/mol     cal/K/mol   cal/K/mol   J/K/mol
 298.15  VIB  0.661E+18            22098.953    140.777    138.249
         ROT  0.900E+08              888.752      2.981     39.378
         INT  0.595E+26            22987.706    143.758    177.627
         TR   0.152E+29             1481.254      4.968     45.168
         TOT                       24468.9595   148.7260   222.7952   932.1753

       T/K    H(0)-H(T)+PV         H(T)/Eh          T*S/Eh         G(T)/Eh
   ------------------------------------------------------------------------
    298.15    0.389938E-01    0.645967E+00    0.105857E+00    0.540110E+00
   ------------------------------------------------------------------------

         :::::::::::::::::::::::::::::::::::::::::::::::::::::
         ::                  THERMODYNAMIC                  ::
         :::::::::::::::::::::::::::::::::::::::::::::::::::::
         :: total free energy        -122.890703917775 Eh   ::
         ::.................................................::
         :: total energy             -123.430814128407 Eh   ::
         :: zero point energy           0.606973649364 Eh   ::
         :: G(RRHO) w/o ZPVE           -0.066863438732 Eh   ::
         :: G(RRHO) contrib.            0.540110210632 Eh   ::
         :::::::::::::::::::::::::::::::::::::::::::::::::::::

           -------------------------------------------------
          | TOTAL ENERGY             -123.430814128407 Eh   |
          | TOTAL ENTHALPY           -122.784846710093 Eh   |
          | TOTAL FREE ENERGY        -122.890703917775 Eh   |
          | GRADIENT NORM               0.000032459521 Eh/α |
          | HOMO-LUMO GAP               1.649667909706 eV   |
           -------------------------------------------------

 * finished run on 2025/09/04 at 09:56:57.732
