   * xtb version 6.7.1 (edcfbbe) compiled by 'albert@albert-system' on 2024-07-22

   ID    Z sym.   atoms
    1    6 C      1-4, 6-11, 13-17, 19-32, 34-49
    2    7 N      5, 12, 18, 33
    3    1 H      50-79

          program call               : xtb data2507/gas/PPZPPI/PPZPPI_gas_T1_crest.xyz --gfn 2 --spinpol --tblite --uhf 2 --ohess vtight --parallel 40 --molden --ceasefiles --namespace data2507/gas/PPZPPI/PPZPPI_gas_T1_finalOpt
 * total energy  :  -123.3530241 Eh     change       -0.3608872E-07 Eh
 * total energy  :  -123.3530454 Eh     change       -0.2137228E-04 Eh
 * total energy  :  -123.3530572 Eh     change       -0.1179097E-04 Eh
 * total energy  :  -123.3530586 Eh     change       -0.1357758E-05 Eh
 * total energy  :  -123.3530598 Eh     change       -0.1248092E-05 Eh
 * total energy  :  -123.3530605 Eh     change       -0.7114154E-06 Eh
 * total energy  :  -123.3530620 Eh     change       -0.1496856E-05 Eh
 * total energy  :  -123.3530636 Eh     change       -0.1552233E-05 Eh
 * total energy  :  -123.3530649 Eh     change       -0.1287298E-05 Eh
 * total energy  :  -123.3530660 Eh     change       -0.1121802E-05 Eh
 * total energy  :  -123.3530722 Eh     change       -0.7639347E-06 Eh
 * total energy  :  -123.3530729 Eh     change       -0.7098048E-06 Eh
 * total energy  :  -123.3530731 Eh     change       -0.2609699E-06 Eh
 * total energy  :  -123.3530738 Eh     change       -0.6335705E-06 Eh
 * total energy  :  -123.3530740 Eh     change       -0.1942131E-06 Eh
 * total energy  :  -123.3530743 Eh     change       -0.3769364E-06 Eh
 * total energy  :  -123.3530738 Eh     change        0.5105515E-06 Eh
 * total energy  :  -123.3530745 Eh     change       -0.6498185E-06 Eh
 * total energy  :  -123.3530746 Eh     change       -0.8536577E-07 Eh
   *** GEOMETRY OPTIMIZATION CONVERGED AFTER 26 ITERATIONS ***

 final structure:
================
79
 xtb: 6.7.1 (edcfbbe)
C           10.09230437435140       -0.20545631849050        0.13268820947984
C            9.42163483771910        0.04667231243493       -1.05338835744207
C            8.03884268509512        0.04174915206104       -1.08477601469827
C            7.32432519468280       -0.22044878419833        0.07807543363380
N            5.90289497722346       -0.22750687991037        0.05078456804674
C            5.20153313703816        0.83851587671897        0.59018170088114
C            5.86866239884067        1.93372608211858        1.12912371889147
C            5.16644892897007        2.96896408791496        1.72170888905879
C            3.78644963703188        2.90748650116285        1.80182237821827
C            3.10641581295628        1.83854289185885        1.24831564428370
C            3.79107539691050        0.81096228080306        0.60067822080064
N            3.11345113610694       -0.24484688565976        0.00733236487452
C            1.70638990671558       -0.26021581455664       -0.00119712282248
C            0.99364709186383       -1.32375283479646        0.59433278045456
C           -0.36600518777965       -1.31658741164505        0.61278588790753
C           -1.12029842345197       -0.24579574148118        0.03703755531997
C           -2.51513252958654       -0.32082073884395        0.12721217759836
N           -3.14584937859171       -1.46807573268812        0.45125226451923
C           -4.44522703684421       -1.23969394256996        0.32510346209517
C           -5.50942737206509       -2.17486493428555        0.49576433964241
C           -5.24178701746924       -3.51296339626182        0.78968812883247
C           -6.27030477735449       -4.42046195107945        0.91011117969113
C           -7.57908194885907       -3.98947217873418        0.72608609450384
C           -7.85439348096550       -2.66844242129451        0.44197878394240
C           -6.83508808715430       -1.71267015822160        0.32731380935002
C           -7.09248201924802       -0.30653526295253        0.07300496852389
C           -8.39337740066201        0.19731590946976        0.01040194985004
C           -8.65843782603533        1.53645515674620       -0.17962552703690
C           -7.60425842206926        2.44383033763631       -0.29242209236322
C           -6.31188312437055        1.99641446484231       -0.24749873000094
C           -6.01068936031477        0.62407380324015       -0.09066387992979
C           -4.70270557030948        0.11237606071238       -0.03978349896625
N           -3.45756250251398        0.69124729506431       -0.16597210080923
C           -3.14699674959915        2.02428020304126       -0.44888309688775
C           -2.40793974469272        2.77451365484747        0.46785855888889
C           -2.07931934039305        4.08432285113224        0.17986087691294
C           -2.47924502668543        4.66057690614025       -1.01620267033030
C           -3.21271290584488        3.91683419726597       -1.92939834760042
C           -3.54611538998273        2.60557047783573       -1.65397695630906
C           -0.38029216594463        0.78288607853514       -0.62050716173123
C            0.98376142286221        0.77513195806858       -0.62187737899302
C            3.82277667081284       -1.28528511586934       -0.57618434284349
C            3.17054485756866       -2.31215471856311       -1.25750203076043
C            3.88006117246020       -3.36874536088542       -1.79747573775284
C            5.25714313055033       -3.41749593567805       -1.67013104556280
C            5.92860693262892       -2.38051843255345       -1.04568527336208
C            5.23224004436415       -1.29719660645092       -0.52010136172698
C            7.99518735058536       -0.47512399476820        1.26821091054442
C            9.37811334369079       -0.46513161258290        1.29142848488184
H           11.17138996668860       -0.19952075513546        0.15398755498912
H            9.97662614260978        0.25062363734709       -1.95660265050628
H            7.50556815382962        0.23741064659524       -2.00326851983184
H            6.94583876650056        1.97105082412820        1.08652832641875
H            5.70317048320169        3.80947251247775        2.13281134980425
H            3.23282353170283        3.69148260937147        2.29410593614107
H            2.03229733821247        1.79182527717925        1.32121775687972
H            1.54717266266680       -2.12252268698883        1.06732806584290
H           -0.92145319639309       -2.10791735132485        1.08842458917837
H           -4.21028737602067       -3.80573401598679        0.90994652766666
H           -6.06599060672663       -5.45628171926615        1.13761260324212
H           -8.39314842417538       -4.69603526348434        0.80650204990599
H           -8.88584795928654       -2.38490642206727        0.30380222253972
H           -9.23218491585577       -0.47079827681738        0.12562774990519
H           -9.67969900533026        1.88479272868213       -0.22281368703686
H           -7.80826925018195        3.49842432347555       -0.40848361134415
H           -5.50508461496852        2.70812869098138       -0.30916507841269
H           -2.09971992851243        2.31660157863443        1.39606281624352
H           -1.51136145591926        4.66209380181424        0.89424814538717
H           -2.21987612059387        5.68483808423126       -1.23755589692828
H           -3.52039314965222        4.36063750825581       -2.86485068305722
H           -4.11156244234617        2.01789893909370       -2.36260599558610
H           -0.89711351158894        1.54839268347287       -1.17439040632875
H            1.52931933549079        1.55020047130204       -1.14242046841866
H            2.09916893086100       -2.27480772240285       -1.36724231171598
H            3.35140335011613       -4.15325280234743       -2.31555152767723
H            5.81598025798007       -4.24919952440721       -2.06948352036755
H            7.00408476265473       -2.40739183281667       -0.96720062951896
H            7.42817094060177       -0.67643974334877        2.16498326218291
H            9.89919951449028       -0.66318272468876        2.21588330970491

 projected vibrational frequencies (cm⁻¹)
eigval :       -0.00    -0.00     0.00     0.00     0.00     0.00
eigval :        9.26    11.06    13.14    19.72    27.57    34.29
eigval :       43.18    46.79    54.89    59.48    66.10    74.64
eigval :       78.89    87.76    99.67   108.71   122.41   137.20
eigval :      164.31   170.47   184.21   204.13   212.44   223.41
eigval :      235.74   244.94   245.90   252.31   260.32   272.47
eigval :      302.34   304.02   328.39   369.63   373.49   378.11
eigval :      379.13   389.26   393.56   399.63   400.81   403.11
eigval :      413.93   420.70   424.19   437.87   442.52   450.19
eigval :      461.84   478.28   487.40   495.30   497.51   499.75
eigval :      521.78   525.90   528.52   573.72   582.51   584.78
eigval :      587.02   592.28   593.25   597.80   605.88   626.59
eigval :      633.53   642.86   645.75   657.93   663.81   666.49
eigval :      666.90   669.06   671.52   675.27   694.07   716.17
eigval :      724.83   733.73   752.75   757.91   760.40   769.00
eigval :      772.28   773.24   790.11   792.26   828.32   849.43
eigval :      857.22   859.48   864.59   871.21   875.06   885.70
eigval :      889.32   889.91   892.38   894.14   894.22   901.28
eigval :      906.14   906.67   910.31   910.91   912.84   915.67
eigval :      918.95   919.85   920.40   923.44   927.70   928.14
eigval :      930.79   933.01   939.93   975.70   984.68   989.76
eigval :      999.86  1049.03  1074.79  1075.89  1081.37  1091.66
eigval :     1102.58  1103.62  1104.89  1113.76  1116.57  1125.89
eigval :     1127.61  1131.74  1137.31  1158.14  1175.22  1176.52
eigval :     1176.73  1178.77  1179.51  1180.07  1181.27  1183.39
eigval :     1186.19  1197.45  1202.80  1214.64  1221.65  1236.90
eigval :     1247.05  1248.82  1252.52  1256.79  1270.22  1275.90
eigval :     1277.94  1283.90  1301.99  1306.93  1313.01  1316.69
eigval :     1318.29  1322.62  1327.36  1331.34  1340.06  1343.41
eigval :     1349.22  1359.31  1376.08  1389.20  1396.09  1411.50
eigval :     1411.82  1424.38  1427.33  1432.63  1435.53  1439.90
eigval :     1449.34  1452.90  1465.15  1468.33  1476.02  1478.44
eigval :     1486.91  1492.71  1508.94  1520.64  1534.17  1538.42
eigval :     1546.08  1547.61  1549.59  1552.66  1562.24  1571.95
eigval :     1572.23  1581.13  1589.38  3065.79  3068.06  3071.35
eigval :     3071.97  3075.91  3077.34  3081.59  3083.30  3083.76
eigval :     3084.11  3087.08  3090.92  3091.34  3092.81  3093.37
eigval :     3093.80  3096.22  3096.99  3100.54  3101.17  3102.94
eigval :     3104.02  3105.69  3108.99  3109.26  3118.14  3118.85
eigval :     3119.13  3122.32  3122.69

   temp. (K)  partition function   enthalpy   heat capacity  entropy
                                   cal/mol     cal/K/mol   cal/K/mol   J/K/mol
 298.15  VIB  0.353E+18            22254.601    142.743    138.289
         ROT  0.931E+08              888.752      2.981     39.445
         INT  0.329E+26            23143.353    145.724    177.734
         TR   0.152E+29             1481.254      4.968     45.168
         TOT                       24624.6072   150.6925   222.9028   932.6253

       T/K    H(0)-H(T)+PV         H(T)/Eh          T*S/Eh         G(T)/Eh
   ------------------------------------------------------------------------
    298.15    0.392418E-01    0.641843E+00    0.105908E+00    0.535935E+00
   ------------------------------------------------------------------------

         :::::::::::::::::::::::::::::::::::::::::::::::::::::
         ::                  THERMODYNAMIC                  ::
         :::::::::::::::::::::::::::::::::::::::::::::::::::::
         :: total free energy        -122.817139634942 Eh   ::
         ::.................................................::
         :: total energy             -123.353074527306 Eh   ::
         :: zero point energy           0.602601396491 Eh   ::
         :: G(RRHO) w/o ZPVE           -0.066666504126 Eh   ::
         :: G(RRHO) contrib.            0.535934892365 Eh   ::
         :::::::::::::::::::::::::::::::::::::::::::::::::::::

           -------------------------------------------------
          | TOTAL ENERGY             -123.353074527306 Eh   |
          | TOTAL ENTHALPY           -122.711231321324 Eh   |
          | TOTAL FREE ENERGY        -122.817139634942 Eh   |
          | GRADIENT NORM               0.000064544744 Eh/α |
           -------------------------------------------------

 * finished run on 2025/09/04 at 10:07:17.582
