   * xtb version 6.7.1 (edcfbbe) compiled by 'albert@albert-system' on 2024-07-22

   ID    Z sym.   atoms
    1    6 C      1-4, 6-11, 13-17, 19-32, 34-49
    2    7 N      5, 12, 18, 33
    3    1 H      50-79

          program call               : xtb data2507/gas/PPZPPI/PPZPPI_gas_S0_finalOpt.xtbopt.xyz --gfn 2 --spinpol --tblite --uhf 2 --ohess vtight --parallel 40 --molden --ceasefiles --namespace data2507/gas/PPZPPI/PPZPPI_gas_T1_preOpt
 * total energy  :  -123.3449469 Eh     change        0.1161771E-06 Eh
 * total energy  :  -123.3490883 Eh     change       -0.4141350E-02 Eh
 * total energy  :  -123.3503485 Eh     change       -0.1260199E-02 Eh
 * total energy  :  -123.3505164 Eh     change       -0.1678762E-03 Eh
 * total energy  :  -123.3506879 Eh     change       -0.1715346E-03 Eh
 * total energy  :  -123.3507632 Eh     change       -0.7525325E-04 Eh
 * total energy  :  -123.3508612 Eh     change       -0.9807956E-04 Eh
 * total energy  :  -123.3509450 Eh     change       -0.8371903E-04 Eh
 * total energy  :  -123.3510195 Eh     change       -0.7456758E-04 Eh
 * total energy  :  -123.3511228 Eh     change       -0.1032914E-03 Eh
 * total energy  :  -123.3530231 Eh     change       -0.9402062E-06 Eh
 * total energy  :  -123.3530240 Eh     change       -0.9501654E-06 Eh
 * total energy  :  -123.3530251 Eh     change       -0.1033332E-05 Eh
 * total energy  :  -123.3530258 Eh     change       -0.7069940E-06 Eh
 * total energy  :  -123.3530270 Eh     change       -0.1192339E-05 Eh
 * total energy  :  -123.3530282 Eh     change       -0.1199875E-05 Eh
 * total energy  :  -123.3530294 Eh     change       -0.1209920E-05 Eh
 * total energy  :  -123.3530306 Eh     change       -0.1215159E-05 Eh
 * total energy  :  -123.3530306 Eh     change       -0.7636828E-08 Eh
   *** GEOMETRY OPTIMIZATION CONVERGED AFTER 94 ITERATIONS ***

 final structure:
================
79
 xtb: 6.7.1 (edcfbbe)
C           10.08666868141718       -0.31117766941975        0.23244374617742
C            9.43865714674263       -0.18891770661343       -0.98626752271995
C            8.05664107539908       -0.18360632670399       -1.04151437039755
C            7.31967779264902       -0.30520114860404        0.13060658078935
N            5.89921452405446       -0.29967798017067        0.07982471404233
C            5.20291407527434        0.82061222172151        0.50394893155412
C            5.87568293072565        1.95771281375334        0.93944540027850
C            5.17860920941648        3.05144954081586        1.42276246997536
C            3.79766359653138        3.00859254652531        1.49844778739082
C            3.11230104698563        1.89717995993272        1.04422188572568
C            3.79217200312884        0.80713138854637        0.50192126360256
N            3.10980611553964       -0.29289934835062        0.00084151708478
C            1.70318267516402       -0.29861342797735       -0.01672168818030
C            0.97778867407237       -1.30700043720308        0.65528629082769
C           -0.38183335308822       -1.28447009616107        0.66948196206121
C           -1.12240018911162       -0.24809321767748        0.01901648982771
C           -2.51795758052177       -0.28882325265362        0.12167650994341
N           -3.17417138791291       -1.40191454053630        0.50622569681218
C           -4.46852087248429       -1.14576975621743        0.37814971514789
C           -5.55499860863184       -2.04449657854822        0.59715845590501
C           -5.31971615474610       -3.37610380818046        0.94366905414243
C           -6.37041659185109       -4.25078209869885        1.10773357945898
C           -7.66900179155158       -3.79380852055221        0.91453663681001
C           -7.91236817546849       -2.47849632398713        0.57917914640706
C           -6.86966213954732       -1.55503454106225        0.41982056938262
C           -7.09272604266189       -0.15386434625171        0.11119786759774
C           -8.38020541623667        0.38319317409982        0.04850347703191
C           -8.61168136632755        1.72007248241645       -0.19433248107884
C           -7.53517424722609        2.59158244806029       -0.36404685690606
C           -6.25487313276032        2.11046633139160       -0.31996974085087
C           -5.98877253018008        0.73844230048547       -0.10738010309536
C           -4.69430706333434        0.19409131233011       -0.04831653577329
N           -3.43579476215924        0.73235557716433       -0.21414219961478
C           -3.08664132978815        2.04278865918802       -0.55113635871925
C           -2.30385661757356        2.79812219797840        0.32442673358929
C           -1.93235237255504        4.08311315833529       -0.01763887527920
C           -2.33207792755235        4.62969780085541       -1.22757970005845
C           -3.10908660417123        3.88097554006883       -2.09983907727595
C           -3.48561222933173        2.59409674472036       -1.77032481771428
C           -0.37117627428658        0.71685764479689       -0.71761525035936
C            0.99247157528028        0.69170012077958       -0.71975751645472
C            3.81525505475168       -1.38750105969442       -0.47933526535489
C            3.16051295009680       -2.46309850881189       -1.07840787138890
C            3.86411427720939       -3.57275995356928       -1.50813157206564
C            5.23785578528367       -3.62761613040258       -1.35007972834121
C            5.91315250893927       -2.54625275982623       -0.81089050579610
C            5.22354043517510       -1.41028576246395       -0.40001181862595
C            7.96797793310510       -0.43005024195782        1.35361936895169
C            9.35030181093871       -0.43077809487963        1.40019994588486
H           11.16524062493805       -0.31305550971957        0.27215636174564
H           10.01083295275894       -0.09408561444267       -1.89677656751507
H            7.54115405430253       -0.08765290116711       -1.98564097865730
H            6.95339914009416        1.98212959423407        0.90231487583689
H            5.71976423964043        3.92378877217227        1.75394522595717
H            3.24735925127071        3.84047569411053        1.90907804295445
H            2.03739258083671        1.86697250419478        1.11330497597126
H            1.52169289175554       -2.07330921427248        1.18917063244565
H           -0.94661702789929       -2.03229001034643        1.20132106101988
H           -4.29518729865658       -3.69077770487805        1.06814650789685
H           -6.19112271935881       -5.28159727812512        1.37551011330743
H           -8.50029566704636       -4.47532379259761        1.02804223545776
H           -8.93704565866241       -2.17409267372948        0.43498771572277
H           -9.23473788123423       -0.25546523595702        0.20715824891672
H           -9.62356933586960        2.09506120929494       -0.23489696452815
H           -7.71221223326978        3.64549786929847       -0.52278009484397
H           -5.43001565668555        2.79596913773216       -0.42491239051671
H           -1.99675483368555        2.36381737938991        1.26427491744303
H           -1.33066233964057        4.66491309003498        0.66519975235560
H           -2.03874647151490        5.63450493890519       -1.49157589663463
H           -3.41675427168837        4.30131809746794       -3.04608061690377
H           -4.08375326159631        2.00212399186814       -2.44788647145472
H           -0.88046012678653        1.44139022964879       -1.33075295257976
H            1.54675544093845        1.41525162483581       -1.30159053359300
H            2.09184535060619       -2.42220492818075       -1.21099450492297
H            3.33356634222299       -4.39395477734914       -1.96363961004705
H            5.79150704560620       -4.49967478895618       -1.66069286313851
H            6.98655410551498       -2.57984160988693       -0.71008429880721
H            7.38399046395047       -0.52274495908456        2.25729049815734
H            9.85357087612418       -0.52758396411837        2.35031775115573

 projected vibrational frequencies (cm⁻¹)
eigval :       -0.00    -0.00    -0.00     0.00     0.00     0.00
eigval :        9.33    11.00    13.52    20.03    30.49    34.45
eigval :       43.43    47.30    55.66    60.41    66.46    75.52
eigval :       79.60    88.07   100.14   108.61   122.95   139.03
eigval :      165.76   171.34   184.46   204.30   213.26   223.59
eigval :      236.00   245.53   246.45   252.75   260.29   273.18
eigval :      302.89   303.57   328.45   369.44   373.78   377.94
eigval :      379.51   389.43   394.18   399.41   400.75   403.83
eigval :      413.63   420.93   424.53   438.30   442.94   450.90
eigval :      462.07   478.49   487.94   495.37   497.44   499.92
eigval :      521.80   526.01   528.66   574.11   582.57   584.70
eigval :      586.85   592.32   593.29   597.66   606.13   626.46
eigval :      633.51   642.87   645.93   658.12   663.73   666.46
eigval :      666.97   669.22   671.67   675.42   694.19   716.43
eigval :      724.99   734.68   752.87   758.05   760.53   769.20
eigval :      772.48   773.51   790.54   793.63   829.09   849.66
eigval :      857.43   859.88   864.88   871.47   875.51   885.74
eigval :      889.33   890.01   892.55   894.40   894.45   901.69
eigval :      906.13   907.33   910.49   910.97   913.06   916.45
eigval :      919.41   920.11   920.75   923.45   928.22   928.48
eigval :      930.98   932.84   939.81   975.91   985.04   989.95
eigval :     1000.05  1049.27  1075.11  1076.12  1081.59  1092.13
eigval :     1102.78  1104.04  1105.46  1114.08  1116.91  1125.91
eigval :     1127.70  1131.85  1137.24  1158.17  1175.17  1176.81
eigval :     1176.88  1178.81  1179.56  1180.22  1181.36  1183.49
eigval :     1186.31  1197.61  1202.66  1214.42  1222.50  1236.98
eigval :     1247.13  1249.05  1252.52  1256.85  1270.32  1276.13
eigval :     1277.77  1284.02  1302.27  1306.44  1313.15  1316.72
eigval :     1318.75  1322.68  1327.38  1331.19  1340.10  1343.11
eigval :     1349.21  1359.27  1376.31  1388.90  1395.57  1410.87
eigval :     1411.82  1424.23  1427.83  1432.61  1435.27  1439.94
eigval :     1448.86  1452.35  1465.24  1468.28  1476.39  1478.47
eigval :     1490.35  1493.07  1508.78  1523.06  1532.87  1538.29
eigval :     1545.16  1546.63  1549.17  1552.50  1561.96  1571.61
eigval :     1572.04  1580.92  1589.31  3065.79  3068.01  3071.42
eigval :     3071.86  3075.59  3077.09  3081.46  3083.18  3083.66
eigval :     3084.03  3086.82  3090.64  3091.24  3092.85  3093.38
eigval :     3093.40  3096.04  3096.73  3100.65  3101.18  3102.62
eigval :     3103.82  3105.48  3108.92  3109.29  3117.30  3118.71
eigval :     3119.16  3119.67  3121.98

   temp. (K)  partition function   enthalpy   heat capacity  entropy
                                   cal/mol     cal/K/mol   cal/K/mol   J/K/mol
 298.15  VIB  0.276E+18            22228.889    142.795    138.021
         ROT  0.928E+08              888.752      2.981     39.439
         INT  0.256E+26            23117.641    145.776    177.460
         TR   0.152E+29             1481.254      4.968     45.168
         TOT                       24598.8950   150.7444   222.6279   931.4752

       T/K    H(0)-H(T)+PV         H(T)/Eh          T*S/Eh         G(T)/Eh
   ------------------------------------------------------------------------
    298.15    0.392008E-01    0.641880E+00    0.105778E+00    0.536102E+00
   ------------------------------------------------------------------------

         :::::::::::::::::::::::::::::::::::::::::::::::::::::
         ::                  THERMODYNAMIC                  ::
         :::::::::::::::::::::::::::::::::::::::::::::::::::::
         :: total free energy        -122.816928304823 Eh   ::
         ::.................................................::
         :: total energy             -123.353030529981 Eh   ::
         :: zero point energy           0.602679096509 Eh   ::
         :: G(RRHO) w/o ZPVE           -0.066576871351 Eh   ::
         :: G(RRHO) contrib.            0.536102225158 Eh   ::
         :::::::::::::::::::::::::::::::::::::::::::::::::::::

           -------------------------------------------------
          | TOTAL ENERGY             -123.353030529981 Eh   |
          | TOTAL ENTHALPY           -122.711150598984 Eh   |
          | TOTAL FREE ENERGY        -122.816928304823 Eh   |
          | GRADIENT NORM               0.000086488822 Eh/α |
           -------------------------------------------------

 * finished run on 2025/09/04 at 10:01:50.862
