   * xtb version 6.7.1 (edcfbbe) compiled by 'albert@albert-system' on 2024-07-22

   ID    Z sym.   atoms
    1    6 C      1-16, 18-39
    2    7 N      17
    3    1 H      40-64

          program call               : xtb data2507/toluene/PhPC/PhPC_toluene_S0_crest.xyz --gfn 2 --gbsa toluene --ohess vtight --parallel 40 --molden --ceasefiles --namespace data2507/toluene/PhPC/PhPC_toluene_S0_finalOpt
      * Solvation model:               GBSA
        Solvent                        toluene
        Solvent mass                       9.2140E+01 g/mol
          :  Hamiltonian                  GFN2-xTB          :
 * total energy  :   -97.1108965 Eh     change       -0.4615686E-09 Eh
 * total energy  :   -97.1109226 Eh     change       -0.2606641E-04 Eh
 * total energy  :   -97.1109465 Eh     change       -0.2398025E-04 Eh
 * total energy  :   -97.1109601 Eh     change       -0.1354514E-04 Eh
 * total energy  :   -97.1109754 Eh     change       -0.1535332E-04 Eh
 * total energy  :   -97.1109819 Eh     change       -0.6513043E-05 Eh
 * total energy  :   -97.1109868 Eh     change       -0.4864846E-05 Eh
 * total energy  :   -97.1109908 Eh     change       -0.4018217E-05 Eh
 * total energy  :   -97.1109934 Eh     change       -0.2571412E-05 Eh
 * total energy  :   -97.1109953 Eh     change       -0.1874666E-05 Eh
 * total energy  :   -97.1110022 Eh     change       -0.2616576E-05 Eh
 * total energy  :   -97.1110048 Eh     change       -0.2578180E-05 Eh
 * total energy  :   -97.1110074 Eh     change       -0.2620568E-05 Eh
 * total energy  :   -97.1110102 Eh     change       -0.2803142E-05 Eh
 * total energy  :   -97.1110127 Eh     change       -0.2474624E-05 Eh
 * total energy  :   -97.1110141 Eh     change       -0.1390769E-05 Eh
 * total energy  :   -97.1110145 Eh     change       -0.4030047E-06 Eh
 * total energy  :   -97.1110147 Eh     change       -0.2054728E-06 Eh
 * total energy  :   -97.1110147 Eh     change       -0.3513806E-07 Eh
   *** GEOMETRY OPTIMIZATION CONVERGED AFTER 21 ITERATIONS ***

 final structure:
================
64
 xtb: 6.7.1 (edcfbbe)
C            8.60114004770886        0.00009410294131        0.00139188363905
C            7.90628852714242        0.20937462618567       -1.17853944941381
C            6.52263951995189        0.21244428238455       -1.17930593502153
C            5.81716062030971        0.00122510386888        0.00139712556750
C            4.33692301505828        0.00135063331007        0.00078261660812
C            3.63909536080393       -1.20576899914530        0.14725845240855
C            4.31571480468349       -2.44851416493314        0.27066573333461
C            3.63068995452991       -3.61226663505250        0.43932713995421
C            2.22246650001954       -3.60473401275084        0.50218366079101
C            1.53536942995637       -2.43780504016551        0.36658509869956
C            2.20908391270917       -1.20404959616710        0.16326857512643
C            1.51144790477911        0.00127689186336       -0.00234699330051
C            0.03257418246305        0.00150035713494       -0.00297812077730
C           -0.67582723830504       -0.56499932188266       -1.05919817660610
C           -2.05727135492146       -0.56059685198900       -1.06577791266788
C           -2.75812139265697        0.00114957582196       -0.00244358982528
N           -4.16207767808251        0.00051923336130       -0.00165285359262
C           -4.96984090115903        1.10217282919291        0.19471687191707
C           -4.61997742805671        2.43207292653378        0.38373113168601
C           -5.63928664434512        3.35294000483093        0.53308482419860
C           -6.97848945823662        2.96927538367723        0.48957276560852
C           -7.33307622884689        1.65143988413938        0.27942105230588
C           -6.32619195914718        0.70660210771175        0.12590778454745
C           -6.32573342129449       -0.70852384386718       -0.12013621623585
C           -7.33198805898646       -1.65477483866779       -0.26899205402527
C           -6.97652557374810       -2.97222248442846       -0.48008932654681
C           -5.63700273187085       -3.35407099972043       -0.52924218073488
C           -4.61830056846537       -2.43176026772747       -0.38467171134581
C           -4.96913521341577       -1.10228797074934       -0.19447727919014
C           -2.05699144532382        0.56331337558886        1.06050506244721
C           -0.67560248970017        0.56804830888767        1.05340185830121
C            2.20941377978267        1.20663351194773       -0.16643267289889
C            1.53609667345288        2.44034541956401       -0.37135348550842
C            2.22344465197925        3.60734104887696       -0.50508730412505
C            3.63152071440375        3.61498414314045       -0.43876117447562
C            4.31622073196710        2.45125116307220       -0.26866815942429
C            3.63936883189458        1.20844670253675       -0.14712003819617
C            6.52244797767093       -0.21032678381199        1.18214361892306
C            7.90612335412443       -0.20839905490633        1.18133781956482
H            9.68152993276863       -0.00047242481096        0.00137841278745
H            8.44397835200224        0.37127712130479       -2.10181986959313
H            5.97845986267861        0.37410118800365       -2.09929657917605
H            5.39487971836991       -2.45294217777457        0.22784300321988
H            4.16012040314132       -4.54960688057280        0.53144907729455
H            1.69451381167201       -4.53485796700087        0.65595205927912
H            0.45650042595564       -2.43385887224614        0.41487070165072
H           -0.13478018813336       -0.99927414218732       -1.88748749920348
H           -2.60030501499817       -0.98186667020247       -1.89879539160317
H           -3.58562181380134        2.74118475146736        0.40407189258114
H           -5.39286364359832        4.39400834503406        0.68426234035201
H           -7.74668796317096        3.71863231899279        0.61354535553502
H           -8.37116488619892        1.35758390756976        0.23124809274587
H           -8.37025024663338       -1.36229102420685       -0.21642046259226
H           -7.74422830342139       -3.72268739783607       -0.60038877750057
H           -5.38982119007365       -4.39486019831092       -0.68111680773228
H           -3.58363515310330       -2.73950791572212       -0.40934872999749
H           -2.59982428858722        0.98440016535626        1.89374237403044
H           -0.13433178550956        1.00248590403756        1.88144795069210
H            0.45737502956357        2.43624303619546       -0.42286698501522
H            1.69583534586624        4.53735747216839       -0.66068463970096
H            4.16106511245245        4.55243681478694       -0.52906978569469
H            5.39525757081827        2.45572014070753       -0.22279259401388
H            5.97821492216371       -0.37145410744468        2.10218793363678
H            8.44373287004890       -0.37073066471899        2.10460816750052

          :  Hamiltonian                  GFN2-xTB          :
         :: gradient norm              0.000147122706 Eh/a0 ::
         :: HOMO-LUMO gap              2.109038060546 eV    ::
         :: SCC energy               -98.997418623140 Eh    ::
         :: -> dispersion             -0.089793064353 Eh    ::
         :: -> Gsolv                  -0.039010443002 Eh    ::
         :: repulsion energy           1.886403914215 Eh    ::

    * Orbital Energies and Occupations

         #    Occupation            Energy/Eh            Energy/eV
      -------------------------------------------------------------
         1        2.0000           -0.6752742             -18.3751
       ...           ...                  ...                  ...
        79        2.0000           -0.4181364             -11.3781
        80        2.0000           -0.4177224             -11.3668
        81        2.0000           -0.4133353             -11.2474
        82        2.0000           -0.4066082             -11.0644
        83        2.0000           -0.4060305             -11.0487
        84        2.0000           -0.4045604             -11.0086
        85        2.0000           -0.4041193             -10.9966
        86        2.0000           -0.4011964             -10.9171
        87        2.0000           -0.3990110             -10.8576
        88        2.0000           -0.3965138             -10.7897
        89        2.0000           -0.3779032             -10.2833
        90        2.0000           -0.3626609              -9.8685
        91        2.0000           -0.3575261              -9.7288 (HOMO)
        92                         -0.2800204              -7.6197 (LUMO)
        93                         -0.2453366              -6.6759
        94                         -0.2332638              -6.3474
        95                         -0.2322079              -6.3187
        96                         -0.2304102              -6.2698
        97                         -0.2241234              -6.0987
        98                         -0.2237915              -6.0897
        99                         -0.2213080              -6.0221
       100                         -0.2199936              -5.9863
       101                         -0.1906648              -5.1883
       102                         -0.1855001              -5.0477
       ...                                ...                  ...
       181                          0.7451996              20.2779
      -------------------------------------------------------------
                  HL-Gap            0.0775057 Eh            2.1090 eV

     #   Z          covCN         q      C6AA      α(0)
     1   6 C        2.920    -0.033    28.810     8.802
     2   6 C        2.918    -0.030    28.760     8.794
     3   6 C        2.924    -0.032    28.809     8.802
     4   6 C        2.977     0.016    27.660     8.627
     5   6 C        2.977    -0.006    28.162     8.705
     6   6 C        2.983     0.006    27.890     8.663
     7   6 C        2.917    -0.035    28.862     8.810
     8   6 C        2.914    -0.031    28.775     8.796
     9   6 C        2.914    -0.031    28.769     8.795
    10   6 C        2.917    -0.035    28.882     8.813
    11   6 C        2.983     0.006    27.889     8.663
    12   6 C        2.976    -0.007    28.185     8.708
    13   6 C        2.976     0.014    27.691     8.632
    14   6 C        2.924    -0.031    28.775     8.797
    15   6 C        2.920    -0.043    29.065     8.841
    16   6 C        2.913     0.062    26.615     8.460
    17   7 N        2.802    -0.047    22.151     6.990
    18   6 C        3.076     0.048    26.854     8.496
    19   6 C        2.909    -0.052    29.289     8.874
    20   6 C        2.924    -0.035    28.878     8.813
    21   6 C        2.919    -0.043    29.069     8.841
    22   6 C        2.912    -0.035    28.873     8.811
    23   6 C        3.067    -0.019    28.415     8.741
    24   6 C        3.067    -0.019    28.415     8.741
    25   6 C        2.912    -0.035    28.873     8.811
    26   6 C        2.919    -0.043    29.069     8.841
    27   6 C        2.924    -0.035    28.878     8.813
    28   6 C        2.909    -0.052    29.290     8.874
    29   6 C        3.076     0.048    26.854     8.496
    30   6 C        2.920    -0.043    29.064     8.841
    31   6 C        2.924    -0.031    28.775     8.797
    32   6 C        2.983     0.006    27.889     8.663
    33   6 C        2.917    -0.035    28.882     8.813
    34   6 C        2.914    -0.031    28.769     8.795
    35   6 C        2.914    -0.031    28.775     8.796
    36   6 C        2.917    -0.035    28.861     8.810
    37   6 C        2.983     0.006    27.890     8.663
    38   6 C        2.924    -0.032    28.810     8.802
    39   6 C        2.918    -0.030    28.760     8.794
    40   1 H        0.926     0.031     2.577     2.510
    41   1 H        0.926     0.031     2.567     2.506
    42   1 H        0.926     0.030     2.591     2.517
    43   1 H        0.926     0.032     2.564     2.504
    44   1 H        0.926     0.030     2.586     2.515
    45   1 H        0.926     0.030     2.584     2.514
    46   1 H        0.926     0.031     2.570     2.507
    47   1 H        0.926     0.039     2.460     2.453
    48   1 H        0.926     0.042     2.426     2.436
    49   1 H        0.926     0.029     2.600     2.522
    50   1 H        0.926     0.029     2.595     2.519
    51   1 H        0.926     0.027     2.628     2.535
    52   1 H        0.926     0.029     2.596     2.520
    53   1 H        0.926     0.029     2.596     2.520
    54   1 H        0.926     0.027     2.628     2.535
    55   1 H        0.926     0.029     2.595     2.519
    56   1 H        0.926     0.029     2.600     2.522
    57   1 H        0.926     0.042     2.426     2.436
    58   1 H        0.926     0.039     2.460     2.453
    59   1 H        0.926     0.031     2.570     2.507
    60   1 H        0.926     0.030     2.584     2.514
    61   1 H        0.926     0.030     2.586     2.515
    62   1 H        0.926     0.032     2.564     2.504
    63   1 H        0.926     0.030     2.591     2.517
    64   1 H        0.926     0.031     2.567     2.506

molecular dipole:
                 x           y           z       tot (Debye)
 q only:        0.778       0.000      -0.001
   full:        0.821       0.000      -0.001       2.088

 projected vibrational frequencies (cm⁻¹)
eigval :       -0.00    -0.00    -0.00     0.00     0.00     0.00
eigval :        9.89    14.12    18.50    39.59    39.92    57.01
eigval :       70.22    75.42    75.50    78.86   104.10   108.21
eigval :      114.72   142.83   172.15   191.01   197.83   211.47
eigval :      216.96   220.34   240.61   260.11   270.67   319.99
eigval :      350.16   367.54   380.07   380.31   388.56   397.18
eigval :      398.65   410.63   417.38   428.35   440.65   442.83
eigval :      447.10   456.09   470.25   504.89   518.90   534.05
eigval :      540.61   576.01   577.01   584.94   585.83   591.05
eigval :      592.60   605.53   613.94   618.25   636.97   663.68
eigval :      673.81   674.24   691.29   698.41   701.96   709.59
eigval :      737.38   741.53   757.23   758.10   768.00   773.12
eigval :      774.73   779.07   819.65   865.89   871.36   873.04
eigval :      873.99   879.40   881.69   895.41   897.55   900.56
eigval :      901.41   901.52   903.86   911.09   916.67   917.22
eigval :      919.58   920.48   925.07   926.82   927.38   929.73
eigval :      931.65   933.36   934.52   951.68   995.06  1011.05
eigval :     1022.69  1068.71  1072.01  1081.54  1081.59  1082.58
eigval :     1115.30  1117.46  1129.98  1133.96  1144.41  1150.32
eigval :     1173.82  1179.42  1180.05  1180.90  1182.76  1184.76
eigval :     1193.85  1196.32  1213.86  1220.52  1230.41  1235.62
eigval :     1244.34  1259.47  1260.29  1265.05  1279.66  1298.82
eigval :     1301.42  1307.50  1309.40  1323.12  1348.70  1354.45
eigval :     1359.28  1360.60  1377.19  1383.60  1400.61  1417.13
eigval :     1426.29  1427.42  1428.45  1429.47  1443.20  1469.01
eigval :     1474.33  1486.82  1488.69  1497.92  1525.04  1528.49
eigval :     1541.04  1558.50  1572.81  1578.83  1587.22  1594.01
eigval :     1597.11  1597.88  1606.95  1613.14  1621.23  3066.54
eigval :     3066.84  3069.52  3069.55  3069.84  3070.15  3073.59
eigval :     3075.14  3075.83  3076.11  3076.12  3076.95  3078.17
eigval :     3078.75  3082.81  3083.60  3085.96  3086.15  3087.66
eigval :     3089.19  3089.75  3090.37  3091.07  3092.12  3092.66

   temp. (K)  partition function   enthalpy   heat capacity  entropy
                                   cal/mol     cal/K/mol   cal/K/mol   J/K/mol
 298.15  VIB  0.695E+13            17026.430    111.968    105.044
         ROT  0.229E+08              888.752      2.981     36.654
         INT  0.159E+21            17915.182    114.949    141.698
         TR   0.107E+29             1481.254      4.968     44.469
         TOT                       19396.4362   119.9173   186.1674   778.9245

       T/K    H(0)-H(T)+PV         H(T)/Eh          T*S/Eh         G(T)/Eh
   ------------------------------------------------------------------------
    298.15    0.309102E-01    0.526268E+00    0.884542E-01    0.437814E+00
   ------------------------------------------------------------------------

         :::::::::::::::::::::::::::::::::::::::::::::::::::::
         ::                  THERMODYNAMIC                  ::
         :::::::::::::::::::::::::::::::::::::::::::::::::::::
         :: total free energy         -96.673200830083 Eh   ::
         ::.................................................::
         :: total energy              -97.111014708332 Eh   ::
         :: zero point energy           0.495357842417 Eh   ::
         :: G(RRHO) w/o ZPVE           -0.057543964168 Eh   ::
         :: G(RRHO) contrib.            0.437813878249 Eh   ::
         :::::::::::::::::::::::::::::::::::::::::::::::::::::

           -------------------------------------------------
          | TOTAL ENERGY              -97.111014708332 Eh   |
          | TOTAL ENTHALPY            -96.584746677349 Eh   |
          | TOTAL FREE ENERGY         -96.673200830083 Eh   |
          | GRADIENT NORM               0.000147113450 Eh/α |
          | HOMO-LUMO GAP               2.109038072872 eV   |
           -------------------------------------------------

 * finished run on 2025/09/12 at 03:59:46.968
