   * xtb version 6.7.1 (edcfbbe) compiled by 'albert@albert-system' on 2024-07-22

   ID    Z sym.   atoms
    1    6 C      1-16, 18-39
    2    7 N      17
    3    1 H      40-64

          program call               : xtb data2507/toluene/PhPC/PhPC_toluene_S0_finalOpt.xtbopt.xyz --gfn 2 --uhf 2 --gbsa toluene --ohess vtight --parallel 40 --molden --ceasefiles --namespace data2507/toluene/PhPC/PhPC_toluene_T1_preOpt
      * Solvation model:               GBSA
        Solvent                        toluene
        Solvent mass                       9.2140E+01 g/mol
          :  Hamiltonian                  GFN2-xTB          :
 * total energy  :   -97.0329031 Eh     change       -0.7113229E-08 Eh
 * total energy  :   -97.0388047 Eh     change       -0.5901621E-02 Eh
 * total energy  :   -97.0402183 Eh     change       -0.1413602E-02 Eh
 * total energy  :   -97.0403716 Eh     change       -0.1532634E-03 Eh
 * total energy  :   -97.0405629 Eh     change       -0.1913294E-03 Eh
 * total energy  :   -97.0406811 Eh     change       -0.1182338E-03 Eh
 * total energy  :   -97.0408314 Eh     change       -0.1502101E-03 Eh
 * total energy  :   -97.0409953 Eh     change       -0.1639470E-03 Eh
 * total energy  :   -97.0410832 Eh     change       -0.8794558E-04 Eh
 * total energy  :   -97.0411423 Eh     change       -0.5906943E-04 Eh
 * total energy  :   -97.0422995 Eh     change       -0.5079321E-06 Eh
 * total energy  :   -97.0423000 Eh     change       -0.5057819E-06 Eh
 * total energy  :   -97.0423005 Eh     change       -0.5012625E-06 Eh
 * total energy  :   -97.0423010 Eh     change       -0.4893827E-06 Eh
 * total energy  :   -97.0423014 Eh     change       -0.4683965E-06 Eh
 * total energy  :   -97.0423019 Eh     change       -0.4458119E-06 Eh
 * total energy  :   -97.0423023 Eh     change       -0.4167606E-06 Eh
 * total energy  :   -97.0423027 Eh     change       -0.4046827E-06 Eh
 * total energy  :   -97.0423027 Eh     change       -0.3938354E-08 Eh
   *** GEOMETRY OPTIMIZATION CONVERGED AFTER 94 ITERATIONS ***

 final structure:
================
64
 xtb: 6.7.1 (edcfbbe)
C            8.60807864975999        0.00149749987557       -0.00030451744380
C            7.91035768514618        0.60807828974759       -1.03329873593846
C            6.52883327662748        0.61426408231886       -1.03212296152147
C            5.81215984519078        0.00114861476003       -0.00043516669865
C            4.34863782423403        0.00093811382318       -0.00053713290617
C            3.63958452742533       -1.23697949970601        0.02164798583686
C            4.30557613381635       -2.46632120922603       -0.02736272177837
C            3.61817970632070       -3.67238312022797        0.08789740866315
C            2.25162869713242       -3.66619410458773        0.26764757394595
C            1.55753507350867       -2.45735881724297        0.26467967942444
C            2.21302297971786       -1.23666136195445        0.08183600797499
C            1.49897592824805        0.00054211267410       -0.00030050420171
C            0.04472751878262        0.00040520840045        0.00004461526408
C           -0.68086979487572       -0.78021844768803       -0.91114814910993
C           -2.05771440004781       -0.77184407085218       -0.92143142699467
C           -2.76559234257825        0.00023135415329        0.00079966481936
N           -4.16494111561561        0.00010211833384        0.00121347524992
C           -4.97399888162684        1.11991266925932        0.02999508420652
C           -4.62687944592439        2.46394136644046        0.01106688567615
C           -5.64786603800531        3.39557137682624        0.01936515109939
C           -6.98619620371385        3.00830267014463        0.03527751075617
C           -7.33871217835161        1.67267399043590        0.02634879876876
C           -6.33015524229764        0.71826196135620        0.01850637972375
C           -6.33006362957370       -0.71836627419882       -0.01481645985896
C           -7.33849072048739       -1.67291939194477       -0.02202424867981
C           -6.98580331707045       -3.00850039458400       -0.03114850169426
C           -5.64740934090081       -3.39558363875093       -0.01603519350049
C           -4.62654747572057       -2.46381098904543       -0.00838107909204
C           -4.97385584061442       -1.11983057885219       -0.02711620256165
C           -2.05731939417034        0.77243565091578        0.92262388617981
C           -0.68048468461512        0.78097948146838        0.91159162776947
C            2.21268163213837        1.23793393126966       -0.08268632588306
C            1.55681323267757        2.45842703423961       -0.26550996165414
C            2.25055611409532        3.66746259180809       -0.26865831141457
C            3.61712801300553        3.67405808537387       -0.08908720616010
C            4.30488913743423        2.46820350740315        0.02616154199435
C            3.63924986471371        1.23866304505371       -0.02271121364837
C            6.52888498228239       -0.61179911176675        1.03131324212073
C            7.91040856548997       -0.60525836582095        1.03262193553290
H            9.68823065622424        0.00161047058693       -0.00026490504407
H            8.44730128225217        1.07707949968623       -1.84563964956302
H            5.98819938044340        1.07290433609618       -1.84809309148961
H            5.37676794666553       -2.48320708810644       -0.15851658306341
H            4.16469425597321       -4.60341202351860        0.05266852324564
H            1.70989509995454       -4.59132013248660        0.39958736780787
H            0.48894950291405       -2.46989416239354        0.41497107149808
H           -0.14493814922946       -1.35947870235298       -1.64874247225480
H           -2.59807361994171       -1.34413101728076       -1.66087951855632
H           -3.59415853298436        2.77623233121723       -0.02055571911375
H           -5.40242139959573        4.44762985732589        0.00920425385152
H           -7.75554207057864        3.76645792400803        0.04447404695875
H           -8.37602378573234        1.37276744892084        0.02073223678724
H           -8.37584021468068       -1.37315662617766       -0.01577099028771
H           -7.75504678284412       -3.76676523090204       -0.03985114070572
H           -5.40182227266526       -4.44761017380779       -0.00600713850375
H           -3.59376301352147       -2.77596024740476        0.02260374187114
H           -2.59733724882758        1.34467193199349        1.66236049269000
H           -0.14422481496932        1.36030625051659        1.64889709207737
H            0.48819696448790        2.47064441533366       -0.41560653773267
H            1.70853474935341        4.59242219847081       -0.40057302182684
H            4.16338027792739        4.60524633178873       -0.05400056596728
H            5.37609121937366        2.48542035123535        0.15718469263257
H            5.98828717168104       -1.07060778515646        1.84721239776722
H            8.44739391281012       -1.07416774763948        1.84498811908925

          :  Hamiltonian                  GFN2-xTB          :
         :: gradient norm              0.000058638546 Eh/a0 ::
         :: HOMO-LUMO gap              1.070016721165 eV    ::
         :: SCC energy               -98.910031146344 Eh    ::
         :: -> dispersion             -0.089972151517 Eh    ::
         :: -> Gsolv                  -0.038655868114 Eh    ::
         :: repulsion energy           1.867728433871 Eh    ::

    * Orbital Energies and Occupations

         #    Occupation            Energy/Eh            Energy/eV
      -------------------------------------------------------------
         1        2.0000           -0.6781081             -18.4523
       ...           ...                  ...                  ...
        80        2.0000           -0.4164409             -11.3319
        81        2.0000           -0.4136285             -11.2554
        82        2.0000           -0.4073728             -11.0852
        83        2.0000           -0.4060628             -11.0495
        84        2.0000           -0.4040340             -10.9943
        85        2.0000           -0.4034651             -10.9788
        86        2.0000           -0.3992677             -10.8646
        87        2.0000           -0.3956850             -10.7671
        88        2.0000           -0.3952598             -10.7556
        89        2.0000           -0.3804143             -10.3516
        90        1.9999           -0.3648363              -9.9277
        91        1.0001           -0.3474950              -9.4558
        92        1.0000           -0.2869100              -7.8072 (HOMO)
        93                         -0.2475876              -6.7372 (LUMO)
        94                         -0.2346840              -6.3861
        95                         -0.2299136              -6.2563
        96                         -0.2258296              -6.1451
        97                         -0.2251528              -6.1267
        98                         -0.2238911              -6.0924
        99                         -0.2228706              -6.0646
       100                         -0.2198743              -5.9831
       101                         -0.1937630              -5.2726
       102                         -0.1878665              -5.1121
       103                         -0.1730173              -4.7080
       ...                                ...                  ...
       181                          0.7425300              20.2053
      -------------------------------------------------------------
                  HL-Gap            0.0393224 Eh            1.0700 eV

     #   Z          covCN         q      C6AA      α(0)
     1   6 C        2.919    -0.033    28.823     8.804
     2   6 C        2.917    -0.031    28.770     8.796
     3   6 C        2.924    -0.033    28.812     8.802
     4   6 C        2.974     0.015    27.669     8.628
     5   6 C        2.973    -0.013    28.326     8.730
     6   6 C        2.977     0.008    27.847     8.656
     7   6 C        2.921    -0.040    28.985     8.829
     8   6 C        2.913    -0.033    28.822     8.803
     9   6 C        2.914    -0.033    28.830     8.805
    10   6 C        2.921    -0.041    29.008     8.832
    11   6 C        2.976     0.007    27.850     8.657
    12   6 C        2.972    -0.014    28.351     8.734
    13   6 C        2.972     0.014    27.699     8.633
    14   6 C        2.923    -0.032    28.791     8.799
    15   6 C        2.918    -0.044    29.081     8.843
    16   6 C        2.912     0.059    26.667     8.468
    17   7 N        2.801    -0.038    21.983     6.964
    18   6 C        3.074     0.047    26.869     8.499
    19   6 C        2.910    -0.050    29.242     8.867
    20   6 C        2.923    -0.035    28.859     8.810
    21   6 C        2.920    -0.041    29.021     8.834
    22   6 C        2.912    -0.034    28.848     8.807
    23   6 C        3.066    -0.017    28.373     8.734
    24   6 C        3.066    -0.017    28.373     8.734
    25   6 C        2.912    -0.034    28.848     8.807
    26   6 C        2.920    -0.041    29.021     8.834
    27   6 C        2.923    -0.035    28.859     8.810
    28   6 C        2.910    -0.050    29.242     8.867
    29   6 C        3.074     0.047    26.869     8.499
    30   6 C        2.918    -0.044    29.081     8.843
    31   6 C        2.923    -0.032    28.791     8.799
    32   6 C        2.976     0.007    27.851     8.657
    33   6 C        2.921    -0.041    29.008     8.832
    34   6 C        2.914    -0.033    28.830     8.805
    35   6 C        2.913    -0.033    28.822     8.803
    36   6 C        2.921    -0.040    28.985     8.829
    37   6 C        2.977     0.008    27.847     8.656
    38   6 C        2.924    -0.033    28.812     8.802
    39   6 C        2.917    -0.031    28.770     8.796
    40   1 H        0.926     0.030     2.585     2.514
    41   1 H        0.926     0.031     2.573     2.508
    42   1 H        0.926     0.031     2.571     2.508
    43   1 H        0.926     0.031     2.573     2.508
    44   1 H        0.926     0.028     2.617     2.530
    45   1 H        0.926     0.028     2.611     2.527
    46   1 H        0.926     0.032     2.559     2.502
    47   1 H        0.926     0.041     2.432     2.439
    48   1 H        0.926     0.042     2.420     2.433
    49   1 H        0.926     0.032     2.554     2.499
    50   1 H        0.926     0.032     2.563     2.504
    51   1 H        0.926     0.030     2.592     2.518
    52   1 H        0.926     0.032     2.559     2.502
    53   1 H        0.926     0.032     2.559     2.502
    54   1 H        0.926     0.030     2.592     2.518
    55   1 H        0.926     0.032     2.563     2.504
    56   1 H        0.926     0.032     2.554     2.499
    57   1 H        0.926     0.042     2.420     2.433
    58   1 H        0.926     0.041     2.432     2.439
    59   1 H        0.926     0.032     2.559     2.502
    60   1 H        0.926     0.028     2.611     2.527
    61   1 H        0.926     0.028     2.617     2.530
    62   1 H        0.926     0.031     2.573     2.508
    63   1 H        0.926     0.031     2.572     2.508
    64   1 H        0.926     0.031     2.573     2.508

molecular dipole:
                 x           y           z       tot (Debye)
 q only:        0.043      -0.000      -0.000
   full:        0.106      -0.000      -0.000       0.270

 projected vibrational frequencies (cm⁻¹)
eigval :       -0.00    -0.00    -0.00    -0.00     0.00     0.00
eigval :       14.74    19.06    21.38    37.55    55.27    62.20
eigval :       71.85    76.96    86.82    91.28   106.87   112.38
eigval :      135.60   150.72   176.87   194.80   204.13   215.03
eigval :      223.68   237.75   250.60   266.96   270.44   318.48
eigval :      344.14   366.67   372.23   378.18   386.86   393.36
eigval :      394.23   402.96   414.80   419.27   423.74   430.75
eigval :      445.49   469.86   473.25   500.21   517.97   537.40
eigval :      540.44   566.44   574.13   577.81   582.22   584.34
eigval :      587.87   596.39   609.05   618.10   623.44   657.14
eigval :      673.31   673.37   674.33   691.05   700.72   708.24
eigval :      716.67   738.13   746.46   756.61   757.17   761.92
eigval :      770.26   780.69   819.70   842.46   844.86   864.47
eigval :      874.50   876.79   884.93   886.75   891.65   892.45
eigval :      896.72   898.08   902.71   903.79   904.83   904.90
eigval :      908.40   908.88   921.91   922.67   930.60   934.64
eigval :      937.21   937.64   944.67   947.99   990.99  1010.77
eigval :     1016.70  1068.76  1071.99  1082.48  1101.54  1104.20
eigval :     1113.06  1114.91  1120.91  1126.90  1133.24  1149.57
eigval :     1172.95  1178.49  1178.94  1180.20  1181.71  1182.04
eigval :     1185.04  1197.04  1202.82  1205.70  1230.18  1233.04
eigval :     1242.01  1254.62  1263.41  1275.81  1283.62  1295.39
eigval :     1295.68  1300.46  1300.56  1310.06  1311.69  1336.40
eigval :     1355.48  1357.35  1359.40  1362.45  1374.10  1374.42
eigval :     1408.81  1408.87  1420.73  1423.71  1423.92  1423.99
eigval :     1460.86  1470.12  1472.91  1481.48  1484.96  1485.71
eigval :     1522.58  1523.14  1528.09  1551.97  1560.27  1570.84
eigval :     1571.70  1582.96  1585.60  1592.85  1608.72  3066.19
eigval :     3066.37  3070.65  3070.78  3071.95  3072.27  3074.54
eigval :     3076.99  3077.68  3077.90  3078.27  3078.99  3079.64
eigval :     3079.82  3086.26  3087.25  3087.63  3089.09  3091.08
eigval :     3091.63  3092.11  3092.87  3094.42  3094.64  3096.29

   temp. (K)  partition function   enthalpy   heat capacity  entropy
                                   cal/mol     cal/K/mol   cal/K/mol   J/K/mol
 298.15  VIB  0.133E+13            16969.105    113.240    103.251
         ROT  0.230E+08              888.752      2.981     36.666
         INT  0.305E+20            17857.857    116.220    139.917
         TR   0.107E+29             1481.254      4.968     44.469
         TOT                       19339.1112   121.1886   184.3858   771.4700

       T/K    H(0)-H(T)+PV         H(T)/Eh          T*S/Eh         G(T)/Eh
   ------------------------------------------------------------------------
    298.15    0.308188E-01    0.524089E+00    0.876076E-01    0.436481E+00
   ------------------------------------------------------------------------

         :::::::::::::::::::::::::::::::::::::::::::::::::::::
         ::                  THERMODYNAMIC                  ::
         :::::::::::::::::::::::::::::::::::::::::::::::::::::
         :: total free energy         -96.605821640934 Eh   ::
         ::.................................................::
         :: total energy              -97.042302710827 Eh   ::
         :: zero point energy           0.493269858951 Eh   ::
         :: G(RRHO) w/o ZPVE           -0.056788789058 Eh   ::
         :: G(RRHO) contrib.            0.436481069893 Eh   ::
         :::::::::::::::::::::::::::::::::::::::::::::::::::::

           -------------------------------------------------
          | TOTAL ENERGY              -97.042302710827 Eh   |
          | TOTAL ENTHALPY            -96.518214016538 Eh   |
          | TOTAL FREE ENERGY         -96.605821640934 Eh   |
          | GRADIENT NORM               0.000058638421 Eh/α |
          | HOMO-LUMO GAP               1.070016460865 eV   |
           -------------------------------------------------

 * finished run on 2025/09/12 at 03:59:53.520
