   * xtb version 6.7.1 (edcfbbe) compiled by 'albert@albert-system' on 2024-07-22

   ID    Z sym.   atoms
    1    6 C      1-16, 18-39
    2    7 N      17
    3    1 H      40-64

          program call               : xtb data2507/toluene/PhPC/PhPC.xyz --gfn 2 --gbsa toluene --ohess vtight --parallel 40 --molden --ceasefiles --namespace data2507/toluene/PhPC/PhPC_toluene_S0_preOpt
      * Solvation model:               GBSA
        Solvent                        toluene
        Solvent mass                       9.2140E+01 g/mol
          :  Hamiltonian                  GFN2-xTB          :
 * total energy  :   -97.0927011 Eh     change       -0.1095174E-08 Eh
 * total energy  :   -97.1066746 Eh     change       -0.1397347E-01 Eh
 * total energy  :   -97.1098220 Eh     change       -0.3147428E-02 Eh
 * total energy  :   -97.1101572 Eh     change       -0.3351233E-03 Eh
 * total energy  :   -97.1103852 Eh     change       -0.2280508E-03 Eh
 * total energy  :   -97.1104816 Eh     change       -0.9638197E-04 Eh
 * total energy  :   -97.1105666 Eh     change       -0.8503260E-04 Eh
 * total energy  :   -97.1106330 Eh     change       -0.6634584E-04 Eh
 * total energy  :   -97.1106753 Eh     change       -0.4232604E-04 Eh
 * total energy  :   -97.1107203 Eh     change       -0.4496417E-04 Eh
 * total energy  :   -97.1107732 Eh     change       -0.2099798E-04 Eh
 * total energy  :   -97.1107820 Eh     change       -0.8730963E-05 Eh
 * total energy  :   -97.1107859 Eh     change       -0.3938316E-05 Eh
 * total energy  :   -97.1107886 Eh     change       -0.2673340E-05 Eh
 * total energy  :   -97.1107906 Eh     change       -0.2022054E-05 Eh
 * total energy  :   -97.1107916 Eh     change       -0.9880399E-06 Eh
 * total energy  :   -97.1107913 Eh     change        0.2484476E-06 Eh
 * total energy  :   -97.1107919 Eh     change       -0.5866461E-06 Eh
 * total energy  :   -97.1107920 Eh     change       -0.7542131E-07 Eh
   *** GEOMETRY OPTIMIZATION CONVERGED AFTER 20 ITERATIONS ***

 final structure:
================
64
 xtb: 6.7.1 (edcfbbe)
C            8.49937387307108       -0.00000205303867        0.00006203359436
C            7.80469978964528       -0.46495405910920       -1.10448410043435
C            6.42085403564111       -0.46552836621637       -1.10555626583791
C            5.71699396483145        0.00000127213331        0.00001751607331
C            4.23452856870943        0.00000065250632       -0.00000589724751
C            3.53846159762583       -1.12112218251205        0.46964299539830
C            4.21658246501734       -2.27259037609136        0.95052237970230
C            3.52983927177945       -3.35848573931387        1.39917782844577
C            2.11956247752368       -3.36134877021198        1.39315882247959
C            1.43171714749411       -2.27728363839921        0.94177965217652
C            2.10855282251161       -1.12167365927095        0.46905138704815
C            1.41286032661436        0.00000465238595       -0.00002651870703
C           -0.06875536572320        0.00000799656562       -0.00003127465817
C           -0.77466946536461       -0.32314114843691       -1.15447272151701
C           -2.15644624005949       -0.32115466302609       -1.15898602652123
C           -2.85703100950733        0.00000787113564       -0.00002461421021
N           -4.26180464345771        0.00000288983522       -0.00001651539546
C           -5.06923444475838        1.04025008078152        0.41296071202745
C           -4.71877508819104        2.30391109410214        0.86793701325274
C           -5.73771965185083        3.17609367740247        1.19999575784501
C           -7.07718393089253        2.81004065268636        1.07907260952856
C           -7.43230798112763        1.56243048795096        0.60588237705087
C           -6.42581116824849        0.66789759048727        0.26396143793138
C           -6.42581166383903       -0.66791457173561       -0.26393079060159
C           -7.43230933161455       -1.56245760950898       -0.60582259808346
C           -7.07718640417319       -2.81006279190537       -1.07902690675188
C           -5.73772190675278       -3.17610052147513       -1.19999341252620
C           -4.71877648368882       -2.30390814684159       -0.86796268735483
C           -5.06923532469850       -1.04025240890639       -0.41297147701904
C           -2.15644029311518        0.32117232251263        1.15893276608144
C           -0.77466416002107        0.32315807140944        1.15441340327815
C            2.10856286593084        1.12168262947202       -0.46909038449717
C            1.43173575442032        2.27729476928321       -0.94182802100184
C            2.11958743724442        3.36135388017484       -1.39320441965462
C            3.52986437314254        3.35848967328735       -1.39920045511207
C            4.21660139660954        2.27258816260760       -0.95054267391272
C            3.53847180574803        1.12112161555142       -0.46967358379438
C            6.42082042468658        0.46553108855483        1.10561340193198
C            7.80466645515295        0.46495238511019        1.10458602769866
H            9.57972185562223       -0.00000692038214        0.00008025557218
H            8.34249461756520       -0.82882027708921       -1.96829916649146
H            5.87629242116402       -0.82799809321851       -1.96616948978327
H            5.29693173098231       -2.26839536064081        0.95172045744641
H            4.05879647469994       -4.22793018036613        1.76204343942074
H            1.59124722685692       -4.23382085390195        1.74979978885993
H            0.35143505312769       -2.27893809825636        0.93510552451317
H           -0.23271330463553       -0.57199123771609       -2.05543056974099
H           -2.69965583918061       -0.55735513862328       -2.06203805128221
H           -3.68434172323725        2.60115438424962        0.95266754939202
H           -5.49091799013287        4.16466950332843        1.55951229957126
H           -7.84515725661279        3.51888369421164        1.35249987663744
H           -8.47049515653328        1.28509166146103        0.49869601567492
H           -8.47049615856316       -1.28513019085589       -0.49860333730041
H           -7.84516051298540       -3.51891343750495       -1.35243230977948
H           -5.49092056747639       -4.16467214055394       -1.55952174717313
H           -3.68434257622070       -2.60114003030978       -0.95272641974787
H           -2.69964552892104        0.55737239255182        2.06198739623270
H           -0.23270337851170        0.57200666645240        2.05536909936309
H            0.35145398907425        2.27894404582281       -0.93518988764347
H            1.59127792131609        4.23382755548070       -1.74985023292844
H            4.05882716889368        4.22793290565839       -1.76206072378850
H            5.29695102861864        2.26839808168395       -0.95170425611017
H            5.87623226173104        0.82800299191491        1.96620885674108
H            8.34243494704276        0.82881326666644        1.96841985563877

          :  Hamiltonian                  GFN2-xTB          :
         :: gradient norm              0.000057302855 Eh/a0 ::
         :: HOMO-LUMO gap              2.182964768898 eV    ::
         :: SCC energy               -98.998015255347 Eh    ::
         :: -> dispersion             -0.089523360191 Eh    ::
         :: -> Gsolv                  -0.039212203228 Eh    ::
         :: repulsion energy           1.887223240487 Eh    ::

    * Orbital Energies and Occupations

         #    Occupation            Energy/Eh            Energy/eV
      -------------------------------------------------------------
         1        2.0000           -0.6751414             -18.3715
       ...           ...                  ...                  ...
        79        2.0000           -0.4179752             -11.3737
        80        2.0000           -0.4177697             -11.3681
        81        2.0000           -0.4132774             -11.2459
        82        2.0000           -0.4067734             -11.0689
        83        2.0000           -0.4048734             -11.0172
        84        2.0000           -0.4046377             -11.0108
        85        2.0000           -0.4039584             -10.9923
        86        2.0000           -0.4031942             -10.9715
        87        2.0000           -0.3992192             -10.8633
        88        2.0000           -0.3962089             -10.7814
        89        2.0000           -0.3777740             -10.2798
        90        2.0000           -0.3615463              -9.8382
        91        2.0000           -0.3593971              -9.7797 (HOMO)
        92                         -0.2791746              -7.5967 (LUMO)
        93                         -0.2452723              -6.6742
        94                         -0.2332993              -6.3484
        95                         -0.2324940              -6.3265
        96                         -0.2305591              -6.2738
        97                         -0.2237670              -6.0890
        98                         -0.2236686              -6.0863
        99                         -0.2211822              -6.0187
       100                         -0.2203802              -5.9969
       101                         -0.1901067              -5.1731
       102                         -0.1853799              -5.0444
       ...                                ...                  ...
       181                          0.7452744              20.2799
      -------------------------------------------------------------
                  HL-Gap            0.0802225 Eh            2.1830 eV

     #   Z          covCN         q      C6AA      α(0)
     1   6 C        2.920    -0.033    28.816     8.803
     2   6 C        2.919    -0.030    28.756     8.794
     3   6 C        2.924    -0.033    28.814     8.803
     4   6 C        2.977     0.016    27.651     8.626
     5   6 C        2.977    -0.006    28.157     8.704
     6   6 C        2.984     0.006    27.890     8.663
     7   6 C        2.917    -0.034    28.847     8.807
     8   6 C        2.914    -0.031    28.767     8.795
     9   6 C        2.914    -0.031    28.761     8.794
    10   6 C        2.917    -0.035    28.868     8.811
    11   6 C        2.984     0.006    27.888     8.663
    12   6 C        2.977    -0.007    28.180     8.708
    13   6 C        2.976     0.015    27.674     8.629
    14   6 C        2.924    -0.031    28.776     8.797
    15   6 C        2.921    -0.042    29.053     8.839
    16   6 C        2.912     0.062    26.617     8.460
    17   7 N        2.802    -0.048    22.161     6.992
    18   6 C        3.076     0.048    26.853     8.496
    19   6 C        2.909    -0.052    29.292     8.875
    20   6 C        2.924    -0.035    28.879     8.813
    21   6 C        2.919    -0.043    29.071     8.842
    22   6 C        2.912    -0.035    28.874     8.811
    23   6 C        3.067    -0.019    28.416     8.741
    24   6 C        3.067    -0.019    28.416     8.741
    25   6 C        2.912    -0.035    28.874     8.811
    26   6 C        2.919    -0.043    29.071     8.842
    27   6 C        2.924    -0.035    28.879     8.813
    28   6 C        2.909    -0.052    29.292     8.875
    29   6 C        3.076     0.048    26.853     8.496
    30   6 C        2.921    -0.042    29.053     8.839
    31   6 C        2.924    -0.031    28.776     8.797
    32   6 C        2.984     0.006    27.888     8.663
    33   6 C        2.917    -0.035    28.868     8.811
    34   6 C        2.914    -0.031    28.761     8.794
    35   6 C        2.914    -0.031    28.767     8.795
    36   6 C        2.917    -0.034    28.847     8.807
    37   6 C        2.984     0.006    27.890     8.663
    38   6 C        2.924    -0.033    28.814     8.803
    39   6 C        2.919    -0.030    28.756     8.794
    40   1 H        0.926     0.031     2.577     2.510
    41   1 H        0.926     0.031     2.566     2.505
    42   1 H        0.926     0.029     2.601     2.522
    43   1 H        0.926     0.031     2.575     2.509
    44   1 H        0.926     0.030     2.581     2.512
    45   1 H        0.926     0.031     2.579     2.511
    46   1 H        0.926     0.030     2.582     2.513
    47   1 H        0.926     0.038     2.470     2.458
    48   1 H        0.926     0.042     2.424     2.435
    49   1 H        0.926     0.029     2.601     2.522
    50   1 H        0.926     0.029     2.596     2.520
    51   1 H        0.926     0.027     2.630     2.536
    52   1 H        0.926     0.029     2.597     2.520
    53   1 H        0.926     0.029     2.597     2.520
    54   1 H        0.926     0.027     2.630     2.536
    55   1 H        0.926     0.029     2.596     2.520
    56   1 H        0.926     0.029     2.601     2.522
    57   1 H        0.926     0.042     2.424     2.435
    58   1 H        0.926     0.038     2.470     2.458
    59   1 H        0.926     0.030     2.582     2.513
    60   1 H        0.926     0.031     2.579     2.511
    61   1 H        0.926     0.030     2.581     2.512
    62   1 H        0.926     0.031     2.575     2.509
    63   1 H        0.926     0.029     2.601     2.522
    64   1 H        0.926     0.031     2.566     2.505

molecular dipole:
                 x           y           z       tot (Debye)
 q only:        0.793      -0.000      -0.000
   full:        0.835      -0.000      -0.000       2.122

 projected vibrational frequencies (cm⁻¹)
eigval :       -0.00    -0.00     0.00     0.00     0.00     0.00
eigval :      -28.00    -2.65     6.32    14.58    37.47    53.71
eigval :       64.99    66.67    73.81    78.63    99.80   101.84
eigval :      112.63   141.06   170.26   179.27   197.53   209.61
eigval :      216.98   220.38   231.90   260.31   269.29   319.03
eigval :      347.58   362.57   375.46   377.49   388.75   396.68
eigval :      397.72   408.53   416.45   427.32   442.85   443.18
eigval :      443.69   456.20   466.47   501.35   518.84   528.37
eigval :      539.23   575.29   577.35   583.93   585.18   590.57
eigval :      592.15   606.67   615.48   618.10   637.76   663.84
eigval :      670.36   671.48   690.79   696.98   700.62   706.15
eigval :      739.03   741.57   752.66   757.28   766.19   769.83
eigval :      771.75   777.64   818.10   865.82   870.11   870.75
eigval :      871.99   872.64   880.35   892.20   898.12   899.47
eigval :      899.61   901.03   901.11   910.54   914.46   914.86
eigval :      917.75   918.29   922.60   923.57   923.83   923.89
eigval :      927.48   932.57   933.29   951.51   994.87  1011.58
eigval :     1023.06  1069.45  1072.60  1076.94  1077.86  1080.68
eigval :     1115.17  1115.56  1130.19  1133.62  1143.85  1151.01
eigval :     1174.08  1178.44  1179.43  1180.56  1181.83  1182.50
eigval :     1191.48  1195.42  1212.31  1220.04  1225.95  1236.05
eigval :     1243.75  1256.03  1262.42  1264.36  1276.49  1298.54
eigval :     1300.14  1307.50  1308.02  1324.40  1347.75  1354.11
eigval :     1359.25  1360.41  1377.24  1383.77  1401.19  1418.02
eigval :     1425.98  1427.34  1427.93  1429.47  1445.00  1468.91
eigval :     1474.30  1486.62  1489.44  1499.97  1524.95  1532.06
eigval :     1542.83  1560.17  1572.75  1578.51  1586.82  1596.53
eigval :     1597.13  1598.50  1606.83  1613.05  1621.58  3066.42
eigval :     3066.46  3068.90  3068.92  3070.53  3070.81  3073.43
eigval :     3074.10  3074.28  3076.35  3077.02  3077.12  3077.74
eigval :     3078.78  3082.24  3082.46  3084.99  3085.99  3087.42
eigval :     3088.04  3089.48  3089.78  3091.86  3091.91  3094.15

   temp. (K)  partition function   enthalpy   heat capacity  entropy
                                   cal/mol     cal/K/mol   cal/K/mol   J/K/mol
 298.15  VIB  0.204E+14            16620.060    110.679    104.095
         ROT  0.229E+08              888.752      2.981     36.655
         INT  0.466E+21            17508.813    113.660    140.750
         TR   0.107E+29             1481.254      4.968     44.469
         TOT                       18990.0664   118.6285   185.2187   774.9551

       T/K    H(0)-H(T)+PV         H(T)/Eh          T*S/Eh         G(T)/Eh
   ------------------------------------------------------------------------
    298.15    0.302626E-01    0.525025E+00    0.880034E-01    0.437022E+00
   ------------------------------------------------------------------------

         :::::::::::::::::::::::::::::::::::::::::::::::::::::
         ::                  THERMODYNAMIC                  ::
         :::::::::::::::::::::::::::::::::::::::::::::::::::::
         :: total free energy         -96.673770112978 Eh   ::
         ::.................................................::
         :: total energy              -97.110792015199 Eh   ::
         :: zero point energy           0.494762697234 Eh   ::
         :: G(RRHO) w/o ZPVE           -0.057740795013 Eh   ::
         :: G(RRHO) contrib.            0.437021902221 Eh   ::
         :::::::::::::::::::::::::::::::::::::::::::::::::::::

           -------------------------------------------------
          | TOTAL ENERGY              -97.110792015199 Eh   |
          | TOTAL ENTHALPY            -96.585766720790 Eh   |
          | TOTAL FREE ENERGY         -96.673770112978 Eh   |
          | GRADIENT NORM               0.000057296400 Eh/α |
          | HOMO-LUMO GAP               2.182964890568 eV   |
           -------------------------------------------------

 * finished run on 2025/09/12 at 03:57:02.186
