   * xtb version 6.7.1 (edcfbbe) compiled by 'albert@albert-system' on 2024-07-22

   ID    Z sym.   atoms
    1    6 C      1-16, 18-39
    2    7 N      17
    3    1 H      40-64

          program call               : xtb data2507/toluene/PhPC/PhPC_toluene_T1_crest.xyz --gfn 2 --uhf 2 --gbsa toluene --ohess vtight --parallel 40 --molden --ceasefiles --namespace data2507/toluene/PhPC/PhPC_toluene_T1_finalOpt
      * Solvation model:               GBSA
        Solvent                        toluene
        Solvent mass                       9.2140E+01 g/mol
          :  Hamiltonian                  GFN2-xTB          :
 * total energy  :   -97.0422494 Eh     change       -0.5316707E-09 Eh
 * total energy  :   -97.0422744 Eh     change       -0.2495627E-04 Eh
 * total energy  :   -97.0422871 Eh     change       -0.1269623E-04 Eh
 * total energy  :   -97.0422923 Eh     change       -0.5227284E-05 Eh
 * total energy  :   -97.0422965 Eh     change       -0.4193609E-05 Eh
 * total energy  :   -97.0422994 Eh     change       -0.2888176E-05 Eh
 * total energy  :   -97.0423031 Eh     change       -0.3722677E-05 Eh
 * total energy  :   -97.0423077 Eh     change       -0.4572172E-05 Eh
 * total energy  :   -97.0423104 Eh     change       -0.2768308E-05 Eh
 * total energy  :   -97.0423114 Eh     change       -0.9604444E-06 Eh
 * total energy  :   -97.0423163 Eh     change       -0.7489752E-06 Eh
 * total energy  :   -97.0423169 Eh     change       -0.6014027E-06 Eh
 * total energy  :   -97.0423174 Eh     change       -0.4329607E-06 Eh
 * total energy  :   -97.0423175 Eh     change       -0.1353352E-06 Eh
 * total energy  :   -97.0423177 Eh     change       -0.2172684E-06 Eh
 * total energy  :   -97.0423177 Eh     change        0.2021619E-07 Eh
 * total energy  :   -97.0423178 Eh     change       -0.1111658E-06 Eh
 * total energy  :   -97.0423178 Eh     change        0.2637884E-07 Eh
 * total energy  :   -97.0423178 Eh     change       -0.7622063E-07 Eh
   *** GEOMETRY OPTIMIZATION CONVERGED AFTER 27 ITERATIONS ***

 final structure:
================
64
 xtb: 6.7.1 (edcfbbe)
C            8.60809613276723        0.00031233683152       -0.02487688479639
C            7.90383787086268        0.63455104702747       -1.03660463650230
C            6.52235953017299        0.64030873727133       -1.02639047085132
C            5.81240181427055       -0.00118109755766       -0.00750240151551
C            4.34876061995219       -0.00171374087060        0.00069212109625
C            3.63958610738337       -1.23954656596482       -0.01152662360512
C            4.30536201136385       -2.46701248811704       -0.09849473085734
C            3.61820138059933       -3.67587663954907       -0.01756529311142
C            2.25204672644923       -3.67491724835815        0.16538703345411
C            1.55819583194862       -2.46643379137834        0.20075232757503
C            2.21321455320362       -1.24076148256050        0.05282340813284
C            1.49888864567942       -0.00151216921141        0.00914719265743
C            0.04478748404881       -0.00213746097984        0.00894416559280
C           -0.67956436413613       -0.75974781506363       -0.92274431626620
C           -2.05630506085627       -0.75149231853275       -0.93489759993972
C           -2.76565901073154       -0.00152247265763        0.00420174398477
N           -4.16512119016415       -0.00021707463519        0.00053546129289
C           -4.97305212651405        1.11975864823120        0.04315149924209
C           -4.62394054862746        2.46335658321939        0.04778757142700
C           -5.64378327568740        3.39610629947316        0.06467830246673
C           -6.98266482159406        3.01032356403812        0.06672374693789
C           -7.33689405973565        1.67546904231068        0.03519366521950
C           -6.32957265853220        0.71984538323965        0.01789333539966
C           -6.33068303877744       -0.71612156592674       -0.03852254593293
C           -7.33955134774513       -1.66986150143282       -0.06657952976631
C           -6.98749531271922       -3.00536630226068       -0.09493564242377
C           -5.64942540069074       -3.39367976097546       -0.07917388502013
C           -4.62809250292098       -2.46283692724727       -0.05140335217852
C           -4.97475233687633       -1.11858706639010       -0.05021809808981
C           -2.05920886691850        0.74727572257343        0.94633768639588
C           -0.68232412764592        0.75486279193443        0.93891700766831
C            2.21287616218737        1.23781274239881       -0.03624524696787
C            1.55755563694304        2.46399911452792       -0.17873616569015
C            2.25203320263254        3.67216742036138       -0.14541395144174
C            3.61920136524319        3.67243207475221        0.02975826720391
C            4.30635280680291        2.46317479011012        0.10456922044630
C            3.63961385629148        1.23611529707343        0.01970587350593
C            6.53553751279901       -0.64183250728272        1.00253771306749
C            7.91707374709915       -0.63460435051405        0.99548637118847
H            9.68824241171268        0.00082527825270       -0.03153470520778
H            8.43550061220857        1.12569719330801       -1.83927924804608
H            5.97621692081233        1.12108808569060       -1.82572890155993
H            5.37628018621385       -2.47987495165437       -0.23241507443435
H            4.16441372311860       -4.60550248678798       -0.08225139927010
H            1.71037420583807       -4.60354376209844        0.27020782552917
H            0.49009112771962       -2.48350491649048        0.35393850739918
H           -0.14272953160947       -1.31996186339906       -1.67423185913241
H           -2.59570912377130       -1.30586119659672       -1.68861345039001
H           -3.59048657345075        2.77427017606232        0.02764705778876
H           -5.39708374267545        4.44789964299918        0.07211840103863
H           -7.75110243994626        3.76929318593141        0.08302679403813
H           -8.37457745656350        1.37720001928576        0.01911874247335
H           -8.37679378662225       -1.36969019340616       -0.06110961981170
H           -7.75714677976369       -3.76287995542306       -0.11953649000289
H           -5.40460896915546       -4.44592511492434       -0.08432657916836
H           -3.59545647757648       -2.77561638684788       -0.02069492142077
H           -2.60096648152016        1.30171058232589        1.69832856113988
H           -0.14785149170643        1.31430293563760        1.69266608408173
H            0.48869350149739        2.48177369501422       -0.32631776814017
H            1.71008050410849        4.60112830766595       -0.24576153761605
H            4.16611491307966        4.60175794489980        0.09278067779124
H            5.37810940427739        2.47531454237985        0.23182297294906
H            6.00001632408405       -1.12313609082848        1.80871350640875
H            8.45921580456231       -1.12507178530350        1.79153540326378

          :  Hamiltonian                  GFN2-xTB          :
         :: gradient norm              0.000033760405 Eh/a0 ::
         :: HOMO-LUMO gap              1.072141567011 eV    ::
         :: SCC energy               -98.910025800019 Eh    ::
         :: -> dispersion             -0.089969211221 Eh    ::
         :: -> Gsolv                  -0.038670076124 Eh    ::
         :: repulsion energy           1.867707950279 Eh    ::

    * Orbital Energies and Occupations

         #    Occupation            Energy/Eh            Energy/eV
      -------------------------------------------------------------
         1        2.0000           -0.6780930             -18.4518
       ...           ...                  ...                  ...
        80        2.0000           -0.4164499             -11.3322
        81        2.0000           -0.4136723             -11.2566
        82        2.0000           -0.4073517             -11.0846
        83        2.0000           -0.4060610             -11.0495
        84        2.0000           -0.4040563             -10.9949
        85        2.0000           -0.4034546             -10.9786
        86        2.0000           -0.3992880             -10.8652
        87        2.0000           -0.3956952             -10.7674
        88        2.0000           -0.3952623             -10.7556
        89        2.0000           -0.3803895             -10.3509
        90        1.9999           -0.3648441              -9.9279
        91        1.0001           -0.3475146              -9.4564
        92        1.0000           -0.2869456              -7.8082 (HOMO)
        93                         -0.2475452              -6.7360 (LUMO)
        94                         -0.2347045              -6.3866
        95                         -0.2299202              -6.2564
        96                         -0.2258503              -6.1457
        97                         -0.2251452              -6.1265
        98                         -0.2238603              -6.0915
        99                         -0.2228877              -6.0651
       100                         -0.2198966              -5.9837
       101                         -0.1937986              -5.2735
       102                         -0.1878493              -5.1116
       103                         -0.1730529              -4.7090
       ...                                ...                  ...
       181                          0.7425458              20.2057
      -------------------------------------------------------------
                  HL-Gap            0.0394004 Eh            1.0721 eV

     #   Z          covCN         q      C6AA      α(0)
     1   6 C        2.919    -0.033    28.822     8.804
     2   6 C        2.917    -0.031    28.770     8.796
     3   6 C        2.924    -0.033    28.811     8.802
     4   6 C        2.974     0.015    27.668     8.628
     5   6 C        2.973    -0.013    28.326     8.730
     6   6 C        2.977     0.008    27.846     8.656
     7   6 C        2.921    -0.040    28.985     8.829
     8   6 C        2.913    -0.033    28.821     8.803
     9   6 C        2.914    -0.033    28.830     8.805
    10   6 C        2.921    -0.041    29.008     8.832
    11   6 C        2.976     0.007    27.851     8.657
    12   6 C        2.971    -0.014    28.351     8.734
    13   6 C        2.972     0.014    27.698     8.633
    14   6 C        2.923    -0.032    28.791     8.799
    15   6 C        2.918    -0.043    29.079     8.843
    16   6 C        2.912     0.059    26.668     8.468
    17   7 N        2.801    -0.039    21.985     6.964
    18   6 C        3.074     0.047    26.868     8.499
    19   6 C        2.910    -0.050    29.242     8.867
    20   6 C        2.923    -0.035    28.859     8.810
    21   6 C        2.920    -0.041    29.021     8.834
    22   6 C        2.912    -0.034    28.848     8.807
    23   6 C        3.067    -0.017    28.373     8.734
    24   6 C        3.066    -0.017    28.374     8.735
    25   6 C        2.912    -0.034    28.848     8.807
    26   6 C        2.920    -0.041    29.021     8.834
    27   6 C        2.923    -0.035    28.859     8.810
    28   6 C        2.910    -0.050    29.242     8.867
    29   6 C        3.074     0.047    26.868     8.499
    30   6 C        2.918    -0.043    29.079     8.843
    31   6 C        2.923    -0.032    28.792     8.799
    32   6 C        2.976     0.007    27.850     8.657
    33   6 C        2.921    -0.041    29.009     8.832
    34   6 C        2.914    -0.033    28.829     8.805
    35   6 C        2.913    -0.033    28.821     8.803
    36   6 C        2.921    -0.040    28.984     8.829
    37   6 C        2.977     0.008    27.847     8.656
    38   6 C        2.924    -0.033    28.812     8.802
    39   6 C        2.917    -0.031    28.770     8.796
    40   1 H        0.926     0.030     2.585     2.514
    41   1 H        0.926     0.031     2.572     2.508
    42   1 H        0.926     0.031     2.572     2.508
    43   1 H        0.926     0.031     2.573     2.508
    44   1 H        0.926     0.028     2.616     2.529
    45   1 H        0.926     0.028     2.611     2.527
    46   1 H        0.926     0.032     2.558     2.501
    47   1 H        0.926     0.041     2.431     2.438
    48   1 H        0.926     0.042     2.421     2.433
    49   1 H        0.926     0.032     2.556     2.500
    50   1 H        0.926     0.032     2.563     2.504
    51   1 H        0.926     0.030     2.592     2.518
    52   1 H        0.926     0.032     2.560     2.502
    53   1 H        0.926     0.032     2.560     2.502
    54   1 H        0.926     0.030     2.592     2.518
    55   1 H        0.926     0.032     2.563     2.504
    56   1 H        0.926     0.032     2.556     2.500
    57   1 H        0.926     0.042     2.421     2.433
    58   1 H        0.926     0.041     2.431     2.438
    59   1 H        0.926     0.032     2.557     2.501
    60   1 H        0.926     0.028     2.611     2.527
    61   1 H        0.926     0.028     2.616     2.529
    62   1 H        0.926     0.031     2.574     2.509
    63   1 H        0.926     0.031     2.571     2.508
    64   1 H        0.926     0.031     2.572     2.508

molecular dipole:
                 x           y           z       tot (Debye)
 q only:        0.051      -0.000       0.001
   full:        0.114      -0.000       0.000       0.290

 projected vibrational frequencies (cm⁻¹)
eigval :       -0.00    -0.00     0.00     0.00     0.00     0.00
eigval :       14.23    18.42    20.21    37.56    54.85    55.90
eigval :       70.39    74.43    84.48    89.52   105.16   112.32
eigval :      136.35   150.63   177.40   194.24   203.78   215.28
eigval :      223.58   236.54   248.89   266.41   270.04   318.45
eigval :      343.77   365.87   370.52   377.77   386.37   393.06
eigval :      394.45   402.94   415.01   419.06   423.66   430.74
eigval :      445.27   468.80   472.09   499.54   518.01   536.99
eigval :      539.67   565.42   574.01   577.13   582.14   584.28
eigval :      587.67   596.08   608.86   617.92   622.92   657.02
eigval :      672.17   672.82   673.69   690.63   700.70   708.37
eigval :      715.01   738.11   745.89   755.88   756.58   759.84
eigval :      769.94   780.52   819.00   842.87   845.92   864.32
eigval :      874.08   875.91   882.49   886.85   891.36   892.33
eigval :      896.74   897.66   901.32   902.45   903.80   904.46
eigval :      907.15   908.73   921.73   922.56   930.06   931.40
eigval :      934.52   937.06   944.53   947.86   991.02  1010.81
eigval :     1016.77  1068.70  1072.24  1082.02  1101.87  1104.65
eigval :     1113.15  1114.80  1120.10  1126.91  1133.12  1149.46
eigval :     1173.20  1178.65  1179.11  1180.51  1181.72  1181.89
eigval :     1185.18  1196.60  1202.65  1205.70  1230.59  1233.28
eigval :     1242.21  1255.07  1263.45  1275.40  1283.08  1295.61
eigval :     1295.72  1300.29  1300.55  1310.09  1311.75  1336.29
eigval :     1355.48  1357.38  1359.16  1362.32  1373.99  1374.44
eigval :     1408.67  1408.86  1420.68  1423.76  1423.90  1424.02
eigval :     1460.71  1470.23  1472.84  1481.25  1484.99  1485.71
eigval :     1522.48  1523.02  1528.02  1551.85  1560.68  1570.58
eigval :     1571.64  1583.10  1585.69  1592.88  1608.71  3065.94
eigval :     3066.51  3070.56  3070.69  3071.87  3072.17  3075.24
eigval :     3077.05  3077.91  3078.13  3078.21  3078.99  3079.59
eigval :     3079.79  3086.18  3087.09  3087.45  3088.93  3090.96
eigval :     3091.52  3091.98  3092.69  3094.25  3094.52  3096.18

   temp. (K)  partition function   enthalpy   heat capacity  entropy
                                   cal/mol     cal/K/mol   cal/K/mol   J/K/mol
 298.15  VIB  0.184E+13            17006.009    113.159    103.674
         ROT  0.230E+08              888.752      2.981     36.666
         INT  0.423E+20            17894.761    116.140    140.340
         TR   0.107E+29             1481.254      4.968     44.469
         TOT                       19376.0150   121.1077   184.8088   773.2401

       T/K    H(0)-H(T)+PV         H(T)/Eh          T*S/Eh         G(T)/Eh
   ------------------------------------------------------------------------
    298.15    0.308776E-01    0.524008E+00    0.878086E-01    0.436199E+00
   ------------------------------------------------------------------------

         :::::::::::::::::::::::::::::::::::::::::::::::::::::
         ::                  THERMODYNAMIC                  ::
         :::::::::::::::::::::::::::::::::::::::::::::::::::::
         :: total free energy         -96.606118614066 Eh   ::
         ::.................................................::
         :: total energy              -97.042317849031 Eh   ::
         :: zero point energy           0.493130218958 Eh   ::
         :: G(RRHO) w/o ZPVE           -0.056930983993 Eh   ::
         :: G(RRHO) contrib.            0.436199234965 Eh   ::
         :::::::::::::::::::::::::::::::::::::::::::::::::::::

           -------------------------------------------------
          | TOTAL ENERGY              -97.042317849031 Eh   |
          | TOTAL ENTHALPY            -96.518309984650 Eh   |
          | TOTAL FREE ENERGY         -96.606118614066 Eh   |
          | GRADIENT NORM               0.000033840048 Eh/α |
          | HOMO-LUMO GAP               1.072139191770 eV   |
           -------------------------------------------------

 * finished run on 2025/09/12 at 04:02:34.023
