   * xtb version 6.7.1 (edcfbbe) compiled by 'albert@albert-system' on 2024-07-22

   ID    Z sym.   atoms
    1    8 O      1, 3
    2   16 S      2
    3    6 C      4-40
    4    1 H      41-64

          program call               : xtb data2507/toluene/PSPSF/PSPSF_toluene_T1_crest.xyz --gfn 2 --uhf 2 --gbsa toluene --ohess vtight --parallel 40 --molden --ceasefiles --namespace data2507/toluene/PSPSF/PSPSF_toluene_T1_finalOpt
      * Solvation model:               GBSA
        Solvent                        toluene
        Solvent mass                       9.2140E+01 g/mol
          :  Hamiltonian                  GFN2-xTB          :
 * total energy  :  -102.7865211 Eh     change       -0.9659544E-09 Eh
 * total energy  :  -102.7866783 Eh     change       -0.1571627E-03 Eh
 * total energy  :  -102.7867652 Eh     change       -0.8690147E-04 Eh
 * total energy  :  -102.7867750 Eh     change       -0.9851084E-05 Eh
 * total energy  :  -102.7867873 Eh     change       -0.1222857E-04 Eh
 * total energy  :  -102.7867915 Eh     change       -0.4284197E-05 Eh
 * total energy  :  -102.7867999 Eh     change       -0.8336380E-05 Eh
 * total energy  :  -102.7868036 Eh     change       -0.3705196E-05 Eh
 * total energy  :  -102.7868110 Eh     change       -0.7425125E-05 Eh
 * total energy  :  -102.7868144 Eh     change       -0.3370803E-05 Eh
 * total energy  :  -102.7868236 Eh     change       -0.2437930E-05 Eh
 * total energy  :  -102.7868256 Eh     change       -0.1946430E-05 Eh
 * total energy  :  -102.7868272 Eh     change       -0.1600925E-05 Eh
 * total energy  :  -102.7868285 Eh     change       -0.1330208E-05 Eh
 * total energy  :  -102.7868300 Eh     change       -0.1474355E-05 Eh
 * total energy  :  -102.7868317 Eh     change       -0.1696356E-05 Eh
 * total energy  :  -102.7868329 Eh     change       -0.1204129E-05 Eh
 * total energy  :  -102.7868338 Eh     change       -0.9264457E-06 Eh
 * total energy  :  -102.7868338 Eh     change       -0.1018857E-07 Eh
   *** GEOMETRY OPTIMIZATION CONVERGED AFTER 22 ITERATIONS ***

 final structure:
================
64
 xtb: 6.7.1 (edcfbbe)
O            5.78335039736767        2.11532841988369        1.17646473915328
S            5.73708811833765        0.66502164141605        1.14000472322265
O            6.40669230191031       -0.03890946774545        2.21849722632338
C            6.43797758765506        0.11265249151845       -0.41847091167129
C            6.32449289244475        0.92235399608266       -1.53341099732766
C            6.80829695475205        0.46974623466911       -2.74946393628628
C            7.39112606579323       -0.78573649615961       -2.83755610258806
C            7.49871873264417       -1.58972284228564       -1.71259070162257
C            7.01629506321231       -1.14065713693193       -0.49458052883398
C            4.04991189727061        0.13364074207607        1.04917640027324
C            3.70687427980324       -1.15981577436110        1.44827862707782
C            2.42458630168130       -1.60865826224250        1.29748573245339
C            1.40149485202174       -0.78317912949167        0.73379114044114
C            0.07308173785455       -1.24107087756411        0.56866839202955
C           -0.25640961470575       -2.64653568141399        0.62886412686851
C           -1.51546021002470       -3.11673731603034        0.44925206672512
C           -2.57726775592171       -2.20541616413875        0.20575277254528
C           -2.27089348925215       -0.79837248690449        0.15495012346493
C           -1.01427057584337       -0.33123264960503        0.32061070531383
C           -3.53712770805332       -0.01478289146540       -0.10260273202433
C           -3.46678953500909        0.85516328363778       -1.33572420882678
C           -3.19457194889373        0.48021745789190       -2.63384052598627
C           -3.18314254042595        1.46117151470203       -3.61651600585770
C           -3.44203167453618        2.78776485991094       -3.30030757486717
C           -3.71457959151797        3.16909748301335       -1.99629640049704
C           -3.72463775059227        2.19608039994848       -1.00911275312854
C           -3.96419801020543        2.28474638134775        0.42205508198301
C           -4.25375670138398        3.36956036557401        1.23482167990611
C           -4.43101236067900        3.15269341803360        2.59182804872268
C           -4.32184230683971        1.87814041092207        3.13079454708411
C           -4.03135934353214        0.78642898639711        2.32333196005265
C           -3.85459128988025        0.99803409131161        0.97300424427711
C           -4.56856438832141       -1.11208716216377       -0.20429414642737
C           -5.91271925068252       -1.00521801426484       -0.44104690425105
C           -6.68027977198569       -2.17151699879061       -0.49043024273218
C           -6.09148581379149       -3.42651084582972       -0.30071831013650
C           -4.74474330404530       -3.55397539451280       -0.06206354673002
C           -3.95150771748040       -2.38804146953862       -0.01026375393794
C            1.79594218837048        0.53534866039759        0.34431425018804
C            3.08365782961348        0.97075769500114        0.48761265569435
H            5.87722765389948        1.89815177954072       -1.42565188059753
H            6.73144838564045        1.09557758242222       -3.62567091199777
H            7.76682905748134       -1.13791249423090       -3.78647196299314
H            7.95812769456070       -2.56399378379655       -1.78329543405387
H            7.09451492444777       -1.73294647757535        0.40380286483109
H            4.47138811895433       -1.77466183067923        1.89788107753059
H            2.17877275311081       -2.59462550842863        1.65578854937732
H            0.54248323843991       -3.35313414649943        0.78273432461667
H           -1.71990156186882       -4.17634886543058        0.48248168881633
H           -0.83342213150493        0.73129106312428        0.30438713957758
H           -2.99356562739358       -0.55199628827249       -2.88146969717140
H           -2.97067261999246        1.18860031137510       -4.63994421010397
H           -3.42956038256457        3.53262207181176       -4.08288574699775
H           -3.91399821757050        4.20273573722442       -1.75580927719214
H           -4.33968320131043        4.36319658995882        0.82088248169924
H           -4.65772626913277        3.98624518958635        3.24082568899671
H           -4.46347226234831        1.73389569188026        4.19192686742702
H           -3.94552413145410       -0.20467589995006        2.74476197429993
H           -6.37481409825829       -0.03969817178870       -0.58729322220839
H           -7.74134282303854       -2.10409482696281       -0.67605136944030
H           -6.71439434664368       -4.30825696825401       -0.34440811644510
H           -4.29265495206966       -4.52290463146497        0.08372109517476
H            1.07610599865435        1.19399045728735       -0.11296601083872
H            3.37999008993540        1.96496759932821        0.19024475822458

          :  Hamiltonian                  GFN2-xTB          :
         :: gradient norm              0.000072606852 Eh/a0 ::
         :: HOMO-LUMO gap              0.879661299679 eV    ::
         :: SCC energy              -104.615259151541 Eh    ::
         :: -> dispersion             -0.090564211718 Eh    ::
         :: -> Gsolv                  -0.053339805465 Eh    ::
         :: repulsion energy           1.828425324081 Eh    ::

    * Orbital Energies and Occupations

         #    Occupation            Energy/Eh            Energy/eV
      -------------------------------------------------------------
         1        2.0000           -0.7663627             -20.8538
       ...           ...                  ...                  ...
        84        2.0000           -0.4223726             -11.4933
        85        2.0000           -0.4214648             -11.4686
        86        2.0000           -0.4203641             -11.4387
        87        2.0000           -0.4195029             -11.4153
        88        2.0000           -0.4159193             -11.3177
        89        2.0000           -0.4124600             -11.2236
        90        2.0000           -0.4062222             -11.0539
        91        2.0000           -0.4046905             -11.0122
        92        2.0000           -0.4006074             -10.9011
        93        2.0000           -0.3994330             -10.8691
        94        1.9975           -0.3852342             -10.4828
        95        1.0025           -0.3738485             -10.1729
        96        1.0000           -0.2893522              -7.8737 (HOMO)
        97                         -0.2570253              -6.9940 (LUMO)
        98                         -0.2555356              -6.9535
        99                         -0.2408892              -6.5549
       100                         -0.2398191              -6.5258
       101                         -0.2317427              -6.3060
       102                         -0.2309851              -6.2854
       103                         -0.2302231              -6.2647
       104                         -0.2274146              -6.1883
       105                         -0.2198404              -5.9822
       106                         -0.1950983              -5.3089
       107                         -0.1937428              -5.2720
       ...                                ...                  ...
       189                          1.1562173              31.4623
      -------------------------------------------------------------
                  HL-Gap            0.0323268 Eh            0.8797 eV

     #   Z          covCN         q      C6AA      α(0)
     1   8 O        0.860    -0.585    25.758     6.805
     2  16 S        3.819     0.911   109.233    17.590
     3   8 O        0.860    -0.585    25.751     6.804
     4   6 C        2.971    -0.071    29.774     8.950
     5   6 C        2.957    -0.026    28.660     8.781
     6   6 C        2.921    -0.023    28.577     8.766
     7   6 C        2.920    -0.024    28.603     8.770
     8   6 C        2.921    -0.023    28.578     8.767
     9   6 C        2.956    -0.026    28.655     8.780
    10   6 C        2.968    -0.086    30.161     9.008
    11   6 C        2.949    -0.031    28.775     8.798
    12   6 C        2.919    -0.033    28.821     8.804
    13   6 C        2.966     0.009    27.814     8.651
    14   6 C        2.968     0.017    27.623     8.621
    15   6 C        2.914    -0.035    28.864     8.810
    16   6 C        2.902    -0.030    28.749     8.791
    17   6 C        3.031     0.003    27.917     8.667
    18   6 C        3.038     0.013    27.682     8.630
    19   6 C        2.908    -0.041    29.026     8.834
    20   6 C        3.971     0.009    20.346     6.409
    21   6 C        3.054     0.006    27.831     8.652
    22   6 C        2.913    -0.033    28.817     8.803
    23   6 C        2.922    -0.030    28.757     8.794
    24   6 C        2.921    -0.031    28.773     8.796
    25   6 C        2.914    -0.033    28.829     8.804
    26   6 C        3.035     0.003    27.924     8.668
    27   6 C        3.035     0.003    27.928     8.668
    28   6 C        2.914    -0.033    28.828     8.804
    29   6 C        2.921    -0.031    28.774     8.797
    30   6 C        2.923    -0.030    28.756     8.794
    31   6 C        2.913    -0.033    28.817     8.803
    32   6 C        3.054     0.006    27.831     8.652
    33   6 C        3.054     0.013    27.664     8.626
    34   6 C        2.908    -0.031    28.773     8.796
    35   6 C        2.921    -0.026    28.651     8.778
    36   6 C        2.914    -0.027    28.665     8.779
    37   6 C        2.909    -0.033    28.824     8.803
    38   6 C        3.027     0.011    27.743     8.640
    39   6 C        2.920    -0.032    28.805     8.801
    40   6 C        2.948    -0.031    28.761     8.796
    41   1 H        0.926     0.051     2.311     2.377
    42   1 H        0.926     0.059     2.214     2.327
    43   1 H        0.926     0.060     2.196     2.317
    44   1 H        0.926     0.059     2.214     2.327
    45   1 H        0.926     0.052     2.301     2.372
    46   1 H        0.926     0.044     2.395     2.420
    47   1 H        0.926     0.056     2.246     2.344
    48   1 H        0.926     0.047     2.361     2.403
    49   1 H        0.926     0.045     2.384     2.414
    50   1 H        0.926     0.037     2.483     2.464
    51   1 H        0.926     0.032     2.562     2.503
    52   1 H        0.926     0.036     2.497     2.471
    53   1 H        0.926     0.036     2.500     2.473
    54   1 H        0.926     0.037     2.488     2.466
    55   1 H        0.926     0.037     2.485     2.465
    56   1 H        0.926     0.036     2.506     2.475
    57   1 H        0.926     0.036     2.507     2.476
    58   1 H        0.926     0.031     2.570     2.507
    59   1 H        0.926     0.035     2.518     2.482
    60   1 H        0.926     0.041     2.430     2.438
    61   1 H        0.926     0.041     2.433     2.439
    62   1 H        0.926     0.043     2.411     2.428
    63   1 H        0.926     0.054     2.270     2.356
    64   1 H        0.926     0.044     2.399     2.422

molecular dipole:
                 x           y           z       tot (Debye)
 q only:       -3.878      -1.845      -2.506
   full:       -3.744      -1.715      -2.365      12.070

 projected vibrational frequencies (cm⁻¹)
eigval :       -0.00    -0.00    -0.00     0.00     0.00     0.00
eigval :        8.79    10.54    20.81    26.04    32.79    38.88
eigval :       44.18    54.44    61.29    71.11    84.32   104.59
eigval :      118.86   129.78   138.85   141.18   146.36   171.75
eigval :      176.43   220.65   222.61   230.58   245.64   262.63
eigval :      285.63   289.03   303.82   332.42   340.01   355.45
eigval :      362.77   364.61   383.17   387.16   397.11   410.61
eigval :      413.17   427.54   439.26   441.71   456.40   462.03
eigval :      478.04   498.87   501.31   518.40   527.47   531.71
eigval :      539.22   584.47   587.45   588.16   598.45   601.40
eigval :      606.47   635.08   641.44   655.29   667.69   677.38
eigval :      687.64   689.48   697.17   715.88   732.03   743.00
eigval :      747.58   750.79   762.40   777.26   782.69   783.84
eigval :      788.62   809.26   834.48   842.88   876.56   877.66
eigval :      878.09   890.47   896.30   899.47   901.59   903.02
eigval :      904.26   909.45   910.97   911.07   913.20   914.59
eigval :      925.47   926.33   927.84   928.65   955.79   966.31
eigval :      976.08  1005.67  1006.72  1051.89  1054.76  1063.21
eigval :     1068.96  1071.45  1076.37  1089.07  1101.50  1110.86
eigval :     1118.97  1126.45  1137.33  1141.37  1157.80  1162.30
eigval :     1174.56  1174.62  1175.36  1176.63  1176.79  1178.57
eigval :     1201.27  1206.11  1213.97  1222.69  1240.66  1251.06
eigval :     1252.76  1258.49  1258.57  1274.18  1282.78  1308.68
eigval :     1319.78  1325.60  1327.31  1334.90  1344.17  1360.69
eigval :     1362.13  1380.51  1406.48  1413.17  1418.26  1424.08
eigval :     1427.15  1431.85  1440.16  1455.98  1459.00  1464.12
eigval :     1468.35  1498.88  1524.51  1560.06  1568.18  1572.91
eigval :     1577.71  1588.28  1589.65  1593.97  1598.23  1625.60
eigval :     3072.00  3072.31  3075.31  3076.08  3076.56  3076.88
eigval :     3082.91  3083.13  3083.51  3084.26  3087.79  3090.33
eigval :     3090.74  3091.10  3091.50  3091.87  3095.66  3096.99
eigval :     3101.27  3102.02  3103.65  3107.46  3111.97  3115.12

   temp. (K)  partition function   enthalpy   heat capacity  entropy
                                   cal/mol     cal/K/mol   cal/K/mol   J/K/mol
 298.15  VIB  0.686E+15            18703.288    118.082    116.394
         ROT  0.562E+08              888.752      2.981     38.441
         INT  0.385E+23            19592.040    121.063    154.835
         TR   0.119E+29             1481.254      4.968     44.684
         TOT                       21073.2938   126.0308   199.5189   834.7871

       T/K    H(0)-H(T)+PV         H(T)/Eh          T*S/Eh         G(T)/Eh
   ------------------------------------------------------------------------
    298.15    0.335824E-01    0.511966E+00    0.947979E-01    0.417168E+00
   ------------------------------------------------------------------------

         :::::::::::::::::::::::::::::::::::::::::::::::::::::
         ::                  THERMODYNAMIC                  ::
         :::::::::::::::::::::::::::::::::::::::::::::::::::::
         :: total free energy        -102.369666016321 Eh   ::
         ::.................................................::
         :: total energy             -102.786833824625 Eh   ::
         :: zero point energy           0.478383245375 Eh   ::
         :: G(RRHO) w/o ZPVE           -0.061215437072 Eh   ::
         :: G(RRHO) contrib.            0.417167808304 Eh   ::
         :::::::::::::::::::::::::::::::::::::::::::::::::::::

           -------------------------------------------------
          | TOTAL ENERGY             -102.786833824625 Eh   |
          | TOTAL ENTHALPY           -102.274868147988 Eh   |
          | TOTAL FREE ENERGY        -102.369666016321 Eh   |
          | GRADIENT NORM               0.000072631487 Eh/α |
          | HOMO-LUMO GAP               0.879658143724 eV   |
           -------------------------------------------------

 * finished run on 2025/07/18 at 11:38:30.941
