   * xtb version 6.7.1 (edcfbbe) compiled by 'albert@albert-system' on 2024-07-22

   ID    Z sym.   atoms
    1    8 O      1, 3
    2   16 S      2
    3    6 C      4-40
    4    1 H      41-64

          program call               : xtb data2507/toluene/PSPSF/PSPSF.xyz --gfn 2 --gbsa toluene --ohess vtight --parallel 40 --molden --ceasefiles --namespace data2507/toluene/PSPSF/PSPSF_toluene_S0_preOpt
      * Solvation model:               GBSA
        Solvent                        toluene
        Solvent mass                       9.2140E+01 g/mol
          :  Hamiltonian                  GFN2-xTB          :
 * total energy  :  -102.8733468 Eh     change       -0.6214833E-09 Eh
 * total energy  :  -102.8806753 Eh     change       -0.7328503E-02 Eh
 * total energy  :  -102.8820295 Eh     change       -0.1354175E-02 Eh
 * total energy  :  -102.8823839 Eh     change       -0.3544280E-03 Eh
 * total energy  :  -102.8825764 Eh     change       -0.1924732E-03 Eh
 * total energy  :  -102.8826483 Eh     change       -0.7190533E-04 Eh
 * total energy  :  -102.8827285 Eh     change       -0.8019931E-04 Eh
 * total energy  :  -102.8827890 Eh     change       -0.6047516E-04 Eh
 * total energy  :  -102.8828570 Eh     change       -0.6803489E-04 Eh
 * total energy  :  -102.8829233 Eh     change       -0.6632686E-04 Eh
 * total energy  :  -102.8831525 Eh     change       -0.3974334E-05 Eh
 * total energy  :  -102.8831546 Eh     change       -0.2080762E-05 Eh
 * total energy  :  -102.8831562 Eh     change       -0.1625696E-05 Eh
 * total energy  :  -102.8831579 Eh     change       -0.1704433E-05 Eh
 * total energy  :  -102.8831592 Eh     change       -0.1288388E-05 Eh
 * total energy  :  -102.8831598 Eh     change       -0.5252544E-06 Eh
 * total energy  :  -102.8831602 Eh     change       -0.4725398E-06 Eh
 * total energy  :  -102.8831609 Eh     change       -0.6408480E-06 Eh
 * total energy  :  -102.8831609 Eh     change       -0.7028063E-08 Eh
   *** GEOMETRY OPTIMIZATION CONVERGED AFTER 44 ITERATIONS ***

 final structure:
================
64
 xtb: 6.7.1 (edcfbbe)
O            6.41786929265143        0.41692899008095       -2.91339180831577
S            5.91897811865376        1.03081323544885       -1.69924598694822
O            5.88545261231917        2.47908893747665       -1.66336093405667
C            6.89352663687856        0.44208308889198       -0.31008595106694
C            7.10484935342672        1.27264454639523        0.77328501716274
C            7.81665425286282        0.79423372031811        1.86164321245548
C            8.30191290710180       -0.50450349240496        1.85203801056411
C            8.08394113791148       -1.32812426017216        0.75775654267376
C            7.37246467131562       -0.85391626775184       -0.33219925961545
C            4.27277758749607        0.40335358682514       -1.36771048729334
C            3.84978868169500       -0.76572096653965       -1.97096174674208
C            2.59616559811141       -1.26709494656065       -1.67349745614464
C            1.76145761121810       -0.60395199589869       -0.77233344537012
C            0.42873328482962       -1.13738532861312       -0.45512876734394
C            0.24407782007671       -2.50917475506115       -0.27238295195988
C           -0.99845781233926       -3.03665615165469        0.03097667010116
C           -2.07938313375120       -2.17688933125199        0.14692148215438
C           -1.89924309031828       -0.79701595574938       -0.03540504170015
C           -0.66261545944408       -0.27263209221015       -0.33057981525662
C           -3.20677742289350       -0.06299549082827        0.14189377996479
C           -3.61305871233036        0.75549539269427       -1.06098286139938
C           -3.81185175828126        0.33118585780025       -2.35677215898271
C           -4.19608837815539        1.26747921124860       -3.30795910497618
C           -4.37605405903807        2.59863323924810       -2.96217853379254
C           -4.17585292236519        3.02903046574865       -1.65990577772320
C           -3.79266575480635        2.10051565268561       -0.70559193362893
C           -3.51643854946310        2.24308318726315        0.71598095161164
C           -3.55297843629167        3.35056846843375        1.54791027672296
C           -3.24007213216659        3.18493279967371        2.88812177514497
C           -2.89574186491747        1.93865892948154        3.39035328149630
C           -2.85675563176196        0.82411804800799        2.56237498807285
C           -3.16812542549966        0.98519774217529        1.22972255135374
C           -4.15862694658463       -1.19693895829086        0.44295064920056
C           -5.51190882163055       -1.13421065115546        0.69439514921160
C           -6.19342138471938       -2.31762318044050        0.94762002486312
C           -5.52812225418517       -3.53500766149337        0.94794955435593
C           -4.16691653764951       -3.60210652006930        0.69663909216453
C           -3.48054929349907       -2.42525413707481        0.44239882085797
C            2.21111451092432        0.57657482040696       -0.17754168193717
C            3.46546206749445        1.07764357381380       -0.47054056183942
H            6.72333911198675        2.28121605624215        0.73897941663902
H            7.99286926500562        1.43431341714976        2.71262984322142
H            8.85657401555153       -0.87601024675355        2.70055204640193
H            8.46844868840973       -2.33658328043771        0.75185724016374
H            7.19580298206967       -1.46278685801587       -1.20489240895471
H            4.50301960153149       -1.25316740898156       -2.67796216392320
H            2.25183992029056       -2.16788073972731       -2.15812415654114
H            1.09637510144680       -3.16807621504696       -0.34704341944854
H           -1.12044720138337       -4.09977147749135        0.17493898973472
H           -0.53967370416910        0.78858741578061       -0.48920438367071
H           -3.67314694842503       -0.70579051824499       -2.62701201850591
H           -4.35779778338091        0.95457239100245       -4.32928157937436
H           -4.67641329803309        3.30896967072099       -3.71907124642619
H           -4.31756483106043        4.06675508196076       -1.39622262235755
H           -3.82114152954493        4.32309613580372        1.16222530770390
H           -3.26524029324275        4.03767341286073        3.55143333907542
H           -2.65638910338817        1.83270983927610        4.43852409779827
H           -2.59001162489804       -0.14651944487436        2.95510155796645
H           -6.03100827075132       -0.18651128602910        0.69396705365875
H           -7.25505955279757       -2.28920999313799        1.14572365060718
H           -6.07993571458585       -4.44239034259153        1.14719594770017
H           -3.65361270665667       -4.55221674610919        0.69803375535717
H            1.58000706962999        1.09188450596421        0.53053998215700
H            3.82564844351253        1.99207627978458       -0.02606079302143

          :  Hamiltonian                  GFN2-xTB          :
         :: gradient norm              0.000063411996 Eh/a0 ::
         :: HOMO-LUMO gap              2.841832788956 eV    ::
         :: SCC energy              -104.731199686213 Eh    ::
         :: -> dispersion             -0.090627848686 Eh    ::
         :: -> Gsolv                  -0.051258162244 Eh    ::
         :: repulsion energy           1.848038813860 Eh    ::

    * Orbital Energies and Occupations

         #    Occupation            Energy/Eh            Energy/eV
      -------------------------------------------------------------
         1        2.0000           -0.7734070             -21.0455
       ...           ...                  ...                  ...
        83        2.0000           -0.4251743             -11.5696
        84        2.0000           -0.4232808             -11.5181
        85        2.0000           -0.4228394             -11.5060
        86        2.0000           -0.4213153             -11.4646
        87        2.0000           -0.4164714             -11.3328
        88        2.0000           -0.4138307             -11.2609
        89        2.0000           -0.4133804             -11.2487
        90        2.0000           -0.4055655             -11.0360
        91        2.0000           -0.4025430             -10.9538
        92        2.0000           -0.3976394             -10.8203
        93        2.0000           -0.3962538             -10.7826
        94        2.0000           -0.3836697             -10.4402
        95        2.0000           -0.3785444             -10.3007 (HOMO)
        96                         -0.2741090              -7.4589 (LUMO)
        97                         -0.2564848              -6.9793
        98                         -0.2532365              -6.8909
        99                         -0.2449385              -6.6651
       100                         -0.2429735              -6.6116
       101                         -0.2388900              -6.5005
       102                         -0.2290869              -6.2338
       103                         -0.2268616              -6.1732
       104                         -0.2266084              -6.1663
       105                         -0.2180914              -5.9346
       106                         -0.1918150              -5.2196
       ...                                ...                  ...
       189                          1.1611333              31.5960
      -------------------------------------------------------------
                  HL-Gap            0.1044354 Eh            2.8418 eV

     #   Z          covCN         q      C6AA      α(0)
     1   8 O        0.860    -0.579    25.618     6.786
     2  16 S        3.818     0.930   108.683    17.546
     3   8 O        0.860    -0.580    25.633     6.788
     4   6 C        2.972    -0.071    29.772     8.950
     5   6 C        2.955    -0.025    28.614     8.774
     6   6 C        2.921    -0.021    28.543     8.761
     7   6 C        2.920    -0.021    28.537     8.760
     8   6 C        2.921    -0.021    28.541     8.761
     9   6 C        2.958    -0.026    28.641     8.778
    10   6 C        2.971    -0.076    29.882     8.967
    11   6 C        2.953    -0.026    28.646     8.779
    12   6 C        2.926    -0.029    28.718     8.788
    13   6 C        2.976     0.023    27.486     8.600
    14   6 C        2.979     0.008    27.825     8.653
    15   6 C        2.925    -0.036    28.904     8.817
    16   6 C        2.913    -0.034    28.837     8.806
    17   6 C        3.036     0.002    27.940     8.670
    18   6 C        3.052     0.007    27.803     8.648
    19   6 C        2.918    -0.037    28.912     8.817
    20   6 C        3.977     0.009    20.348     6.409
    21   6 C        3.055     0.006    27.845     8.654
    22   6 C        2.913    -0.034    28.841     8.806
    23   6 C        2.923    -0.032    28.807     8.802
    24   6 C        2.921    -0.033    28.826     8.804
    25   6 C        2.914    -0.035    28.861     8.809
    26   6 C        3.035     0.000    27.987     8.677
    27   6 C        3.035     0.000    27.983     8.677
    28   6 C        2.914    -0.035    28.859     8.809
    29   6 C        2.921    -0.033    28.825     8.804
    30   6 C        2.923    -0.032    28.810     8.802
    31   6 C        2.913    -0.034    28.843     8.807
    32   6 C        3.055     0.006    27.842     8.653
    33   6 C        3.056     0.007    27.815     8.649
    34   6 C        2.913    -0.033    28.823     8.804
    35   6 C        2.923    -0.031    28.785     8.798
    36   6 C        2.921    -0.033    28.817     8.803
    37   6 C        2.914    -0.034    28.845     8.807
    38   6 C        3.035     0.001    27.968     8.674
    39   6 C        2.926    -0.028    28.700     8.786
    40   6 C        2.957    -0.027    28.670     8.782
    41   1 H        0.926     0.056     2.249     2.345
    42   1 H        0.926     0.062     2.178     2.308
    43   1 H        0.926     0.063     2.160     2.298
    44   1 H        0.926     0.062     2.174     2.306
    45   1 H        0.926     0.054     2.267     2.354
    46   1 H        0.926     0.056     2.249     2.345
    47   1 H        0.926     0.062     2.178     2.308
    48   1 H        0.926     0.042     2.417     2.431
    49   1 H        0.926     0.041     2.436     2.441
    50   1 H        0.926     0.035     2.522     2.484
    51   1 H        0.926     0.028     2.609     2.526
    52   1 H        0.926     0.033     2.550     2.497
    53   1 H        0.926     0.033     2.549     2.497
    54   1 H        0.926     0.034     2.532     2.488
    55   1 H        0.926     0.034     2.534     2.489
    56   1 H        0.926     0.033     2.543     2.494
    57   1 H        0.926     0.033     2.539     2.492
    58   1 H        0.926     0.029     2.600     2.521
    59   1 H        0.926     0.028     2.613     2.528
    60   1 H        0.926     0.033     2.537     2.491
    61   1 H        0.926     0.034     2.526     2.486
    62   1 H        0.926     0.036     2.497     2.471
    63   1 H        0.926     0.060     2.195     2.317
    64   1 H        0.926     0.053     2.283     2.363

molecular dipole:
                 x           y           z       tot (Debye)
 q only:       -1.300      -1.844       2.488
   full:       -1.242      -1.701       2.330       7.983

 projected vibrational frequencies (cm⁻¹)
eigval :       -0.00    -0.00    -0.00     0.00     0.00     0.00
eigval :        3.70    16.77    20.41    25.82    31.72    38.16
eigval :       46.35    47.69    63.38    82.49    85.30   113.79
eigval :      124.57   133.18   137.24   144.55   156.86   167.59
eigval :      195.75   221.83   233.74   233.99   260.19   284.95
eigval :      288.63   304.13   325.77   342.35   350.16   365.66
eigval :      369.82   372.14   386.70   398.48   413.87   414.77
eigval :      419.33   436.23   454.57   469.26   475.16   481.86
eigval :      493.55   505.49   515.70   529.22   538.27   542.10
eigval :      571.97   584.46   589.85   597.48   604.17   618.35
eigval :      627.00   640.26   659.06   678.39   686.07   688.96
eigval :      693.84   704.25   708.18   730.33   740.64   749.18
eigval :      753.28   766.55   775.79   785.16   803.37   809.68
eigval :      837.27   874.61   875.53   878.75   879.47   880.06
eigval :      886.88   900.41   906.66   907.45   909.92   912.25
eigval :      915.20   918.82   919.03   927.13   927.67   927.95
eigval :      928.24   929.91   931.23   941.73   965.80   993.04
eigval :     1007.69  1009.89  1064.77  1068.74  1071.01  1073.65
eigval :     1075.41  1077.06  1079.59  1101.39  1114.13  1119.22
eigval :     1120.42  1132.94  1142.83  1152.87  1169.23  1173.53
eigval :     1175.02  1175.40  1176.33  1180.11  1183.03  1185.79
eigval :     1196.70  1207.79  1222.96  1225.58  1245.20  1251.79
eigval :     1257.53  1258.21  1259.95  1275.36  1282.94  1301.80
eigval :     1318.52  1321.93  1324.35  1324.67  1359.99  1364.16
eigval :     1388.59  1420.43  1426.86  1426.93  1429.71  1430.24
eigval :     1441.31  1445.81  1460.28  1461.24  1469.71  1481.18
eigval :     1569.22  1572.14  1573.24  1578.63  1583.53  1591.65
eigval :     1594.14  1595.56  1595.86  1601.68  1602.50  1602.66
eigval :     3069.33  3069.69  3069.99  3073.69  3074.20  3074.87
eigval :     3079.51  3080.74  3081.48  3081.84  3082.95  3085.59
eigval :     3088.37  3089.16  3090.16  3090.33  3090.83  3090.93
eigval :     3092.31  3097.12  3101.43  3102.61  3103.72  3105.55

   temp. (K)  partition function   enthalpy   heat capacity  entropy
                                   cal/mol     cal/K/mol   cal/K/mol   J/K/mol
 298.15  VIB  0.529E+15            18269.831    115.831    113.935
         ROT  0.565E+08              888.752      2.981     38.454
         INT  0.299E+23            19158.583    118.812    152.389
         TR   0.119E+29             1481.254      4.968     44.684
         TOT                       20639.8370   123.7801   197.0731   824.5540

       T/K    H(0)-H(T)+PV         H(T)/Eh          T*S/Eh         G(T)/Eh
   ------------------------------------------------------------------------
    298.15    0.328917E-01    0.515279E+00    0.936358E-01    0.421643E+00
   ------------------------------------------------------------------------

         :::::::::::::::::::::::::::::::::::::::::::::::::::::
         ::                  THERMODYNAMIC                  ::
         :::::::::::::::::::::::::::::::::::::::::::::::::::::
         :: total free energy        -102.461517715224 Eh   ::
         ::.................................................::
         :: total energy             -102.883160870776 Eh   ::
         :: zero point energy           0.482387284100 Eh   ::
         :: G(RRHO) w/o ZPVE           -0.060744128547 Eh   ::
         :: G(RRHO) contrib.            0.421643155553 Eh   ::
         :::::::::::::::::::::::::::::::::::::::::::::::::::::

           -------------------------------------------------
          | TOTAL ENERGY             -102.883160870776 Eh   |
          | TOTAL ENTHALPY           -102.367881912769 Eh   |
          | TOTAL FREE ENERGY        -102.461517715224 Eh   |
          | GRADIENT NORM               0.000063409726 Eh/α |
          | HOMO-LUMO GAP               2.841832504431 eV   |
           -------------------------------------------------

 * finished run on 2025/07/18 at 11:28:47.702
