   * xtb version 6.7.1 (edcfbbe) compiled by 'albert@albert-system' on 2024-07-22

   ID    Z sym.   atoms
    1    8 O      1, 3
    2   16 S      2
    3    6 C      4-40
    4    1 H      41-64

          program call               : xtb data2507/toluene/PSPSF/PSPSF_toluene_S0_crest.xyz --gfn 2 --gbsa toluene --ohess vtight --parallel 40 --molden --ceasefiles --namespace data2507/toluene/PSPSF/PSPSF_toluene_S0_finalOpt
      * Solvation model:               GBSA
        Solvent                        toluene
        Solvent mass                       9.2140E+01 g/mol
          :  Hamiltonian                  GFN2-xTB          :
 * total energy  :  -102.8829872 Eh     change       -0.4585559E-09 Eh
 * total energy  :  -102.8831033 Eh     change       -0.1161264E-03 Eh
 * total energy  :  -102.8831626 Eh     change       -0.5925087E-04 Eh
 * total energy  :  -102.8831714 Eh     change       -0.8865199E-05 Eh
 * total energy  :  -102.8831805 Eh     change       -0.9070292E-05 Eh
 * total energy  :  -102.8831834 Eh     change       -0.2942936E-05 Eh
 * total energy  :  -102.8831887 Eh     change       -0.5295678E-05 Eh
 * total energy  :  -102.8831913 Eh     change       -0.2562922E-05 Eh
 * total energy  :  -102.8831973 Eh     change       -0.5967916E-05 Eh
 * total energy  :  -102.8832011 Eh     change       -0.3804337E-05 Eh
 * total energy  :  -102.8832092 Eh     change       -0.2092291E-05 Eh
 * total energy  :  -102.8832108 Eh     change       -0.1603707E-05 Eh
 * total energy  :  -102.8832121 Eh     change       -0.1358767E-05 Eh
 * total energy  :  -102.8832133 Eh     change       -0.1228473E-05 Eh
 * total energy  :  -102.8832144 Eh     change       -0.1009598E-05 Eh
 * total energy  :  -102.8832149 Eh     change       -0.5029927E-06 Eh
 * total energy  :  -102.8832151 Eh     change       -0.2606161E-06 Eh
 * total energy  :  -102.8832153 Eh     change       -0.2019530E-06 Eh
 * total energy  :  -102.8832153 Eh     change       -0.1485517E-08 Eh
   *** GEOMETRY OPTIMIZATION CONVERGED AFTER 22 ITERATIONS ***

 final structure:
================
64
 xtb: 6.7.1 (edcfbbe)
O            5.70799824290129        2.45529259687228       -0.37431877098851
S            5.65100766074014        1.29857955587386        0.49672437770916
O            6.07622330928490        1.49271941813606        1.86843329346481
C            6.62773151018020       -0.02345898995839       -0.22806918206517
C            6.52005261629677       -0.25391888491956       -1.58653161759207
C            7.23698330172010       -1.29550869900458       -2.15196549669361
C            8.04489435739648       -2.09156937257111       -1.35363191567702
C            8.14346890744091       -1.85047615948474        0.00796422428896
C            7.42815990964557       -0.80908392200139        0.57771355957075
C            3.98015280520883        0.64972858045298        0.48860143666019
C            3.64661875596591       -0.33821896795643        1.39657171710828
C            2.37651107757962       -0.88231563312929        1.36931414015822
C            1.43550241374393       -0.44338300000323        0.43555571089891
C            0.08674037418035       -1.02726831440138        0.40052928120378
C           -0.08937660968597       -2.40282731978896        0.56239498890932
C           -1.34591336057460       -2.98014362689395        0.51871630223610
C           -2.44897855686536       -2.16560297329588        0.31695643476396
C           -2.27809838878914       -0.78138095856636        0.16144050342819
C           -1.02804958117129       -0.20923617867523        0.19577634999799
C           -3.61071258500215       -0.10135936444736       -0.04346020806088
C           -3.68833572317871        0.68670283951627       -1.33021071564921
C           -3.49198414163061        0.24125927317641       -2.61936915453450
C           -3.61032395099514        1.15375596501776       -3.65991244489516
C           -3.91968408819058        2.48223922347985       -3.40796698262035
C           -4.11875164805485        2.93334450078616       -2.11248606081472
C           -4.00129544969243        2.02890653027403       -1.06936166355321
C           -4.14416938793404        2.19825262266608        0.36882824852280
C           -4.44832960290419        3.31423123171285        1.13156814794231
C           -4.51807023486480        3.17787950008522        2.50915402658660
C           -4.28671872849517        1.95226297257021        3.11603803022673
C           -3.98215109103652        0.82910570774758        2.35779481681542
C           -3.91379618881480        0.96075801599867        0.98780324330576
C           -4.56490459039954       -1.27163562659954        0.00637408630652
C           -5.93634769337762       -1.26499917917727       -0.12737257392272
C           -6.61538764382966       -2.47388714068873       -0.04565522643726
C           -5.93014698538409       -3.66133594156224        0.16643914463527
C           -4.55093206742261       -3.67239667930186        0.30138338798577
C           -3.86683955008777       -2.46981289517577        0.22073651004923
C            1.79542962810276        0.55816949712421       -0.46747603112990
C            3.06705576689713        1.10080665059230       -0.44502572641421
H            5.89145241812999        0.39073623296747       -2.18056518784424
H            7.16607110011784       -1.48440633141165       -3.21219440460898
H            8.60288813221918       -2.90284425284450       -1.79643404169167
H            8.77604400310866       -2.46941815885507        0.62581031926411
H            7.48533649466335       -0.58404180457629        1.63152271698644
H            4.38012188484950       -0.65474902880121        2.12141374529356
H            2.10350792148385       -1.63995138342600        2.08773417317146
H            0.77867374472986       -3.03049425085642        0.69897063802218
H           -1.46124636918624       -4.04718606831464        0.63657207380535
H           -0.90967264822845        0.85913602395322        0.09071272249942
H           -3.25152552104312       -0.79356040833936       -2.81677620675512
H           -3.45980978593951        0.82446282459202       -4.67779150970230
H           -4.00685464547312        3.17433495191209       -4.23327991338580
H           -4.35948057879417        3.96879741474632       -1.92178000829492
H           -4.62894378873671        4.27098213690988        0.66413079225533
H           -4.75523876554047        4.03759083196030        3.11936882377059
H           -4.34548081763376        1.86978860263080        4.19163140434931
H           -3.80409815756905       -0.12543712232977        2.83190361946878
H           -6.47155757604422       -0.34089393081097       -0.29211675132715
H           -7.69076609802938       -2.48886235252542       -0.14821371943473
H           -6.48032253833702       -4.58939186539153        0.22605062725222
H           -4.02189919618779       -4.59940828764408        0.46562367186060
H            1.08089391667633        0.89800829334121       -1.20181455651698
H            3.36616585626388        1.87726845273320       -1.13215042716548

          :  Hamiltonian                  GFN2-xTB          :
         :: gradient norm              0.000030929227 Eh/a0 ::
         :: HOMO-LUMO gap              2.853015821116 eV    ::
         :: SCC energy              -104.731169684121 Eh    ::
         :: -> dispersion             -0.090740445686 Eh    ::
         :: -> Gsolv                  -0.051307899916 Eh    ::
         :: repulsion energy           1.847954362295 Eh    ::

    * Orbital Energies and Occupations

         #    Occupation            Energy/Eh            Energy/eV
      -------------------------------------------------------------
         1        2.0000           -0.7734917             -21.0478
       ...           ...                  ...                  ...
        83        2.0000           -0.4253563             -11.5745
        84        2.0000           -0.4232451             -11.5171
        85        2.0000           -0.4228383             -11.5060
        86        2.0000           -0.4213042             -11.4643
        87        2.0000           -0.4165225             -11.3342
        88        2.0000           -0.4138936             -11.2626
        89        2.0000           -0.4133521             -11.2479
        90        2.0000           -0.4058090             -11.0426
        91        2.0000           -0.4025732             -10.9546
        92        2.0000           -0.3976560             -10.8208
        93        2.0000           -0.3962673             -10.7830
        94        2.0000           -0.3836867             -10.4406
        95        2.0000           -0.3785664             -10.3013 (HOMO)
        96                         -0.2737200              -7.4483 (LUMO)
        97                         -0.2564433              -6.9782
        98                         -0.2532413              -6.8910
        99                         -0.2450871              -6.6692
       100                         -0.2432265              -6.6185
       101                         -0.2393519              -6.5131
       102                         -0.2291486              -6.2355
       103                         -0.2267844              -6.1711
       104                         -0.2266616              -6.1678
       105                         -0.2181159              -5.9352
       106                         -0.1918593              -5.2208
       ...                                ...                  ...
       189                          1.1631434              31.6507
      -------------------------------------------------------------
                  HL-Gap            0.1048464 Eh            2.8530 eV

     #   Z          covCN         q      C6AA      α(0)
     1   8 O        0.860    -0.580    25.637     6.789
     2  16 S        3.819     0.931   108.667    17.545
     3   8 O        0.860    -0.580    25.630     6.788
     4   6 C        2.972    -0.071    29.762     8.949
     5   6 C        2.960    -0.026    28.653     8.780
     6   6 C        2.921    -0.021    28.535     8.760
     7   6 C        2.920    -0.021    28.536     8.760
     8   6 C        2.921    -0.021    28.542     8.761
     9   6 C        2.953    -0.024    28.600     8.772
    10   6 C        2.972    -0.075    29.873     8.965
    11   6 C        2.958    -0.028    28.688     8.785
    12   6 C        2.926    -0.028    28.710     8.787
    13   6 C        2.977     0.023    27.484     8.599
    14   6 C        2.979     0.008    27.825     8.653
    15   6 C        2.925    -0.036    28.905     8.817
    16   6 C        2.913    -0.034    28.836     8.806
    17   6 C        3.036     0.002    27.939     8.670
    18   6 C        3.053     0.008    27.801     8.647
    19   6 C        2.918    -0.037    28.911     8.817
    20   6 C        3.977     0.009    20.348     6.409
    21   6 C        3.055     0.006    27.844     8.654
    22   6 C        2.913    -0.034    28.844     8.807
    23   6 C        2.923    -0.032    28.810     8.802
    24   6 C        2.921    -0.033    28.825     8.804
    25   6 C        2.914    -0.035    28.859     8.809
    26   6 C        3.035     0.000    27.984     8.677
    27   6 C        3.035     0.000    27.987     8.677
    28   6 C        2.914    -0.035    28.861     8.809
    29   6 C        2.921    -0.033    28.826     8.804
    30   6 C        2.923    -0.032    28.807     8.802
    31   6 C        2.913    -0.034    28.841     8.806
    32   6 C        3.054     0.006    27.843     8.654
    33   6 C        3.055     0.007    27.816     8.649
    34   6 C        2.913    -0.033    28.822     8.803
    35   6 C        2.923    -0.031    28.785     8.798
    36   6 C        2.921    -0.033    28.816     8.803
    37   6 C        2.914    -0.034    28.845     8.807
    38   6 C        3.035     0.001    27.967     8.674
    39   6 C        2.926    -0.028    28.702     8.786
    40   6 C        2.952    -0.025    28.628     8.776
    41   1 H        0.926     0.052     2.291     2.367
    42   1 H        0.926     0.062     2.172     2.305
    43   1 H        0.926     0.064     2.157     2.297
    44   1 H        0.926     0.062     2.177     2.307
    45   1 H        0.926     0.057     2.240     2.340
    46   1 H        0.926     0.052     2.291     2.367
    47   1 H        0.926     0.062     2.171     2.304
    48   1 H        0.926     0.043     2.414     2.430
    49   1 H        0.926     0.041     2.434     2.440
    50   1 H        0.926     0.034     2.526     2.486
    51   1 H        0.926     0.029     2.600     2.521
    52   1 H        0.926     0.033     2.541     2.493
    53   1 H        0.926     0.033     2.545     2.495
    54   1 H        0.926     0.034     2.536     2.490
    55   1 H        0.926     0.034     2.533     2.489
    56   1 H        0.926     0.033     2.549     2.497
    57   1 H        0.926     0.033     2.548     2.496
    58   1 H        0.926     0.029     2.606     2.524
    59   1 H        0.926     0.028     2.612     2.528
    60   1 H        0.926     0.033     2.537     2.491
    61   1 H        0.926     0.034     2.526     2.485
    62   1 H        0.926     0.036     2.496     2.471
    63   1 H        0.926     0.060     2.200     2.319
    64   1 H        0.926     0.055     2.253     2.347

molecular dipole:
                 x           y           z       tot (Debye)
 q only:       -1.334      -2.915      -1.033
   full:       -1.271      -2.702      -0.971       7.981

 projected vibrational frequencies (cm⁻¹)
eigval :       -0.00    -0.00     0.00     0.00     0.00     0.00
eigval :        6.77    14.53    20.00    25.45    30.13    35.79
eigval :       44.72    50.92    63.68    76.39    86.28   118.59
eigval :      121.41   129.84   138.35   139.44   155.71   170.07
eigval :      195.53   225.16   232.19   234.04   257.32   283.26
eigval :      286.56   305.58   325.20   342.90   345.67   363.17
eigval :      370.96   374.79   387.04   392.51   412.44   413.96
eigval :      418.06   441.90   455.34   470.27   474.86   482.45
eigval :      493.21   505.07   515.76   528.66   539.28   541.50
eigval :      571.19   584.57   589.86   597.13   604.32   618.52
eigval :      626.43   639.99   657.32   678.42   686.16   688.91
eigval :      693.41   704.23   708.72   730.78   740.98   751.74
eigval :      753.62   767.22   774.76   785.96   803.57   808.40
eigval :      836.28   873.12   877.10   878.25   879.71   882.21
eigval :      885.42   899.42   907.64   909.21   910.30   911.04
eigval :      913.14   919.05   920.03   927.22   927.44   928.29
eigval :      928.45   929.31   934.46   941.45   965.74   993.01
eigval :     1007.45  1009.84  1064.95  1068.75  1070.96  1072.72
eigval :     1076.34  1076.92  1079.08  1102.70  1114.57  1119.83
eigval :     1121.61  1132.84  1141.81  1153.39  1169.60  1174.22
eigval :     1175.71  1175.99  1176.76  1180.15  1184.56  1185.34
eigval :     1196.91  1206.98  1222.81  1225.54  1245.06  1253.13
eigval :     1257.95  1258.75  1260.05  1275.00  1283.81  1301.84
eigval :     1318.54  1321.92  1324.33  1324.78  1360.01  1364.57
eigval :     1388.71  1420.40  1427.32  1427.43  1429.80  1430.20
eigval :     1441.67  1445.98  1460.41  1461.42  1470.17  1481.75
eigval :     1569.35  1572.08  1573.42  1578.80  1583.82  1591.51
eigval :     1594.38  1595.68  1595.89  1601.62  1602.41  1602.63
eigval :     3068.64  3069.60  3069.93  3072.50  3073.76  3073.85
eigval :     3079.30  3080.13  3081.21  3081.56  3083.11  3085.23
eigval :     3088.04  3088.92  3089.49  3090.05  3090.78  3091.06
eigval :     3092.88  3096.55  3100.00  3101.83  3103.38  3104.82

   temp. (K)  partition function   enthalpy   heat capacity  entropy
                                   cal/mol     cal/K/mol   cal/K/mol   J/K/mol
 298.15  VIB  0.407E+15            18290.483    115.771    113.700
         ROT  0.567E+08              888.752      2.981     38.459
         INT  0.231E+23            19179.236    118.751    152.159
         TR   0.119E+29             1481.254      4.968     44.684
         TOT                       20660.4895   123.7196   196.8425   823.5889

       T/K    H(0)-H(T)+PV         H(T)/Eh          T*S/Eh         G(T)/Eh
   ------------------------------------------------------------------------
    298.15    0.329246E-01    0.515276E+00    0.935262E-01    0.421750E+00
   ------------------------------------------------------------------------

         :::::::::::::::::::::::::::::::::::::::::::::::::::::
         ::                  THERMODYNAMIC                  ::
         :::::::::::::::::::::::::::::::::::::::::::::::::::::
         :: total free energy        -102.461465711410 Eh   ::
         ::.................................................::
         :: total energy             -102.883215327907 Eh   ::
         :: zero point energy           0.482351240571 Eh   ::
         :: G(RRHO) w/o ZPVE           -0.060601624074 Eh   ::
         :: G(RRHO) contrib.            0.421749616497 Eh   ::
         :::::::::::::::::::::::::::::::::::::::::::::::::::::

           -------------------------------------------------
          | TOTAL ENERGY             -102.883215327907 Eh   |
          | TOTAL ENTHALPY           -102.367939501512 Eh   |
          | TOTAL FREE ENERGY        -102.461465711410 Eh   |
          | GRADIENT NORM               0.000030919465 Eh/α |
          | HOMO-LUMO GAP               2.853015787051 eV   |
           -------------------------------------------------

 * finished run on 2025/07/18 at 11:33:36.712
