   * xtb version 6.7.1 (edcfbbe) compiled by 'albert@albert-system' on 2024-07-22

   ID    Z sym.   atoms
    1    8 O      1, 3
    2   16 S      2
    3    6 C      4-40
    4    1 H      41-64

          program call               : xtb data2507/toluene/PSPSF/PSPSF_toluene_S0_finalOpt.xtbopt.xyz --gfn 2 --uhf 2 --gbsa toluene --ohess vtight --parallel 40 --molden --ceasefiles --namespace data2507/toluene/PSPSF/PSPSF_toluene_T1_preOpt
      * Solvation model:               GBSA
        Solvent                        toluene
        Solvent mass                       9.2140E+01 g/mol
          :  Hamiltonian                  GFN2-xTB          :
 * total energy  :  -102.7728784 Eh     change       -0.3667751E-08 Eh
 * total energy  :  -102.7815676 Eh     change       -0.8689264E-02 Eh
 * total energy  :  -102.7842035 Eh     change       -0.2635865E-02 Eh
 * total energy  :  -102.7845489 Eh     change       -0.3453814E-03 Eh
 * total energy  :  -102.7851319 Eh     change       -0.5830731E-03 Eh
 * total energy  :  -102.7854619 Eh     change       -0.3300011E-03 Eh
 * total energy  :  -102.7857507 Eh     change       -0.2887522E-03 Eh
 * total energy  :  -102.7859331 Eh     change       -0.1824404E-03 Eh
 * total energy  :  -102.7860393 Eh     change       -0.1061512E-03 Eh
 * total energy  :  -102.7861195 Eh     change       -0.8024817E-04 Eh
 * total energy  :  -102.7867676 Eh     change       -0.6200103E-06 Eh
 * total energy  :  -102.7867681 Eh     change       -0.4898037E-06 Eh
 * total energy  :  -102.7867685 Eh     change       -0.3744198E-06 Eh
 * total energy  :  -102.7867688 Eh     change       -0.3124269E-06 Eh
 * total energy  :  -102.7867691 Eh     change       -0.2786643E-06 Eh
 * total energy  :  -102.7867693 Eh     change       -0.2199852E-06 Eh
 * total energy  :  -102.7867695 Eh     change       -0.1977444E-06 Eh
 * total energy  :  -102.7867697 Eh     change       -0.1384556E-06 Eh
 * total energy  :  -102.7867698 Eh     change       -0.9799039E-07 Eh
   *** GEOMETRY OPTIMIZATION CONVERGED AFTER 167 ITERATIONS ***

 final structure:
================
64
 xtb: 6.7.1 (edcfbbe)
O            5.74496862984126        2.35780499680967        0.63276463613061
S            5.71453287889282        0.95835971379824        1.01700285088064
O            6.33248655264776        0.61570088293553        2.28506990589973
C            6.50954858739559       -0.00391220250842       -0.27504199932492
C            6.27433266860955        0.33160823461348       -1.59568237928696
C            6.84096112439884       -0.43640723085883       -2.59883610769307
C            7.62827410612057       -1.53058158471197       -2.27101209571733
C            7.85621426274216       -1.85813633675419       -0.94316019712071
C            7.29026506297286       -1.09275371042664        0.06339601386686
C            4.03788987084777        0.38643991411538        1.00119261224401
C            3.71751952497350       -0.82146127906386        1.62454892876378
C            2.44573773987135       -1.31715816822735        1.54860394387289
C            1.41252798988682       -0.62525082375494        0.84302204873365
C            0.09519432295337       -1.13409695652380        0.75230471101887
C           -0.19826092486720       -2.52364318747767        1.01573579857726
C           -1.44389417654220       -3.04693944207366        0.90133133359746
C           -2.52698830664922       -2.20662391128248        0.52799409427839
C           -2.25769836538774       -0.81107668573743        0.28830046520734
C           -1.01305841374835       -0.29452366581733        0.38156390091178
C           -3.54457386346142       -0.10200576383112       -0.06575284968555
C           -3.48740571642146        0.63239842733000       -1.38403278152141
C           -3.19816820500853        0.12819768001668       -2.63385414885723
C           -3.20028293249254        0.99962246089242       -3.71498011840975
C           -3.48663052751316        2.34688447164666       -3.54232810931903
C           -3.77723207262990        2.85801626446598       -2.28759691941722
C           -3.77581655611343        1.99461658676921       -1.20323414580291
C           -4.03231303006347        2.22909791901533        0.20828572925041
C           -4.35794409091995        3.38638427510947        0.89813723273380
C           -4.54751684879233        3.31014671172238        2.26857686990775
C           -4.41436883475718        2.10321841435153        2.94115396172652
C           -4.08813545756454        0.93968486974218        2.25713214253533
C           -3.89932968849650        1.01124901244657        0.89380935883939
C           -4.54145862754804       -1.23489220199047       -0.04405466204720
C           -5.88312596919376       -1.20061715055247       -0.31331308103971
C           -6.61697167655946       -2.38606407198020       -0.22098942120261
C           -5.99688076886136       -3.58733301739186        0.14048641314352
C           -4.65195494776473       -3.64208508201379        0.41376670535570
C           -3.89206312677953       -2.45588464574887        0.32374667799581
C            1.78201133516454        0.61121953231167        0.22798358732792
C            3.06074443940011        1.09037702010032        0.29527844388191
H            5.66720901139565        1.19558250562303       -1.81627505893145
H            6.66936567386024       -0.18153391540824       -3.63364008224742
H            8.06908315314987       -2.12837441443835       -3.05461554144082
H            8.47366222054709       -2.70680127364102       -0.69055827331935
H            7.45215415216644       -1.31036036438394        1.10788560096053
H            4.48958159762881       -1.33098817881098        2.18037606968701
H            2.21341684474628       -2.22824688203991        2.07503057868398
H            0.61889251736814       -3.17890757154539        1.26979145641847
H           -1.62211809024208       -4.09616345167857        1.08281004758802
H           -0.85697656698309        0.76000004157142        0.22017608177891
H           -2.97439251118196       -0.91994386377050       -2.76996642777532
H           -2.97563425771997        0.62456112097751       -4.70276158358392
H           -3.48262393142397        3.00519037698175       -4.39911925951115
H           -3.99865438507527        3.90699805592377       -2.15849193501460
H           -4.46215072568571        4.32809072394821        0.38009993583341
H           -4.80210607700266        4.20198172824598        2.82283258410412
H           -4.56590394830701        2.06870833432520        4.01014706995505
H           -3.98431065146131        0.00145154306738        2.78255952520779
H           -6.36900935361676       -0.27669407862369       -0.59171089550591
H           -7.67583012000136       -2.37542030951595       -0.42974026030269
H           -6.59398663233079       -4.48566037635921        0.20277993550000
H           -4.17563739320753       -4.56982873341549        0.69099812293015
H            1.05175027958248        1.16126203655591       -0.34265722767414
H            3.34250140051285        2.02026106431991       -0.17484581201879

          :  Hamiltonian                  GFN2-xTB          :
         :: gradient norm              0.000042672260 Eh/a0 ::
         :: HOMO-LUMO gap              0.869253014762 eV    ::
         :: SCC energy              -104.615007247722 Eh    ::
         :: -> dispersion             -0.090608713324 Eh    ::
         :: -> Gsolv                  -0.053344636751 Eh    ::
         :: repulsion energy           1.828237493929 Eh    ::

    * Orbital Energies and Occupations

         #    Occupation            Energy/Eh            Energy/eV
      -------------------------------------------------------------
         1        2.0000           -0.7664316             -20.8557
       ...           ...                  ...                  ...
        84        2.0000           -0.4224538             -11.4956
        85        2.0000           -0.4214659             -11.4687
        86        2.0000           -0.4202899             -11.4367
        87        2.0000           -0.4195124             -11.4155
        88        2.0000           -0.4162212             -11.3260
        89        2.0000           -0.4123542             -11.2207
        90        2.0000           -0.4062108             -11.0536
        91        2.0000           -0.4046502             -11.0111
        92        2.0000           -0.4007950             -10.9062
        93        2.0000           -0.3994208             -10.8688
        94        1.9975           -0.3852157             -10.4823
        95        1.0025           -0.3738091             -10.1719
        96        1.0000           -0.2889494              -7.8627 (HOMO)
        97                         -0.2570050              -6.9935 (LUMO)
        98                         -0.2552799              -6.9465
        99                         -0.2414209              -6.5694
       100                         -0.2400305              -6.5316
       101                         -0.2318115              -6.3079
       102                         -0.2308837              -6.2827
       103                         -0.2301977              -6.2640
       104                         -0.2274643              -6.1896
       105                         -0.2197715              -5.9803
       106                         -0.1952652              -5.3134
       107                         -0.1937859              -5.2732
       ...                                ...                  ...
       189                          1.1571329              31.4872
      -------------------------------------------------------------
                  HL-Gap            0.0319443 Eh            0.8692 eV

     #   Z          covCN         q      C6AA      α(0)
     1   8 O        0.860    -0.586    25.771     6.806
     2  16 S        3.819     0.912   109.219    17.589
     3   8 O        0.860    -0.585    25.757     6.804
     4   6 C        2.971    -0.071    29.762     8.949
     5   6 C        2.959    -0.027    28.668     8.782
     6   6 C        2.921    -0.023    28.574     8.766
     7   6 C        2.920    -0.024    28.597     8.769
     8   6 C        2.921    -0.023    28.576     8.766
     9   6 C        2.954    -0.025    28.638     8.777
    10   6 C        2.968    -0.086    30.155     9.007
    11   6 C        2.950    -0.032    28.786     8.800
    12   6 C        2.920    -0.033    28.819     8.803
    13   6 C        2.967     0.009    27.813     8.651
    14   6 C        2.968     0.017    27.629     8.622
    15   6 C        2.914    -0.035    28.862     8.810
    16   6 C        2.902    -0.030    28.750     8.792
    17   6 C        3.030     0.003    27.919     8.667
    18   6 C        3.038     0.013    27.680     8.629
    19   6 C        2.908    -0.041    29.025     8.834
    20   6 C        3.971     0.009    20.346     6.409
    21   6 C        3.054     0.006    27.835     8.652
    22   6 C        2.913    -0.033    28.816     8.803
    23   6 C        2.922    -0.030    28.757     8.794
    24   6 C        2.921    -0.031    28.773     8.796
    25   6 C        2.914    -0.033    28.829     8.805
    26   6 C        3.035     0.003    27.924     8.668
    27   6 C        3.035     0.003    27.928     8.668
    28   6 C        2.914    -0.033    28.828     8.804
    29   6 C        2.921    -0.031    28.775     8.797
    30   6 C        2.923    -0.030    28.756     8.794
    31   6 C        2.913    -0.033    28.818     8.803
    32   6 C        3.055     0.006    27.828     8.651
    33   6 C        3.054     0.013    27.667     8.626
    34   6 C        2.908    -0.031    28.774     8.796
    35   6 C        2.921    -0.026    28.654     8.778
    36   6 C        2.914    -0.027    28.665     8.779
    37   6 C        2.909    -0.033    28.826     8.804
    38   6 C        3.027     0.011    27.745     8.640
    39   6 C        2.920    -0.032    28.807     8.802
    40   6 C        2.946    -0.030    28.744     8.793
    41   1 H        0.926     0.049     2.328     2.386
    42   1 H        0.926     0.059     2.209     2.324
    43   1 H        0.926     0.061     2.193     2.316
    44   1 H        0.926     0.059     2.214     2.327
    45   1 H        0.926     0.053     2.287     2.365
    46   1 H        0.926     0.043     2.411     2.428
    47   1 H        0.926     0.056     2.246     2.344
    48   1 H        0.926     0.047     2.361     2.403
    49   1 H        0.926     0.045     2.383     2.414
    50   1 H        0.926     0.037     2.486     2.466
    51   1 H        0.926     0.032     2.561     2.503
    52   1 H        0.926     0.036     2.497     2.471
    53   1 H        0.926     0.036     2.501     2.473
    54   1 H        0.926     0.037     2.489     2.467
    55   1 H        0.926     0.037     2.486     2.465
    56   1 H        0.926     0.036     2.505     2.475
    57   1 H        0.926     0.036     2.506     2.476
    58   1 H        0.926     0.031     2.569     2.507
    59   1 H        0.926     0.035     2.520     2.482
    60   1 H        0.926     0.041     2.431     2.438
    61   1 H        0.926     0.041     2.435     2.440
    62   1 H        0.926     0.043     2.412     2.429
    63   1 H        0.926     0.054     2.272     2.357
    64   1 H        0.926     0.045     2.389     2.417

molecular dipole:
                 x           y           z       tot (Debye)
 q only:       -3.696      -2.540      -1.986
   full:       -3.571      -2.369      -1.877      11.893

 projected vibrational frequencies (cm⁻¹)
eigval :       -0.00    -0.00    -0.00     0.00     0.00     0.00
eigval :       -2.76    10.35    20.73    23.95    25.49    37.26
eigval :       45.09    53.47    61.80    70.67    83.24   104.61
eigval :      120.19   127.97   136.05   142.16   146.28   172.36
eigval :      179.57   220.15   224.13   230.36   245.15   263.58
eigval :      284.66   289.01   304.01   332.19   339.88   355.39
eigval :      361.77   368.77   385.14   388.64   390.19   410.70
eigval :      413.25   432.44   440.22   442.54   455.98   462.98
eigval :      477.40   499.35   501.39   518.43   527.48   532.05
eigval :      538.53   583.72   587.44   588.19   598.39   601.83
eigval :      606.18   635.27   643.99   655.38   668.09   676.91
eigval :      687.28   689.77   697.15   716.12   731.15   743.62
eigval :      747.16   750.76   762.58   777.75   782.49   784.48
eigval :      787.98   812.18   835.34   844.17   876.34   877.25
eigval :      881.15   891.12   892.16   900.04   903.18   903.62
eigval :      904.76   910.00   910.83   911.53   912.84   914.70
eigval :      924.77   925.31   927.15   928.30   955.88   966.16
eigval :      976.63  1005.44  1007.10  1052.33  1055.02  1063.38
eigval :     1068.46  1071.63  1076.35  1088.57  1100.70  1111.56
eigval :     1119.89  1128.21  1137.26  1141.67  1158.37  1162.68
eigval :     1172.04  1175.28  1175.48  1176.14  1177.94  1181.09
eigval :     1200.61  1206.30  1212.87  1222.71  1241.22  1251.09
eigval :     1252.17  1258.72  1259.10  1274.17  1283.40  1307.55
eigval :     1319.27  1325.57  1327.31  1334.74  1343.78  1360.80
eigval :     1362.21  1380.66  1405.09  1412.69  1418.31  1424.31
eigval :     1426.73  1431.14  1440.76  1456.24  1459.28  1464.44
eigval :     1468.83  1498.68  1524.18  1559.91  1568.29  1572.75
eigval :     1577.70  1588.11  1590.12  1594.15  1598.22  1625.82
eigval :     3071.51  3071.99  3075.65  3075.84  3076.16  3079.62
eigval :     3081.98  3082.78  3083.03  3083.89  3086.68  3089.98
eigval :     3090.07  3091.19  3091.35  3091.62  3093.89  3097.16
eigval :     3099.60  3099.97  3102.96  3105.65  3109.39  3112.79

   temp. (K)  partition function   enthalpy   heat capacity  entropy
                                   cal/mol     cal/K/mol   cal/K/mol   J/K/mol
 298.15  VIB  0.312E+16            18721.480    117.907    117.712
         ROT  0.564E+08              888.752      2.981     38.448
         INT  0.176E+24            19610.232    120.888    156.160
         TR   0.119E+29             1481.254      4.968     44.684
         TOT                       21091.4859   125.8557   200.8435   840.3294

       T/K    H(0)-H(T)+PV         H(T)/Eh          T*S/Eh         G(T)/Eh
   ------------------------------------------------------------------------
    298.15    0.336114E-01    0.511959E+00    0.954273E-01    0.416531E+00
   ------------------------------------------------------------------------

         :::::::::::::::::::::::::::::::::::::::::::::::::::::
         ::                  THERMODYNAMIC                  ::
         :::::::::::::::::::::::::::::::::::::::::::::::::::::
         :: total free energy        -102.370238356070 Eh   ::
         ::.................................................::
         :: total energy             -102.786769756404 Eh   ::
         :: zero point energy           0.478347229094 Eh   ::
         :: G(RRHO) w/o ZPVE           -0.061815828759 Eh   ::
         :: G(RRHO) contrib.            0.416531400334 Eh   ::
         :::::::::::::::::::::::::::::::::::::::::::::::::::::

           -------------------------------------------------
          | TOTAL ENERGY             -102.786769756404 Eh   |
          | TOTAL ENTHALPY           -102.274811105134 Eh   |
          | TOTAL FREE ENERGY        -102.370238356070 Eh   |
          | GRADIENT NORM               0.000042616538 Eh/α |
          | HOMO-LUMO GAP               0.869249957289 eV   |
           -------------------------------------------------

 * finished run on 2025/07/18 at 11:33:47.377
