   * xtb version 6.7.1 (edcfbbe) compiled by 'albert@albert-system' on 2024-07-22

   ID    Z sym.   atoms
    1    8 O      1, 28
    2    6 C      2-12, 14-19, 21-26, 29-42
    3    7 N      13
    4   16 S      20
    5   15 P      27
    6    1 H      43-70

          program call               : xtb data2507/toluene/OPDPO/OPDPO_toluene_S0_crest.xyz --gfn 2 --gbsa toluene --ohess vtight --parallel 40 --molden --ceasefiles --namespace data2507/toluene/OPDPO/OPDPO_toluene_S0_finalOpt
      * Solvation model:               GBSA
        Solvent                        toluene
        Solvent mass                       9.2140E+01 g/mol
          :  Hamiltonian                  GFN2-xTB          :
 * total energy  :  -110.3766425 Eh     change       -0.2637279E-08 Eh
 * total energy  :  -110.3768329 Eh     change       -0.1903685E-03 Eh
 * total energy  :  -110.3769270 Eh     change       -0.9412112E-04 Eh
 * total energy  :  -110.3769709 Eh     change       -0.4386662E-04 Eh
 * total energy  :  -110.3770322 Eh     change       -0.6136772E-04 Eh
 * total energy  :  -110.3770837 Eh     change       -0.5149111E-04 Eh
 * total energy  :  -110.3771266 Eh     change       -0.4283275E-04 Eh
 * total energy  :  -110.3771730 Eh     change       -0.4644250E-04 Eh
 * total energy  :  -110.3771951 Eh     change       -0.2206554E-04 Eh
 * total energy  :  -110.3772314 Eh     change       -0.3630129E-04 Eh
 * total energy  :  -110.3797308 Eh     change       -0.8374205E-06 Eh
 * total energy  :  -110.3797315 Eh     change       -0.6946116E-06 Eh
 * total energy  :  -110.3797320 Eh     change       -0.5169083E-06 Eh
 * total energy  :  -110.3797324 Eh     change       -0.3401024E-06 Eh
 * total energy  :  -110.3797326 Eh     change       -0.2524142E-06 Eh
 * total energy  :  -110.3797328 Eh     change       -0.1843820E-06 Eh
 * total energy  :  -110.3797329 Eh     change       -0.1304050E-06 Eh
 * total energy  :  -110.3797330 Eh     change       -0.1113512E-06 Eh
 * total energy  :  -110.3797331 Eh     change       -0.9748403E-07 Eh
   *** GEOMETRY OPTIMIZATION CONVERGED AFTER 118 ITERATIONS ***

 final structure:
================
70
 xtb: 6.7.1 (edcfbbe)
O           -2.66829914266960        3.28510758462116       -1.94059776072214
C           -2.19166060943186        3.26234485430285       -0.82594633554160
C           -1.14920937148929        2.35489348170652       -0.36341941651732
C           -0.67517273655965        1.37793877539485       -1.16228509474354
C            0.42626454156534        0.46224073147133       -0.76990113635430
C            0.72476717967933        0.40706919388193        0.73937590345107
C            0.13741177968768       -0.80774343735338        1.43615341732191
C            0.85546948377622       -1.42324116605103        2.45829339419991
C            0.36892498815365       -2.51941847747822        3.14469778982342
C           -0.87925866251057       -3.02988812202014        2.83218830498409
C           -1.62418934721379       -2.41721153170912        1.84492029679331
C           -1.13611569653056       -1.31113296690621        1.15235855105299
N           -2.00190923459724       -0.72956570611603        0.16969165657952
C           -2.95648223175789        0.17184432984918        0.64319275972055
C           -2.94380592214258        0.56275442916951        1.98318596149891
C           -3.85583993987545        1.47548403387810        2.48166910031322
C           -4.82082131873329        2.02198454660018        1.65653494405938
C           -4.85489870159327        1.64419505356853        0.32617342436744
C           -3.93417956483467        0.73980403631591       -0.17867664027400
S           -4.05360266829167        0.38815965873772       -1.90656493760320
C           -3.04855393237670       -1.06714292230988       -2.02439688487731
C           -3.15597846544997       -1.79755603075917       -3.19777208132237
C           -2.35503962284912       -2.90342542694458       -3.42182582961397
C           -1.44012338121127       -3.27365353579974       -2.45422007315449
C           -1.34316579971162       -2.55773869701848       -1.27357939947884
C           -2.15010135525991       -1.44417321698404       -1.02277009860608
P            2.60152306195146        0.48091195364357        1.01617405190123
O            2.99305452878732        0.98555473288985        2.34537765593354
C            3.32035655613765       -1.15134312347474        0.63214939811640
C            4.38969226720014       -1.53986713398904        1.42998889633296
C            5.01901455240062       -2.75220642589994        1.21178800742947
C            4.57867029829987       -3.58305509629523        0.19411735810102
C            3.51314314007015       -3.19757971526257       -0.60408600173214
C            2.88425554223319       -1.98354567009177       -0.39133147923395
C            3.21153720545067        1.61701663227454       -0.27900335974174
C            3.00666228318754        2.97165020750115       -0.04458279926495
C            3.48462420054960        3.91088695017832       -0.93950188717668
C            4.17849898475313        3.49841024743413       -2.06685778463375
C            4.39700255788604        2.14932069288718       -2.29446938786305
C            3.91495678094329        1.20505286335060       -1.40370081207342
C            0.22674735043580        1.61012781047974        1.48858595174409
C           -0.63023627746072        2.49462176925489        0.98658648243413
H           -2.54057711833565        3.97786481119979       -0.05490077108004
H           -1.06519231758508        1.27686993826440       -2.16602581266046
H            0.21675214232412       -0.53893089994012       -1.15476677504596
H            1.31783501083647        0.81573579673248       -1.30462765158792
H            1.81690332247885       -1.02138946466544        2.73763722588747
H            0.96452791672167       -2.96805997567236        3.92479071238382
H           -1.27501033731322       -3.88433598030414        3.35895117333863
H           -2.61077505638976       -2.78191260118882        1.59645887749995
H           -2.20029211339750        0.15206057122745        2.64720501796076
H           -3.80484772186901        1.75513790357959        3.52294997373619
H           -5.53776001641029        2.73350539110976        2.03540556208332
H           -5.59124722939724        2.05742117564711       -0.34743435215886
H           -3.87024267132879       -1.47255761708708       -3.93912521579886
H           -2.44379711332182       -3.45796502004324       -4.34258769591088
H           -0.79464727268550       -4.12485011474642       -2.60835429067783
H           -0.62621837474827       -2.87188530888507       -0.53081418227035
H            4.71128751934345       -0.87948330411724        2.22396321063330
H            5.84963016758366       -3.04838012446367        1.83528365099333
H            5.06549246103531       -4.53168260309436        0.02290292153820
H            3.17084589041921       -3.84439637019971       -1.39853967641506
H            2.05872281962750       -1.68967499200624       -1.01959168719851
H            2.47618081105887        3.27173672342792        0.84855582438479
H            3.31986760476088        4.96264263638418       -0.75742866703888
H            4.55528779279016        4.23086755497459       -2.76526843787387
H            4.94552876714933        1.82972799085982       -3.16822135556840
H            4.08557355879781        0.15271625438773       -1.58048173855919
H            0.58513416574625        1.69051708881218        2.50609516862444
H           -0.97774705560660        3.33072277201360        1.57547012426016

          :  Hamiltonian                  GFN2-xTB          :
         :: gradient norm              0.000024439766 Eh/a0 ::
         :: HOMO-LUMO gap              1.310846930926 eV    ::
         :: SCC energy              -112.262599847983 Eh    ::
         :: -> dispersion             -0.119930306981 Eh    ::
         :: -> Gsolv                  -0.047037249672 Eh    ::
         :: repulsion energy           1.882866708566 Eh    ::

    * Orbital Energies and Occupations

         #    Occupation            Energy/Eh            Energy/eV
      -------------------------------------------------------------
         1        2.0000           -0.7210724             -19.6214
       ...           ...                  ...                  ...
        90        2.0000           -0.4212143             -11.4618
        91        2.0000           -0.4201811             -11.4337
        92        2.0000           -0.4198571             -11.4249
        93        2.0000           -0.4192906             -11.4095
        94        2.0000           -0.4183853             -11.3848
        95        2.0000           -0.4171557             -11.3514
        96        2.0000           -0.4137913             -11.2598
        97        2.0000           -0.4101546             -11.1609
        98        2.0000           -0.4091652             -11.1340
        99        2.0000           -0.4040425             -10.9946
       100        2.0000           -0.3878732             -10.5546
       101        2.0000           -0.3848110             -10.4712
       102        2.0000           -0.3459574              -9.4140 (HOMO)
       103                         -0.2977845              -8.1031 (LUMO)
       104                         -0.2587355              -7.0406
       105                         -0.2492307              -6.7819
       106                         -0.2472707              -6.7286
       107                         -0.2465407              -6.7087
       108                         -0.2420271              -6.5859
       109                         -0.2386225              -6.4932
       110                         -0.2379226              -6.4742
       111                         -0.2355155              -6.4087
       112                         -0.2331465              -6.3442
       113                         -0.2296189              -6.2482
       ...                                ...                  ...
       206                          1.2300609              33.4717
      -------------------------------------------------------------
                  HL-Gap            0.0481728 Eh            1.3108 eV

     #   Z          covCN         q      C6AA      α(0)
     1   8 O        0.856    -0.388    21.439     6.208
     2   6 C        2.769     0.209    23.567     7.951
     3   6 C        2.955    -0.020    28.506     8.757
     4   6 C        2.907     0.001    28.001     8.677
     5   6 C        3.869    -0.059    21.589     6.607
     6   6 C        3.858     0.029    20.051     6.368
     7   6 C        3.039     0.003    27.919     8.667
     8   6 C        2.944    -0.034    28.858     8.811
     9   6 C        2.919    -0.028    28.703     8.786
    10   6 C        2.918    -0.028    28.695     8.784
    11   6 C        2.925    -0.037    28.913     8.818
    12   6 C        2.936     0.060    26.662     8.468
    13   7 N        2.748    -0.080    22.787     7.090
    14   6 C        2.945     0.060    26.646     8.466
    15   6 C        2.928    -0.059    29.455     8.900
    16   6 C        2.919    -0.035    28.883     8.813
    17   6 C        2.918    -0.041    29.020     8.834
    18   6 C        2.990    -0.042    29.022     8.837
    19   6 C        2.971     0.032    27.289     8.569
    20  16 S        2.137    -0.157   147.700    20.455
    21   6 C        2.970     0.034    27.237     8.561
    22   6 C        2.985    -0.040    28.983     8.831
    23   6 C        2.918    -0.038    28.948     8.823
    24   6 C        2.918    -0.035    28.863     8.810
    25   6 C        2.927    -0.060    29.485     8.905
    26   6 C        2.944     0.060    26.663     8.469
    27  15 P        4.228     0.063   157.469    22.542
    28   8 O        0.808    -0.403    21.764     6.254
    29   6 C        2.919     0.011    27.780     8.643
    30   6 C        3.039    -0.019    28.449     8.748
    31   6 C        2.918    -0.025    28.637     8.775
    32   6 C        2.920    -0.023    28.573     8.766
    33   6 C        2.920    -0.026    28.654     8.778
    34   6 C        2.963    -0.028    28.706     8.788
    35   6 C        2.920     0.008    27.832     8.651
    36   6 C        3.032    -0.018    28.434     8.746
    37   6 C        2.918    -0.025    28.638     8.776
    38   6 C        2.920    -0.023    28.577     8.766
    39   6 C        2.919    -0.026    28.656     8.778
    40   6 C        2.965    -0.028    28.694     8.786
    41   6 C        3.085    -0.022    28.465     8.746
    42   6 C        2.905    -0.040    28.987     8.828
    43   1 H        0.922     0.008     2.928     2.676
    44   1 H        0.925     0.061     2.184     2.311
    45   1 H        0.924     0.067     2.117     2.276
    46   1 H        0.923     0.076     2.021     2.223
    47   1 H        0.927     0.070     2.081     2.256
    48   1 H        0.926     0.050     2.322     2.383
    49   1 H        0.926     0.052     2.297     2.370
    50   1 H        0.926     0.045     2.387     2.416
    51   1 H        0.926     0.036     2.502     2.474
    52   1 H        0.926     0.041     2.429     2.437
    53   1 H        0.926     0.040     2.451     2.448
    54   1 H        0.926     0.037     2.487     2.466
    55   1 H        0.926     0.043     2.411     2.428
    56   1 H        0.926     0.043     2.412     2.428
    57   1 H        0.926     0.044     2.397     2.421
    58   1 H        0.926     0.039     2.461     2.453
    59   1 H        0.925     0.050     2.323     2.383
    60   1 H        0.926     0.045     2.379     2.412
    61   1 H        0.926     0.048     2.348     2.396
    62   1 H        0.926     0.048     2.345     2.394
    63   1 H        0.926     0.049     2.332     2.388
    64   1 H        0.925     0.046     2.369     2.407
    65   1 H        0.926     0.044     2.395     2.420
    66   1 H        0.926     0.048     2.350     2.397
    67   1 H        0.926     0.048     2.344     2.394
    68   1 H        0.926     0.046     2.368     2.406
    69   1 H        0.925     0.054     2.266     2.354
    70   1 H        0.926     0.040     2.450     2.448

molecular dipole:
                 x           y           z       tot (Debye)
 q only:        1.685      -2.364      -0.029
   full:        1.619      -2.217       0.138       6.986

 projected vibrational frequencies (cm⁻¹)
eigval :       -0.00    -0.00    -0.00     0.00     0.00     0.00
eigval :       13.40    24.84    27.25    30.45    37.64    42.71
eigval :       48.02    49.89    54.19    57.01    72.20    82.31
eigval :      105.58   111.29   123.35   125.44   130.52   159.49
eigval :      163.61   172.12   184.15   195.39   199.11   205.66
eigval :      217.20   229.09   234.66   237.57   260.38   275.84
eigval :      288.54   296.71   313.01   330.68   336.77   360.85
eigval :      364.15   372.74   374.14   380.19   405.43   414.80
eigval :      419.38   421.40   443.80   457.74   462.02   488.35
eigval :      491.12   495.60   499.40   516.83   523.41   535.88
eigval :      542.21   558.91   585.65   585.88   588.31   596.67
eigval :      604.52   645.61   650.77   654.71   655.78   658.33
eigval :      662.38   679.63   686.41   712.15   718.42   719.99
eigval :      737.52   739.37   743.13   771.65   773.87   779.51
eigval :      790.05   829.22   837.04   861.95   868.20   873.27
eigval :      876.12   877.49   899.36   900.88   901.13   902.86
eigval :      903.61   905.32   909.88   914.91   915.17   918.59
eigval :      919.61   926.32   926.86   927.58   931.59   933.90
eigval :      941.53   947.73   970.99   974.02   975.31  1039.62
eigval :     1043.24  1051.83  1077.91  1078.63  1102.35  1104.20
eigval :     1105.69  1112.83  1114.08  1114.67  1118.93  1122.79
eigval :     1149.35  1151.10  1157.57  1169.02  1177.23  1177.37
eigval :     1179.11  1179.80  1181.11  1189.67  1192.20  1194.84
eigval :     1198.56  1212.73  1217.86  1233.17  1245.76  1252.99
eigval :     1254.77  1266.07  1268.66  1270.84  1280.60  1302.02
eigval :     1305.65  1314.03  1317.73  1319.32  1323.18  1332.28
eigval :     1361.47  1395.59  1405.15  1413.92  1419.45  1420.19
eigval :     1421.03  1442.99  1450.98  1452.71  1456.48  1463.50
eigval :     1474.68  1555.17  1565.59  1568.30  1573.36  1579.58
eigval :     1580.34  1583.71  1584.26  1586.62  1591.50  1600.23
eigval :     1662.03  1704.42  2753.57  2892.38  2961.39  3059.82
eigval :     3066.57  3069.04  3070.28  3073.81  3077.83  3079.06
eigval :     3079.41  3079.65  3082.56  3082.80  3085.32  3086.36
eigval :     3086.71  3089.40  3090.11  3093.41  3094.31  3099.85
eigval :     3100.17  3100.45  3106.09  3108.51  3109.23  3111.91

   temp. (K)  partition function   enthalpy   heat capacity  entropy
                                   cal/mol     cal/K/mol   cal/K/mol   J/K/mol
 298.15  VIB  0.608E+16            21045.909    131.185    130.399
         ROT  0.364E+08              888.752      2.981     37.580
         INT  0.221E+24            21934.661    134.166    167.979
         TR   0.136E+29             1481.254      4.968     44.946
         TOT                       23415.9152   139.1344   212.9253   890.8793

       T/K    H(0)-H(T)+PV         H(T)/Eh          T*S/Eh         G(T)/Eh
   ------------------------------------------------------------------------
    298.15    0.373156E-01    0.566943E+00    0.101168E+00    0.465776E+00
   ------------------------------------------------------------------------

         :::::::::::::::::::::::::::::::::::::::::::::::::::::
         ::                  THERMODYNAMIC                  ::
         :::::::::::::::::::::::::::::::::::::::::::::::::::::
         :: total free energy        -109.913957305409 Eh   ::
         ::.................................................::
         :: total energy             -110.379733140751 Eh   ::
         :: zero point energy           0.529627858654 Eh   ::
         :: G(RRHO) w/o ZPVE           -0.063852023311 Eh   ::
         :: G(RRHO) contrib.            0.465775835343 Eh   ::
         :::::::::::::::::::::::::::::::::::::::::::::::::::::

           -------------------------------------------------
          | TOTAL ENERGY             -110.379733140751 Eh   |
          | TOTAL ENTHALPY           -109.812789645993 Eh   |
          | TOTAL FREE ENERGY        -109.913957305409 Eh   |
          | GRADIENT NORM               0.000024402300 Eh/α |
          | HOMO-LUMO GAP               1.310849729784 eV   |
           -------------------------------------------------

 * finished run on 2025/07/16 at 09:36:35.705
