   * xtb version 6.7.1 (edcfbbe) compiled by 'albert@albert-system' on 2024-07-22

   ID    Z sym.   atoms
    1    8 O      1, 28
    2    6 C      2-12, 14-19, 21-26, 29-42
    3    7 N      13
    4   16 S      20
    5   15 P      27
    6    1 H      43-70

          program call               : xtb data2507/toluene/OPDPO/OPDPO_toluene_T1_crest.xyz --gfn 2 --uhf 2 --gbsa toluene --ohess vtight --parallel 40 --molden --ceasefiles --namespace data2507/toluene/OPDPO/OPDPO_toluene_T1_finalOpt
      * Solvation model:               GBSA
        Solvent                        toluene
        Solvent mass                       9.2140E+01 g/mol
          :  Hamiltonian                  GFN2-xTB          :
 * total energy  :  -110.3278805 Eh     change       -0.2509537E-08 Eh
 * total energy  :  -110.3280902 Eh     change       -0.2096434E-03 Eh
 * total energy  :  -110.3281803 Eh     change       -0.9017580E-04 Eh
 * total energy  :  -110.3282181 Eh     change       -0.3773139E-04 Eh
 * total energy  :  -110.3282454 Eh     change       -0.2737821E-04 Eh
 * total energy  :  -110.3282726 Eh     change       -0.2716501E-04 Eh
 * total energy  :  -110.3282884 Eh     change       -0.1581447E-04 Eh
 * total energy  :  -110.3283028 Eh     change       -0.1442366E-04 Eh
 * total energy  :  -110.3283222 Eh     change       -0.1932295E-04 Eh
 * total energy  :  -110.3283384 Eh     change       -0.1623195E-04 Eh
 * total energy  :  -110.3284314 Eh     change       -0.5086161E-06 Eh
 * total energy  :  -110.3284317 Eh     change       -0.3082848E-06 Eh
 * total energy  :  -110.3284320 Eh     change       -0.2321874E-06 Eh
 * total energy  :  -110.3284322 Eh     change       -0.2526420E-06 Eh
 * total energy  :  -110.3284325 Eh     change       -0.2526229E-06 Eh
 * total energy  :  -110.3284326 Eh     change       -0.1799697E-06 Eh
 * total energy  :  -110.3284328 Eh     change       -0.1238844E-06 Eh
 * total energy  :  -110.3284329 Eh     change       -0.1025051E-06 Eh
 * total energy  :  -110.3284330 Eh     change       -0.7923505E-07 Eh
   *** GEOMETRY OPTIMIZATION CONVERGED AFTER 36 ITERATIONS ***

 final structure:
================
70
 xtb: 6.7.1 (edcfbbe)
O           -2.93332832345603       -3.42543825767719       -0.37232801434844
C           -2.10942713624336       -2.78898862173452       -1.03067224001329
C           -1.29537120330457       -1.73121894378257       -0.54790882344812
C           -1.42144825386292       -1.26089579305258        0.85186372333979
C           -0.03522711677569       -0.92937468741942        1.39679628660463
C            0.71408719434040        0.10432705129324        0.54253752022531
C            0.32157274910994        1.51824660874815        0.91065502372976
C            1.20268780026631        2.40200849167439        1.51617320819702
C            0.82149478160380        3.69658898272623        1.82773697822189
C           -0.46041604573338        4.13012907505979        1.53760595695901
C           -1.36359090904210        3.25367201957009        0.96409134342969
C           -0.98445909475627        1.95206182465856        0.65647422377667
N           -1.96279043793759        1.07272712800935        0.11741043931088
C           -2.28194353928397        1.19089313941144       -1.21397626382951
C           -1.56631720577778        2.08754153125279       -2.02674092497571
C           -1.81824242914620        2.20745251602169       -3.37364530536062
C           -2.80115441664370        1.43238968873582       -3.97995712623276
C           -3.53665986945147        0.56562599381385       -3.20375823573590
C           -3.29669051258172        0.44881498335818       -1.83612136469353
S           -4.40129024603674       -0.59002824299721       -0.95086415861615
C           -3.80757682567937       -0.48411188198059        0.67088988545169
C           -4.64581029722686       -0.97020723784548        1.65221427604403
C           -4.35930901245891       -0.82426225070453        2.99693313445187
C           -3.24564485259284       -0.03844161996454        3.35486324118370
C           -2.38087680418396        0.42721348272423        2.42711408829929
C           -2.42455375777104        0.00211941871727        0.98372003909529
P            2.51668626052251       -0.25265566081366        0.95942023815954
O            2.76878261172032       -0.26921998245770        2.41186667106532
C            2.83828443720049       -1.87479280170370        0.19633233299108
C            2.94011019182896       -2.97063994920157        1.04342684915045
C            3.19755032103682       -4.22809149483322        0.52648367848256
C            3.36000862559640       -4.38968505784581       -0.83983120600351
C            3.27650147292327       -3.29402646895048       -1.68547259078637
C            3.01939485711572       -2.03625511021919       -1.17150121958445
C            3.65927859427679        0.84327285436469        0.03843044649379
C            4.99494020696746        0.52705383238228        0.26480261565077
C            5.99970304581434        1.24867899623304       -0.35207232922102
C            5.67154211557165        2.29143290204160       -1.20469436262870
C            4.34279585783103        2.61103091145254       -1.42933697145691
C            3.33376740155849        1.89185815536808       -0.80986912437063
C            0.52226660223446       -0.16971238132156       -0.90625962450850
C           -0.34960428459720       -1.09577582856237       -1.37495992710140
H           -1.94415693499710       -3.04912469873201       -2.09586383158807
H           -1.88867617949071       -2.04336072457163        1.45884585067087
H           -0.08415044486824       -0.59183594286779        2.43281159439515
H            0.54426568777929       -1.86020106750437        1.38651872682527
H            2.20230520639649        2.07062890634275        1.75667444723892
H            1.53058290656458        4.36198985294534        2.29541025664747
H           -0.76352133675596        5.13915559631437        1.77010103811510
H           -2.37693656751112        3.56156769057975        0.75365903665869
H           -0.78943450999058        2.68616573239478       -1.57881542109874
H           -1.23974844787717        2.90414159673594       -3.96077679025663
H           -2.99393240221679        1.51446079715655       -5.03764962309792
H           -4.32424257280001       -0.03493904920264       -3.63305073001150
H           -5.57382773711746       -1.42734370457239        1.33998261262539
H           -5.02414303804015       -1.21577434733455        3.74797474397642
H           -3.11163030466833        0.24285693311152        4.38916401372090
H           -1.58207847415452        1.08417142822462        2.72499454894188
H            2.82481331537496       -2.81797874117301        2.10839487593077
H            3.27290787125462       -5.07845000644061        1.18819550279136
H            3.56037961245108       -5.37002395761994       -1.24624975077378
H            3.41640363135622       -3.42101776805899       -2.74884589289972
H            2.96896887251329       -1.18015968477376       -1.82737691189182
H            5.22754507327766       -0.28878918179438        0.93800687563077
H            7.03445751677280        0.99877688607720       -0.16973803222909
H            6.45248570521547        2.85720202266349       -1.69051357579087
H            4.08687858332253        3.42695768219992       -2.08904702674842
H            2.30264244833188        2.16408780083697       -0.97740951499949
H            1.12917139060553        0.39353509721798       -1.59788890581984
H           -0.35566596779617       -1.33690281370499       -2.42979070624767

          :  Hamiltonian                  GFN2-xTB          :
         :: gradient norm              0.000046233169 Eh/a0 ::
         :: HOMO-LUMO gap              1.711027646114 eV    ::
         :: SCC energy              -112.165505991884 Eh    ::
         :: -> dispersion             -0.121191383570 Eh    ::
         :: -> Gsolv                  -0.049570046451 Eh    ::
         :: repulsion energy           1.837073038500 Eh    ::

    * Orbital Energies and Occupations

         #    Occupation            Energy/Eh            Energy/eV
      -------------------------------------------------------------
         1        2.0000           -0.7366268             -20.0446
       ...           ...                  ...                  ...
        91        2.0000           -0.4235772             -11.5261
        92        2.0000           -0.4207163             -11.4483
        93        2.0000           -0.4200464             -11.4300
        94        2.0000           -0.4192024             -11.4071
        95        2.0000           -0.4178577             -11.3705
        96        2.0000           -0.4153519             -11.3023
        97        2.0000           -0.4108130             -11.1788
        98        2.0000           -0.4086121             -11.1189
        99        2.0000           -0.3929110             -10.6917
       100        2.0000           -0.3912593             -10.6467
       101        2.0000           -0.3699162             -10.0659
       102        1.0000           -0.3510655              -9.5530
       103        1.0000           -0.3198187              -8.7027 (HOMO)
       104                         -0.2569397              -6.9917 (LUMO)
       105                         -0.2506725              -6.8211
       106                         -0.2483983              -6.7593
       107                         -0.2480566              -6.7500
       108                         -0.2435249              -6.6267
       109                         -0.2408222              -6.5531
       110                         -0.2389439              -6.5020
       111                         -0.2379734              -6.4756
       112                         -0.2310868              -6.2882
       113                         -0.2251166              -6.1257
       114                         -0.2031260              -5.5273
       ...                                ...                  ...
       206                          1.2558177              34.1725
      -------------------------------------------------------------
                  HL-Gap            0.0628790 Eh            1.7110 eV

     #   Z          covCN         q      C6AA      α(0)
     1   8 O        0.857    -0.457    22.859     6.410
     2   6 C        2.767     0.189    23.957     8.016
     3   6 C        2.960    -0.030    28.747     8.794
     4   6 C        3.855    -0.012    20.755     6.480
     5   6 C        3.984    -0.040    21.205     6.542
     6   6 C        3.862     0.036    19.926     6.348
     7   6 C        3.032     0.004    27.905     8.665
     8   6 C        2.932    -0.028    28.708     8.787
     9   6 C        2.919    -0.027    28.684     8.783
    10   6 C        2.918    -0.026    28.653     8.778
    11   6 C        2.923    -0.037    28.917     8.819
    12   6 C        2.931     0.061    26.641     8.465
    13   7 N        2.748    -0.076    22.716     7.079
    14   6 C        2.940     0.065    26.552     8.451
    15   6 C        2.927    -0.056    29.387     8.890
    16   6 C        2.918    -0.029    28.721     8.788
    17   6 C        2.917    -0.036    28.905     8.816
    18   6 C        2.994    -0.037    28.911     8.820
    19   6 C        2.970     0.024    27.469     8.597
    20  16 S        2.170    -0.068   143.876    20.188
    21   6 C        2.960     0.022    27.525     8.605
    22   6 C        3.008    -0.037    28.897     8.818
    23   6 C        2.915    -0.047    29.159     8.855
    24   6 C        2.908    -0.031    28.775     8.796
    25   6 C        2.915    -0.065    29.613     8.924
    26   6 C        3.859     0.090    19.061     6.209
    27  15 P        4.287     0.046   158.181    22.593
    28   8 O        0.808    -0.393    21.562     6.225
    29   6 C        2.920     0.007    27.859     8.656
    30   6 C        3.021    -0.021    28.496     8.756
    31   6 C        2.918    -0.027    28.677     8.782
    32   6 C        2.920    -0.023    28.576     8.766
    33   6 C        2.920    -0.026    28.655     8.778
    34   6 C        2.976    -0.026    28.644     8.779
    35   6 C        2.919     0.014    27.703     8.631
    36   6 C        3.077    -0.017    28.349     8.729
    37   6 C        2.918    -0.024    28.612     8.772
    38   6 C        2.920    -0.022    28.564     8.764
    39   6 C        2.920    -0.025    28.638     8.776
    40   6 C        2.947    -0.025    28.628     8.776
    41   6 C        3.023    -0.037    28.884     8.816
    42   6 C        2.902    -0.033    28.814     8.801
    43   1 H        0.922    -0.013     3.287     2.835
    44   1 H        0.924     0.051     2.312     2.378
    45   1 H        0.924     0.051     2.314     2.379
    46   1 H        0.924     0.047     2.352     2.398
    47   1 H        0.926     0.066     2.128     2.281
    48   1 H        0.926     0.053     2.282     2.362
    49   1 H        0.926     0.057     2.238     2.339
    50   1 H        0.926     0.052     2.297     2.370
    51   1 H        0.926     0.043     2.403     2.424
    52   1 H        0.926     0.052     2.297     2.370
    53   1 H        0.926     0.050     2.320     2.382
    54   1 H        0.926     0.048     2.339     2.391
    55   1 H        0.926     0.042     2.428     2.437
    56   1 H        0.926     0.041     2.438     2.442
    57   1 H        0.926     0.045     2.381     2.413
    58   1 H        0.926     0.039     2.456     2.451
    59   1 H        0.925     0.050     2.325     2.385
    60   1 H        0.926     0.044     2.393     2.419
    61   1 H        0.926     0.047     2.354     2.399
    62   1 H        0.926     0.047     2.352     2.398
    63   1 H        0.926     0.047     2.362     2.403
    64   1 H        0.925     0.041     2.434     2.440
    65   1 H        0.926     0.046     2.366     2.406
    66   1 H        0.926     0.050     2.321     2.382
    67   1 H        0.926     0.050     2.319     2.381
    68   1 H        0.926     0.045     2.384     2.415
    69   1 H        0.926     0.051     2.309     2.376
    70   1 H        0.925     0.039     2.469     2.457

molecular dipole:
                 x           y           z       tot (Debye)
 q only:        1.763       2.978      -1.558
   full:        1.962       2.675      -1.688       9.460

 projected vibrational frequencies (cm⁻¹)
eigval :       -0.00    -0.00     0.00     0.00     0.00     0.00
eigval :       20.65    20.75    32.05    36.69    43.13    46.11
eigval :       52.39    56.63    68.98    82.58    86.08    92.11
eigval :      119.21   130.20   134.40   141.47   151.46   164.89
eigval :      173.41   188.49   193.76   199.12   214.20   220.16
eigval :      237.77   243.25   258.97   265.24   279.45   288.50
eigval :      294.23   326.13   336.81   357.33   362.82   363.70
eigval :      367.78   371.79   389.68   406.46   412.46   417.02
eigval :      423.34   445.85   456.84   462.18   470.84   487.20
eigval :      487.42   502.81   512.22   515.23   526.78   532.12
eigval :      568.80   582.02   585.35   585.67   594.10   598.43
eigval :      617.21   645.59   654.17   657.44   658.70   661.53
eigval :      686.74   690.67   702.79   709.19   722.48   734.20
eigval :      739.49   745.59   750.16   766.74   771.56   782.96
eigval :      795.83   809.33   835.19   858.61   873.65   878.63
eigval :      879.63   882.50   882.63   889.95   897.24   900.61
eigval :      903.73   904.86   906.45   908.10   911.83   917.58
eigval :      927.55   928.24   932.45   934.34   937.61   940.96
eigval :      944.70   971.27   973.68   997.20  1007.29  1038.87
eigval :     1049.83  1072.81  1077.11  1078.53  1087.65  1096.58
eigval :     1103.00  1111.52  1113.27  1115.34  1118.94  1123.72
eigval :     1132.69  1136.46  1155.09  1156.51  1167.68  1175.18
eigval :     1177.11  1177.17  1177.71  1189.28  1190.73  1206.24
eigval :     1211.60  1218.33  1220.12  1227.98  1240.38  1246.10
eigval :     1253.03  1266.80  1267.94  1269.65  1275.16  1290.62
eigval :     1296.32  1307.61  1316.87  1317.30  1322.43  1344.03
eigval :     1356.78  1359.10  1378.71  1404.38  1405.84  1418.31
eigval :     1420.77  1421.43  1432.08  1449.42  1451.32  1452.52
eigval :     1456.92  1458.20  1474.34  1503.14  1543.54  1564.23
eigval :     1575.42  1580.20  1581.56  1581.83  1583.86  1584.86
eigval :     1586.76  1595.25  2733.98  2925.30  2941.18  2993.37
eigval :     3048.21  3056.94  3063.12  3076.28  3076.91  3077.82
eigval :     3078.02  3080.54  3081.56  3082.24  3086.62  3088.54
eigval :     3089.03  3089.11  3090.87  3092.56  3095.31  3095.89
eigval :     3096.18  3105.30  3105.71  3110.58  3116.33  3123.74

   temp. (K)  partition function   enthalpy   heat capacity  entropy
                                   cal/mol     cal/K/mol   cal/K/mol   J/K/mol
 298.15  VIB  0.330E+15            20452.391    131.297    125.020
         ROT  0.356E+08              888.752      2.981     37.532
         INT  0.117E+23            21341.143    134.278    162.552
         TR   0.136E+29             1481.254      4.968     44.946
         TOT                       22822.3970   139.2461   207.4979   868.1714

       T/K    H(0)-H(T)+PV         H(T)/Eh          T*S/Eh         G(T)/Eh
   ------------------------------------------------------------------------
    298.15    0.363698E-01    0.565947E+00    0.985890E-01    0.467358E+00
   ------------------------------------------------------------------------

         :::::::::::::::::::::::::::::::::::::::::::::::::::::
         ::                  THERMODYNAMIC                  ::
         :::::::::::::::::::::::::::::::::::::::::::::::::::::
         :: total free energy        -109.861074683722 Eh   ::
         ::.................................................::
         :: total energy             -110.328432949133 Eh   ::
         :: zero point energy           0.529577427670 Eh   ::
         :: G(RRHO) w/o ZPVE           -0.062219162260 Eh   ::
         :: G(RRHO) contrib.            0.467358265411 Eh   ::
         :::::::::::::::::::::::::::::::::::::::::::::::::::::

           -------------------------------------------------
          | TOTAL ENERGY             -110.328432949133 Eh   |
          | TOTAL ENTHALPY           -109.762485716863 Eh   |
          | TOTAL FREE ENERGY        -109.861074683722 Eh   |
          | GRADIENT NORM               0.000046347993 Eh/α |
          | HOMO-LUMO GAP               1.711024064859 eV   |
           -------------------------------------------------

 * finished run on 2025/07/16 at 09:42:04.470
