   * xtb version 6.7.1 (edcfbbe) compiled by 'albert@albert-system' on 2024-07-22

   ID    Z sym.   atoms
    1    8 O      1, 28
    2    6 C      2-12, 14-19, 21-26, 29-42
    3    7 N      13
    4   16 S      20
    5   15 P      27
    6    1 H      43-70

          program call               : xtb data2507/toluene/OPDPO/OPDPO_toluene_S0_finalOpt.xtbopt.xyz --gfn 2 --uhf 2 --gbsa toluene --ohess vtight --parallel 40 --molden --ceasefiles --namespace data2507/toluene/OPDPO/OPDPO_toluene_T1_preOpt
      * Solvation model:               GBSA
        Solvent                        toluene
        Solvent mass                       9.2140E+01 g/mol
          :  Hamiltonian                  GFN2-xTB          :
 * total energy  :  -110.2970527 Eh     change       -0.3551369E-07 Eh
 * total energy  :  -110.3027278 Eh     change       -0.5675100E-02 Eh
 * total energy  :  -110.3044285 Eh     change       -0.1700669E-02 Eh
 * total energy  :  -110.3046644 Eh     change       -0.2359401E-03 Eh
 * total energy  :  -110.3049482 Eh     change       -0.2838260E-03 Eh
 * total energy  :  -110.3050850 Eh     change       -0.1367416E-03 Eh
 * total energy  :  -110.3052332 Eh     change       -0.1482873E-03 Eh
 * total energy  :  -110.3053544 Eh     change       -0.1211452E-03 Eh
 * total energy  :  -110.3054045 Eh     change       -0.5012118E-04 Eh
 * total energy  :  -110.3054393 Eh     change       -0.3478885E-04 Eh
 * total energy  :  -110.3276417 Eh     change       -0.3144026E-06 Eh
 * total energy  :  -110.3276420 Eh     change       -0.2577683E-06 Eh
 * total energy  :  -110.3276422 Eh     change       -0.2681713E-06 Eh
 * total energy  :  -110.3276426 Eh     change       -0.3311182E-06 Eh
 * total energy  :  -110.3276430 Eh     change       -0.3945935E-06 Eh
 * total energy  :  -110.3276434 Eh     change       -0.4232659E-06 Eh
 * total energy  :  -110.3276438 Eh     change       -0.4221615E-06 Eh
 * total energy  :  -110.3276442 Eh     change       -0.3758014E-06 Eh
 * total energy  :  -110.3276442 Eh     change       -0.1685137E-08 Eh
   *** GEOMETRY OPTIMIZATION CONVERGED AFTER 152 ITERATIONS ***

 final structure:
================
70
 xtb: 6.7.1 (edcfbbe)
O           -1.99803380292403        2.26224266268629       -3.23875436193336
C           -1.66568704327920        2.52111012965655       -2.08133814408713
C           -1.04990539244004        1.62291915033553       -1.17086984153898
C           -0.80045735108516        0.21428536269896       -1.55265864874224
C            0.54009351057969       -0.25399683022417       -0.98486553533779
C            0.63606175725195       -0.07321152252840        0.53244089754638
C            0.01770803857131       -1.22770095093222        1.28971099402571
C            0.76236315412129       -2.07786293638464        2.09194657951532
C            0.16975182200476       -3.12537377275858        2.77743755141236
C           -1.19306769389200       -3.33916785414900        2.67053173196555
C           -1.95267123125970       -2.50773846397233        1.86757779719573
C           -1.35893366466967       -1.45653419975355        1.17858696744341
N           -2.18327495357466       -0.64392777179950        0.35187550233050
C           -2.97345736948241        0.30231731877568        0.96011897858803
C           -2.86096958874032        0.52247105139063        2.34433148797289
C           -3.60691496497893        1.48030704754222        2.99068657374519
C           -4.50395731322229        2.27416835654747        2.28371551653517
C           -4.64938670892724        2.06806499333193        0.93074195380763
C           -3.90783664349164        1.08982880090314        0.27123875066138
S           -4.29669363657189        0.85287276106452       -1.42402703110418
C           -3.21088706840904       -0.40928862208100       -1.89324171564723
C           -3.46346973246835       -1.00145491726195       -3.11313937242316
C           -2.76686671223165       -2.11605057987424       -3.54267229795713
C           -1.88272444959685       -2.73288291671848       -2.63496684314240
C           -1.57999043081932       -2.16467835455510       -1.44691161246931
C           -2.00138382214728       -0.76571892765351       -1.08295749187096
P            2.41881134578544        0.23515705318457        1.09777716636557
O            2.47973894280050        0.59118190472945        2.52537138807211
C            3.55113743855122       -1.14143288336516        0.68052501117262
C            4.53366813920393       -1.38030447677242        1.63597540998327
C            5.48860277782659       -2.35931172655477        1.43110025236203
C            5.46673307193797       -3.10915953670803        0.26625242184947
C            4.49049696548709       -2.87414596693006       -0.68841328257009
C            3.53468306483399       -1.89281318647985       -0.48852356204876
C            2.96553980235280        1.61973165006807        0.03997493878925
C            2.73477614058626        2.89640194024634        0.53687130522855
C            3.11214692193426        4.00830719495731       -0.19373339438430
C            3.73137339485502        3.84754501034504       -1.42295333196364
C            3.98480178825843        2.57572975143155       -1.91069695426358
C            3.60588908879363        1.46107752547772       -1.18271083338994
C            0.02115937068994        1.21717259396890        0.95780044276171
C           -0.66805201993576        2.03085393093877        0.12150989705677
H           -1.82737423433957        3.54277090570664       -1.68191898910591
H           -0.79372280090080        0.12966996970617       -2.64429473101939
H            0.70166380305123       -1.29726036990052       -1.25441286647364
H            1.31441838915086        0.35492578733026       -1.45823023517645
H            1.82388705110707       -1.90938546557797        2.19653280442124
H            0.77658394577462       -3.76743167374564        3.39701700471431
H           -1.66472801130016       -4.14939263702838        3.20456390161022
H           -3.01659406493934       -2.66015586712791        1.76264541105197
H           -2.15457067686024       -0.06449954131627        2.90920263178520
H           -3.48254291667018        1.61810812204810        4.05385227921839
H           -5.08250736042474        3.03358703092288        2.78489561455573
H           -5.34991617451078        2.65069890574091        0.35175965474759
H           -4.27083967172052       -0.60046789614649       -3.70868971779310
H           -2.97503787267815       -2.56035446307616       -4.50109840390400
H           -1.48529001559351       -3.70925002150556       -2.87081800721282
H           -0.97342834110010       -2.69883456283650       -0.73578012487880
H            4.52876803873480       -0.79027608086395        2.54214162355371
H            6.24671452401256       -2.53625940919929        2.17967314695947
H            6.20912571169891       -3.87594456385567        0.10217653212781
H            4.47160794983891       -3.45779684483891       -1.59708364142008
H            2.78204297129419       -1.72395859143447       -1.24128623477336
H            2.26764743387693        3.00241591535813        1.50563126061965
H            2.92613513602794        4.99839297101861        0.19583552477872
H            4.02572975335798        4.71368956035569       -1.99694854066927
H            4.48039960100721        2.45013613686409       -2.86214291135779
H            3.81958512180915        0.47242818913755       -1.56157263205155
H            0.17438637091404        1.49267155085874        1.99196394248714
H           -0.97792591161723        3.01063362203410        0.46090244947732

          :  Hamiltonian                  GFN2-xTB          :
         :: gradient norm              0.000033358305 Eh/a0 ::
         :: HOMO-LUMO gap              1.672368755829 eV    ::
         :: SCC energy              -112.164479200064 Eh    ::
         :: -> dispersion             -0.120224257930 Eh    ::
         :: -> Gsolv                  -0.049028368819 Eh    ::
         :: repulsion energy           1.836835025066 Eh    ::

    * Orbital Energies and Occupations

         #    Occupation            Energy/Eh            Energy/eV
      -------------------------------------------------------------
         1        2.0000           -0.7367983             -20.0493
       ...           ...                  ...                  ...
        91        2.0000           -0.4224687             -11.4960
        92        2.0000           -0.4218660             -11.4796
        93        2.0000           -0.4202305             -11.4351
        94        2.0000           -0.4194175             -11.4129
        95        2.0000           -0.4174543             -11.3595
        96        2.0000           -0.4143885             -11.2761
        97        2.0000           -0.4099041             -11.1541
        98        2.0000           -0.4070536             -11.0765
        99        2.0000           -0.3927627             -10.6876
       100        2.0000           -0.3910246             -10.6403
       101        2.0000           -0.3697940             -10.0626
       102        1.0000           -0.3508079              -9.5460
       103        1.0000           -0.3200918              -8.7101 (HOMO)
       104                         -0.2586334              -7.0378 (LUMO)
       105                         -0.2514197              -6.8415
       106                         -0.2480233              -6.7491
       107                         -0.2454090              -6.6779
       108                         -0.2420961              -6.5878
       109                         -0.2400325              -6.5316
       110                         -0.2388645              -6.4998
       111                         -0.2377703              -6.4701
       112                         -0.2311464              -6.2898
       113                         -0.2245298              -6.1098
       114                         -0.2032075              -5.5296
       ...                                ...                  ...
       206                          1.2489155              33.9847
      -------------------------------------------------------------
                  HL-Gap            0.0614584 Eh            1.6724 eV

     #   Z          covCN         q      C6AA      α(0)
     1   8 O        0.857    -0.455    22.818     6.404
     2   6 C        2.767     0.189    23.954     8.015
     3   6 C        2.960    -0.030    28.736     8.793
     4   6 C        3.854    -0.013    20.765     6.481
     5   6 C        3.860    -0.056    21.533     6.599
     6   6 C        3.861     0.036    19.933     6.349
     7   6 C        3.035     0.005    27.868     8.659
     8   6 C        2.933    -0.028    28.702     8.786
     9   6 C        2.919    -0.027    28.681     8.782
    10   6 C        2.918    -0.026    28.658     8.779
    11   6 C        2.923    -0.037    28.922     8.819
    12   6 C        2.931     0.061    26.629     8.463
    13   7 N        2.748    -0.076    22.707     7.077
    14   6 C        2.940     0.065    26.540     8.449
    15   6 C        2.927    -0.055    29.370     8.888
    16   6 C        2.918    -0.029    28.716     8.788
    17   6 C        2.917    -0.036    28.906     8.816
    18   6 C        2.995    -0.038    28.924     8.822
    19   6 C        2.970     0.023    27.485     8.599
    20  16 S        2.170    -0.066   143.792    20.182
    21   6 C        2.960     0.022    27.509     8.603
    22   6 C        3.007    -0.037    28.891     8.817
    23   6 C        2.915    -0.047    29.160     8.855
    24   6 C        2.908    -0.031    28.780     8.797
    25   6 C        2.915    -0.066    29.641     8.928
    26   6 C        3.858     0.088    19.088     6.213
    27  15 P        4.298     0.047   158.151    22.590
    28   8 O        0.808    -0.399    21.676     6.241
    29   6 C        2.918     0.013    27.722     8.634
    30   6 C        3.052    -0.020    28.448     8.747
    31   6 C        2.918    -0.025    28.634     8.775
    32   6 C        2.920    -0.022    28.564     8.764
    33   6 C        2.920    -0.026    28.647     8.777
    34   6 C        2.953    -0.028    28.705     8.788
    35   6 C        2.919     0.008    27.837     8.652
    36   6 C        3.033    -0.019    28.455     8.750
    37   6 C        2.918    -0.027    28.665     8.780
    38   6 C        2.920    -0.023    28.585     8.768
    39   6 C        2.920    -0.027    28.677     8.782
    40   6 C        2.965    -0.029    28.718     8.790
    41   6 C        3.178    -0.024    28.173     8.667
    42   6 C        2.902    -0.034    28.835     8.805
    43   1 H        0.922    -0.014     3.322     2.850
    44   1 H        0.924     0.055     2.260     2.351
    45   1 H        0.925     0.051     2.302     2.373
    46   1 H        0.924     0.052     2.298     2.370
    47   1 H        0.926     0.063     2.160     2.298
    48   1 H        0.926     0.053     2.280     2.361
    49   1 H        0.926     0.057     2.239     2.340
    50   1 H        0.926     0.052     2.300     2.371
    51   1 H        0.926     0.043     2.409     2.427
    52   1 H        0.926     0.050     2.322     2.383
    53   1 H        0.926     0.050     2.325     2.384
    54   1 H        0.926     0.049     2.336     2.390
    55   1 H        0.926     0.042     2.426     2.436
    56   1 H        0.926     0.041     2.432     2.439
    57   1 H        0.926     0.047     2.359     2.402
    58   1 H        0.926     0.041     2.440     2.443
    59   1 H        0.925     0.052     2.295     2.369
    60   1 H        0.926     0.046     2.372     2.408
    61   1 H        0.926     0.048     2.341     2.392
    62   1 H        0.926     0.048     2.340     2.392
    63   1 H        0.926     0.050     2.322     2.383
    64   1 H        0.926     0.050     2.324     2.384
    65   1 H        0.926     0.044     2.392     2.419
    66   1 H        0.926     0.047     2.363     2.404
    67   1 H        0.926     0.046     2.364     2.405
    68   1 H        0.926     0.048     2.344     2.394
    69   1 H        0.926     0.052     2.298     2.371
    70   1 H        0.925     0.034     2.524     2.484

molecular dipole:
                 x           y           z       tot (Debye)
 q only:        1.051      -2.282       1.028
   full:        1.279      -2.004       0.947       6.504

 projected vibrational frequencies (cm⁻¹)
eigval :       -0.00    -0.00    -0.00    -0.00     0.00     0.00
eigval :       18.11    20.73    28.42    34.35    39.16    46.84
eigval :       49.12    58.84    65.97    82.48    87.06    94.69
eigval :      112.54   120.88   136.45   144.36   152.09   171.77
eigval :      180.37   188.31   197.13   205.28   216.03   222.74
eigval :      230.13   240.48   252.84   274.92   278.68   292.53
eigval :      297.71   329.70   342.21   361.90   362.35   366.30
eigval :      368.69   376.82   400.27   404.57   410.72   413.83
eigval :      422.80   439.02   454.12   460.96   470.79   486.11
eigval :      489.38   497.29   513.79   516.59   525.83   535.73
eigval :      568.53   581.68   584.93   586.23   593.84   597.72
eigval :      616.79   645.07   653.61   655.94   657.03   658.91
eigval :      685.04   689.58   701.93   708.77   723.69   735.09
eigval :      739.75   742.29   761.39   767.92   771.86   780.84
eigval :      796.21   808.21   835.51   860.01   873.32   874.71
eigval :      876.77   878.47   881.39   889.10   896.31   899.78
eigval :      902.41   904.33   904.86   907.30   913.56   915.84
eigval :      926.84   928.65   928.98   930.94   935.93   937.29
eigval :      942.19   970.05   972.57   998.80  1008.16  1038.31
eigval :     1051.35  1072.25  1079.34  1080.42  1089.29  1095.98
eigval :     1104.40  1110.63  1115.57  1117.36  1119.64  1121.78
eigval :     1132.09  1135.24  1154.56  1156.46  1169.98  1175.45
eigval :     1176.76  1178.59  1179.66  1191.40  1197.07  1204.75
eigval :     1210.70  1215.57  1222.05  1230.05  1240.20  1244.53
eigval :     1253.21  1267.04  1267.72  1269.72  1273.22  1288.70
eigval :     1296.95  1305.95  1315.10  1317.91  1320.79  1344.02
eigval :     1355.01  1360.31  1378.84  1404.49  1405.97  1417.15
eigval :     1420.95  1421.65  1431.80  1448.82  1449.54  1452.65
eigval :     1456.04  1457.37  1473.89  1503.86  1543.21  1564.81
eigval :     1575.75  1577.99  1580.92  1582.16  1582.31  1584.84
eigval :     1585.93  1596.04  2735.68  2941.22  2965.48  2996.34
eigval :     3052.71  3069.67  3070.16  3074.48  3077.22  3077.56
eigval :     3078.16  3078.41  3081.47  3082.91  3085.47  3087.18
eigval :     3087.97  3088.66  3090.33  3093.60  3094.54  3095.14
eigval :     3104.45  3105.51  3111.14  3113.28  3114.77  3119.41

   temp. (K)  partition function   enthalpy   heat capacity  entropy
                                   cal/mol     cal/K/mol   cal/K/mol   J/K/mol
 298.15  VIB  0.479E+15            20448.771    131.054    125.028
         ROT  0.359E+08              888.752      2.981     37.553
         INT  0.172E+23            21337.523    134.035    162.581
         TR   0.136E+29             1481.254      4.968     44.946
         TOT                       22818.7774   139.0030   207.5267   868.2919

       T/K    H(0)-H(T)+PV         H(T)/Eh          T*S/Eh         G(T)/Eh
   ------------------------------------------------------------------------
    298.15    0.363640E-01    0.566072E+00    0.986027E-01    0.467469E+00
   ------------------------------------------------------------------------

         :::::::::::::::::::::::::::::::::::::::::::::::::::::
         ::                  THERMODYNAMIC                  ::
         :::::::::::::::::::::::::::::::::::::::::::::::::::::
         :: total free energy        -109.860175232031 Eh   ::
         ::.................................................::
         :: total energy             -110.327644171049 Eh   ::
         :: zero point energy           0.529707553617 Eh   ::
         :: G(RRHO) w/o ZPVE           -0.062238614599 Eh   ::
         :: G(RRHO) contrib.            0.467468939019 Eh   ::
         :::::::::::::::::::::::::::::::::::::::::::::::::::::

           -------------------------------------------------
          | TOTAL ENERGY             -110.327644171049 Eh   |
          | TOTAL ENTHALPY           -109.761572580983 Eh   |
          | TOTAL FREE ENERGY        -109.860175232031 Eh   |
          | GRADIENT NORM               0.000033362659 Eh/α |
          | HOMO-LUMO GAP               1.672369132483 eV   |
           -------------------------------------------------

 * finished run on 2025/07/16 at 09:36:49.363
