   * xtb version 6.7.1 (edcfbbe) compiled by 'albert@albert-system' on 2024-07-22

   ID    Z sym.   atoms
    1    8 O      1, 28
    2    6 C      2-12, 14-19, 21-26, 29-42
    3    7 N      13
    4   16 S      20
    5   15 P      27
    6    1 H      43-70

          program call               : xtb data2507/toluene/OPDPO/OPDPO.xyz --gfn 2 --gbsa toluene --ohess vtight --parallel 40 --molden --ceasefiles --namespace data2507/toluene/OPDPO/OPDPO_toluene_S0_preOpt
      * Solvation model:               GBSA
        Solvent                        toluene
        Solvent mass                       9.2140E+01 g/mol
          :  Hamiltonian                  GFN2-xTB          :
 * total energy  :  -110.3408498 Eh     change       -0.1759375E-08 Eh
 * total energy  :  -110.3600990 Eh     change       -0.1924918E-01 Eh
 * total energy  :  -110.3680906 Eh     change       -0.7991567E-02 Eh
 * total energy  :  -110.3700548 Eh     change       -0.1964261E-02 Eh
 * total energy  :  -110.3711531 Eh     change       -0.1098287E-02 Eh
 * total energy  :  -110.3717776 Eh     change       -0.6244541E-03 Eh
 * total energy  :  -110.3721375 Eh     change       -0.3598804E-03 Eh
 * total energy  :  -110.3723833 Eh     change       -0.2458617E-03 Eh
 * total energy  :  -110.3726019 Eh     change       -0.2185620E-03 Eh
 * total energy  :  -110.3727794 Eh     change       -0.1775428E-03 Eh
 * total energy  :  -110.3735856 Eh     change       -0.8194409E-06 Eh
 * total energy  :  -110.3735865 Eh     change       -0.8658557E-06 Eh
 * total energy  :  -110.3735873 Eh     change       -0.7354534E-06 Eh
 * total energy  :  -110.3735878 Eh     change       -0.5484564E-06 Eh
 * total energy  :  -110.3735882 Eh     change       -0.4499443E-06 Eh
 * total energy  :  -110.3735887 Eh     change       -0.4977658E-06 Eh
 * total energy  :  -110.3735894 Eh     change       -0.6460036E-06 Eh
 * total energy  :  -110.3735901 Eh     change       -0.7537502E-06 Eh
 * total energy  :  -110.3735901 Eh     change       -0.3700265E-08 Eh
   *** GEOMETRY OPTIMIZATION CONVERGED AFTER 68 ITERATIONS ***

 final structure:
================
70
 xtb: 6.7.1 (edcfbbe)
O           -4.19109386943105       -3.97703174522011        1.22895094210470
C           -3.01208314079401       -4.23708141664921        1.33666194569681
C           -1.93094729804073       -3.26332760930915        1.42543816960370
C           -2.17769656866832       -1.93884135673863        1.50760673476747
C           -1.04887163346729       -0.98452113477045        1.65296189387563
C            0.17694300003958       -1.43331916872513        0.85154805087540
C            0.08490684707544       -1.34165149994654       -0.65537106855572
C            0.74735783379262       -2.32517293396938       -1.39991061115611
C            0.72372481663944       -2.35988205051158       -2.77913315325882
C            0.01425051022613       -1.40084065175188       -3.48182651771011
C           -0.64754257258104       -0.41954662842490       -2.77494648200831
C           -0.61027639539767       -0.36940644620644       -1.38030530836358
N           -1.33407046970250        0.69213905716933       -0.75083804900233
C           -2.71331653461650        0.47911443695388       -0.58713109868279
C           -3.33800511903215       -0.65513127688019       -1.10542633866358
C           -4.69263492276326       -0.87200844517106       -0.92309659409703
C           -5.46341946790738        0.04188414866418       -0.22767903322861
C           -4.86168542985638        1.17317570318658        0.29502547387358
C           -3.50297826531708        1.38056741080268        0.12946844384078
S           -2.76498753216230        2.79929083881717        0.89811935723556
C           -1.47044113495454        3.07559362944874       -0.28218982378880
C           -1.06198552330208        4.37809674736606       -0.50705231847675
C            0.00264998058916        4.64052003132485       -1.35008164652153
C            0.66484112356626        3.58211530342498       -1.94349603128076
C            0.24317508467376        2.28158719029553       -1.73489522743700
C           -0.85621291467410        1.99816439044607       -0.92544285623017
P            1.64184731936152       -0.52486737151160        1.62410242759271
O            1.74532088324412       -0.91823161850251        3.04135010356181
C            3.09190702832497       -1.01235289468999        0.64093004480771
C            4.09043281273023       -1.70795214270466        1.31100591677011
C            5.22443558336361       -2.12282671932917        0.63502544663544
C            5.36329417583273       -1.83960666722235       -0.71418316628587
C            4.37063742293045       -1.14143993375636       -1.38479308485602
C            3.23475031575277       -0.72669430737570       -0.71296178771905
C            1.47467317198993        1.29005127680569        1.50497414753293
C            0.59535066236934        1.88501023046372        2.40377405693263
C            0.52338655689697        3.26153002320366        2.50329056953526
C            1.35080271125198        4.05419571299906        1.72481697161588
C            2.24643274964904        3.46504243305975        0.84970647929477
C            2.30942771330653        2.08696168603825        0.73481141423251
C            0.45232762681967       -2.86686805761445        1.26080347829121
C           -0.54640111179352       -3.71370541361667        1.49573324361944
H           -2.67533717139244       -5.29178621952419        1.37359447605217
H           -3.19295397596591       -1.57287584746516        1.53250746101573
H           -1.34309853827918        0.03575800990253        1.42476930389191
H           -0.74435901154555       -1.01150618015039        2.71181042397975
H            1.29791077394025       -3.09179615733766       -0.87971878554649
H            1.25384524133504       -3.14099550724501       -3.30210156049744
H           -0.02961157296441       -1.41973907312005       -4.55984880736336
H           -1.22097565763738        0.33474475780295       -3.29590106123233
H           -2.75796929522227       -1.38661809713948       -1.64526960907753
H           -5.14021445622360       -1.76817784257191       -1.32441575353371
H           -6.51916714884225       -0.12517680790466       -0.08276926943413
H           -5.43382128002212        1.89735884156640        0.85484999278395
H           -1.57879093253054        5.17831545487222        0.00052965807324
H            0.31780554197662        5.65745823078401       -1.52311031569372
H            1.51611392133347        3.76183475310718       -2.58240756721357
H            0.77787513800464        1.47604126669149       -2.21176672993867
H            3.95949212248722       -1.91255020651814        2.36482974059291
H            5.99750322515649       -2.66444763445554        1.15991065812633
H            6.24750078595632       -2.16111291620812       -1.24439111614891
H            4.48152707927259       -0.91950007908901       -2.43597375200579
H            2.46011677039419       -0.18718841489161       -1.23583984625091
H           -0.01172956826172        1.26395871567103        3.04579515196834
H           -0.17017942328836        3.71411585851369        3.19628479705267
H            1.30732062125231        5.12939171568966        1.81205249132746
H            2.90772097416484        4.07965869709884        0.25756893124378
H            3.02272735616062        1.63881730231123        0.06057501563557
H            1.48490375386052       -3.18092149052520        1.33771437320609
H           -0.36237929908328       -4.74579288971116        1.75537658401382

          :  Hamiltonian                  GFN2-xTB          :
         :: gradient norm              0.000049957386 Eh/a0 ::
         :: HOMO-LUMO gap              1.315231135084 eV    ::
         :: SCC energy              -112.257228715659 Eh    ::
         :: -> dispersion             -0.123131422173 Eh    ::
         :: -> Gsolv                  -0.043280438411 Eh    ::
         :: repulsion energy           1.883638565919 Eh    ::

    * Orbital Energies and Occupations

         #    Occupation            Energy/Eh            Energy/eV
      -------------------------------------------------------------
         1        2.0000           -0.7209874             -19.6191
       ...           ...                  ...                  ...
        90        2.0000           -0.4230590             -11.5120
        91        2.0000           -0.4222832             -11.4909
        92        2.0000           -0.4201208             -11.4321
        93        2.0000           -0.4182497             -11.3812
        94        2.0000           -0.4153058             -11.3010
        95        2.0000           -0.4132367             -11.2447
        96        2.0000           -0.4098774             -11.1533
        97        2.0000           -0.4091725             -11.1341
        98        2.0000           -0.4076418             -11.0925
        99        2.0000           -0.3982986             -10.8383
       100        2.0000           -0.3971220             -10.8062
       101        2.0000           -0.3842933             -10.4572
       102        2.0000           -0.3499779              -9.5234 (HOMO)
       103                         -0.3016440              -8.2082 (LUMO)
       104                         -0.2589376              -7.0461
       105                         -0.2479202              -6.7463
       106                         -0.2449013              -6.6641
       107                         -0.2445144              -6.6536
       108                         -0.2426680              -6.6033
       109                         -0.2406007              -6.5471
       110                         -0.2383036              -6.4846
       111                         -0.2361061              -6.4248
       112                         -0.2332892              -6.3481
       113                         -0.2301658              -6.2631
       ...                                ...                  ...
       206                          1.2122797              32.9878
      -------------------------------------------------------------
                  HL-Gap            0.0483339 Eh            1.3152 eV

     #   Z          covCN         q      C6AA      α(0)
     1   8 O        0.856    -0.386    21.401     6.202
     2   6 C        2.767     0.208    23.584     7.953
     3   6 C        2.959    -0.017    28.441     8.747
     4   6 C        2.911     0.001    28.013     8.679
     5   6 C        3.938    -0.050    21.400     6.574
     6   6 C        3.864     0.030    20.035     6.365
     7   6 C        3.001    -0.001    28.037     8.686
     8   6 C        2.931    -0.035    28.876     8.813
     9   6 C        2.919    -0.029    28.721     8.788
    10   6 C        2.917    -0.030    28.754     8.793
    11   6 C        2.926    -0.038    28.938     8.822
    12   6 C        2.931     0.060    26.652     8.467
    13   7 N        2.747    -0.095    23.103     7.139
    14   6 C        2.959     0.062    26.618     8.462
    15   6 C        2.925    -0.054    29.343     8.883
    16   6 C        2.919    -0.030    28.755     8.793
    17   6 C        2.919    -0.037    28.926     8.820
    18   6 C        2.969    -0.040    28.980     8.830
    19   6 C        2.973     0.032    27.287     8.568
    20  16 S        2.123    -0.182   148.788    20.530
    21   6 C        2.974     0.032    27.286     8.568
    22   6 C        2.973    -0.040    28.981     8.830
    23   6 C        2.919    -0.040    28.988     8.829
    24   6 C        2.920    -0.034    28.841     8.807
    25   6 C        2.926    -0.057    29.413     8.894
    26   6 C        2.954     0.061    26.624     8.463
    27  15 P        4.264     0.066   157.311    22.530
    28   8 O        0.808    -0.405    21.802     6.259
    29   6 C        2.919     0.010    27.783     8.644
    30   6 C        3.032    -0.019    28.456     8.750
    31   6 C        2.918    -0.026    28.649     8.777
    32   6 C        2.920    -0.022    28.556     8.763
    33   6 C        2.919    -0.026    28.652     8.778
    34   6 C        2.970    -0.024    28.600     8.772
    35   6 C        2.919     0.013    27.727     8.635
    36   6 C        3.031    -0.018    28.433     8.746
    37   6 C        2.919    -0.024    28.610     8.771
    38   6 C        2.920    -0.023    28.575     8.766
    39   6 C        2.920    -0.026    28.650     8.778
    40   6 C        2.970    -0.027    28.679     8.784
    41   6 C        3.108    -0.020    28.368     8.726
    42   6 C        2.908    -0.037    28.931     8.820
    43   1 H        0.922     0.021     2.716     2.577
    44   1 H        0.926     0.063     2.160     2.298
    45   1 H        0.925     0.066     2.132     2.283
    46   1 H        0.923     0.085     1.933     2.174
    47   1 H        0.926     0.045     2.389     2.417
    48   1 H        0.926     0.048     2.345     2.394
    49   1 H        0.926     0.048     2.349     2.397
    50   1 H        0.925     0.043     2.413     2.429
    51   1 H        0.926     0.033     2.540     2.492
    52   1 H        0.926     0.039     2.456     2.451
    53   1 H        0.926     0.041     2.435     2.440
    54   1 H        0.926     0.044     2.391     2.418
    55   1 H        0.926     0.043     2.411     2.428
    56   1 H        0.926     0.042     2.425     2.435
    57   1 H        0.926     0.043     2.415     2.430
    58   1 H        0.926     0.037     2.484     2.464
    59   1 H        0.925     0.052     2.290     2.366
    60   1 H        0.926     0.046     2.373     2.409
    61   1 H        0.926     0.049     2.336     2.390
    62   1 H        0.926     0.048     2.351     2.398
    63   1 H        0.926     0.044     2.396     2.420
    64   1 H        0.926     0.048     2.340     2.392
    65   1 H        0.926     0.046     2.365     2.405
    66   1 H        0.926     0.047     2.360     2.402
    67   1 H        0.926     0.047     2.359     2.402
    68   1 H        0.926     0.047     2.358     2.401
    69   1 H        0.925     0.053     2.281     2.362
    70   1 H        0.926     0.051     2.307     2.375

molecular dipole:
                 x           y           z       tot (Debye)
 q only:        2.178       0.637      -2.190
   full:        2.227       0.487      -2.503       8.605

 projected vibrational frequencies (cm⁻¹)
eigval :       -0.00    -0.00    -0.00     0.00     0.00     0.00
eigval :       10.11    19.52    28.44    35.13    38.83    42.46
eigval :       48.75    52.16    66.60    79.91    88.90    98.05
eigval :      103.06   106.40   115.53   120.76   150.51   160.41
eigval :      168.96   171.41   185.04   195.91   202.19   210.91
eigval :      218.68   227.90   234.55   244.98   267.62   286.49
eigval :      295.43   297.78   320.14   348.20   351.13   365.59
eigval :      373.27   378.21   382.88   399.07   404.62   407.55
eigval :      418.77   421.39   442.36   456.64   459.95   491.29
eigval :      495.21   500.93   505.95   509.20   517.76   532.91
eigval :      548.26   570.39   583.52   584.75   585.84   587.68
eigval :      603.52   645.86   649.65   656.36   661.72   664.10
eigval :      666.57   678.54   689.15   711.90   718.10   718.77
eigval :      737.96   746.40   748.65   770.24   773.15   779.71
eigval :      788.50   824.20   848.71   863.04   863.85   871.68
eigval :      880.80   886.48   897.02   899.54   900.22   901.38
eigval :      902.77   903.83   914.54   916.29   917.74   919.22
eigval :      922.71   924.08   925.61   931.05   933.56   934.89
eigval :      943.24   956.07   970.79   974.25   998.74  1035.18
eigval :     1039.49  1042.32  1076.27  1082.13  1099.83  1100.93
eigval :     1105.76  1111.06  1114.35  1116.40  1119.25  1121.92
eigval :     1132.00  1150.92  1157.36  1165.29  1175.86  1176.95
eigval :     1177.60  1178.11  1178.99  1187.68  1189.79  1195.71
eigval :     1198.54  1205.76  1216.32  1233.13  1240.08  1249.14
eigval :     1254.43  1262.46  1265.24  1272.53  1281.11  1287.97
eigval :     1290.17  1308.28  1317.59  1319.90  1321.48  1329.77
eigval :     1349.28  1391.27  1409.03  1411.92  1417.98  1421.40
eigval :     1422.08  1435.61  1448.14  1449.82  1453.16  1467.04
eigval :     1473.25  1557.86  1566.80  1568.47  1576.17  1578.75
eigval :     1582.25  1583.54  1585.84  1586.79  1588.02  1592.68
eigval :     1657.63  1707.30  2761.21  2859.67  3043.58  3045.43
eigval :     3069.40  3075.46  3077.81  3078.25  3079.83  3081.48
eigval :     3082.58  3085.19  3087.06  3088.00  3088.41  3089.96
eigval :     3090.93  3091.13  3091.65  3093.55  3096.57  3098.60
eigval :     3098.87  3102.08  3102.49  3109.02  3109.95  3117.65

   temp. (K)  partition function   enthalpy   heat capacity  entropy
                                   cal/mol     cal/K/mol   cal/K/mol   J/K/mol
 298.15  VIB  0.305E+16            20855.823    131.549    128.992
         ROT  0.331E+08              888.752      2.981     37.388
         INT  0.101E+24            21744.575    134.530    166.380
         TR   0.136E+29             1481.254      4.968     44.946
         TOT                       23225.8292   139.4983   211.3255   884.1861

       T/K    H(0)-H(T)+PV         H(T)/Eh          T*S/Eh         G(T)/Eh
   ------------------------------------------------------------------------
    298.15    0.370127E-01    0.567177E+00    0.100408E+00    0.466769E+00
   ------------------------------------------------------------------------

         :::::::::::::::::::::::::::::::::::::::::::::::::::::
         ::                  THERMODYNAMIC                  ::
         :::::::::::::::::::::::::::::::::::::::::::::::::::::
         :: total free energy        -109.906821202204 Eh   ::
         ::.................................................::
         :: total energy             -110.373590149615 Eh   ::
         :: zero point energy           0.530163816541 Eh   ::
         :: G(RRHO) w/o ZPVE           -0.063394869131 Eh   ::
         :: G(RRHO) contrib.            0.466768947411 Eh   ::
         :::::::::::::::::::::::::::::::::::::::::::::::::::::

           -------------------------------------------------
          | TOTAL ENERGY             -110.373590149615 Eh   |
          | TOTAL ENTHALPY           -109.806413618312 Eh   |
          | TOTAL FREE ENERGY        -109.906821202204 Eh   |
          | GRADIENT NORM               0.000049962135 Eh/α |
          | HOMO-LUMO GAP               1.315231973581 eV   |
           -------------------------------------------------

 * finished run on 2025/07/16 at 09:31:36.284
