   * xtb version 6.7.1 (edcfbbe) compiled by 'albert@albert-system' on 2024-07-22

   ID    Z sym.   atoms
    1    6 C      1-5, 7-15, 17-31, 34-42
    2    7 N      6, 16, 32
    3    8 O      33
    4    1 H      43-67

          program call               : xtb data2507/gas/CzPh-PPO/CzPh-PPO_gas_T1_crest.xyz --gfn 2 --spinpol --tblite --uhf 2 --ohess vtight --parallel 40 --molden --ceasefiles --namespace data2507/gas/CzPh-PPO/CzPh-PPO_gas_T1_finalOpt
 * total energy  :  -106.9131865 Eh     change       -0.1024695E-07 Eh
 * total energy  :  -106.9132007 Eh     change       -0.1429069E-04 Eh
 * total energy  :  -106.9132079 Eh     change       -0.7202413E-05 Eh
 * total energy  :  -106.9132098 Eh     change       -0.1803704E-05 Eh
 * total energy  :  -106.9132126 Eh     change       -0.2861243E-05 Eh
 * total energy  :  -106.9132148 Eh     change       -0.2151981E-05 Eh
 * total energy  :  -106.9132163 Eh     change       -0.1516239E-05 Eh
 * total energy  :  -106.9132173 Eh     change       -0.9728171E-06 Eh
 * total energy  :  -106.9132183 Eh     change       -0.1041644E-05 Eh
 * total energy  :  -106.9132194 Eh     change       -0.1107411E-05 Eh
 * total energy  :  -106.9132227 Eh     change       -0.5948594E-06 Eh
 * total energy  :  -106.9132232 Eh     change       -0.5436931E-06 Eh
 * total energy  :  -106.9132239 Eh     change       -0.6295473E-06 Eh
 * total energy  :  -106.9132245 Eh     change       -0.6038625E-06 Eh
 * total energy  :  -106.9132250 Eh     change       -0.4887990E-06 Eh
 * total energy  :  -106.9132253 Eh     change       -0.3681633E-06 Eh
 * total energy  :  -106.9132256 Eh     change       -0.2755466E-06 Eh
 * total energy  :  -106.9132258 Eh     change       -0.2259293E-06 Eh
 * total energy  :  -106.9132258 Eh     change       -0.2198576E-08 Eh
   *** GEOMETRY OPTIMIZATION CONVERGED AFTER 22 ITERATIONS ***

 final structure:
================
67
 xtb: 6.7.1 (edcfbbe)
C            8.91244915093242        3.18890159275357       -1.30148526349799
C            8.91617670177996        1.85069974522250       -1.66271013275496
C            7.87287430919297        1.02514361517435       -1.28978740049280
C            6.80887316176713        1.53546183653626       -0.54546857422792
C            5.67601952569817        0.70235249596209       -0.17663299030484
N            4.43227307691609        1.17719596214436       -0.24752564345706
C            3.62178965252747        0.15811574069463        0.05516835429781
C            2.22888437135742        0.21006511541169        0.08535576797303
C            1.53205230644710        1.40974972144593       -0.26210221519785
C            0.17702536455514        1.40245997747329       -0.31722500710469
C           -0.55877450093118        0.21427574913687       -0.02108052165248
C           -1.98926214109224        0.16001998646050       -0.01642880746634
C           -2.77225321691431        1.32586802215071        0.12953533894187
C           -4.14279989182332        1.27555588869603        0.12855896436997
C           -4.80925844129508        0.05513351410375       -0.02659551728119
N           -6.20329390882588        0.00281924602435       -0.02654923962668
C           -6.98937881538101       -0.66201882706934       -0.94794026599066
C           -6.61632422513774       -1.36059456343173       -2.08793517092772
C           -7.61878261063045       -1.91065153097297       -2.86449044812181
C           -8.96237464073214       -1.76446969198554       -2.52831186669648
C           -9.34133957033792       -1.04479369028171       -1.41096647759710
C           -8.35267680905084       -0.48405333116007       -0.61568186169142
C           -8.38092227207202        0.32640008762518        0.57139623743275
C           -9.40566870556360        0.81186693753534        1.37050719185173
C           -9.07729669667641        1.55835028278660        2.48631629815277
C           -7.74714804129000        1.80466643293743        2.81741855274343
C           -6.70938007859664        1.33067608836867        2.03714265698399
C           -7.03357057394638        0.60611032393493        0.89838550091470
C           -4.05292328598767       -1.11252121562318       -0.17779165701134
C           -2.68241356179741       -1.06091459208985       -0.16517333760973
C            0.23437496539587       -0.90337380868161        0.35712662704665
N            1.52376190251316       -0.90232572668277        0.42498550509510
O            4.31236014769150       -0.99289009079407        0.32395350967104
C            5.63300460701254       -0.65956745215114        0.21548716577768
C            6.61878880033260       -1.62193929464153        0.57220954260181
C            6.25103800887315       -2.97885814881795        0.66824920004883
C            7.18083774693252       -3.93323342050347        1.01070509037929
C            8.49505258174799       -3.56977948424625        1.27892549371105
C            8.86438485013250       -2.23146888863600        1.21629003577505
C            7.94650500659744       -1.26449864274968        0.87332141773370
C            6.79788142453266        2.88876272837242       -0.21049431534854
C            7.84846922444135        3.70621926704860       -0.57960237740340
H            9.73331471410880        3.82860047079648       -1.59041610304270
H            9.73508284413884        1.44980356280683       -2.24197363233233
H            7.86660177500539       -0.01241775418732       -1.59019954180422
H            2.12325550770083        2.26957181707149       -0.53060047937475
H           -0.35299170309043        2.28778174887892       -0.63479296134021
H           -2.28544360731605        2.27997094011453        0.25882066780772
H           -4.72000617294266        2.18371321233840        0.22180529452367
H           -5.57944949158157       -1.46088758824859       -2.36995764710992
H           -7.35380421694296       -2.46188949243730       -3.75442206148391
H           -9.71604546141006       -2.21174805054615       -3.15891641467073
H          -10.38350614847999       -0.91450254324943       -1.16176955067748
H          -10.43614248131118        0.60388819716665        1.12547268507242
H           -9.85986752077872        1.94816132349772        3.11984888598165
H           -7.52066221585434        2.37425461008566        3.70642325028269
H           -5.68182925496134        1.50745918495193        2.31568622573919
H           -4.56022241256140       -2.06082997779684       -0.27709920227522
H           -2.12497090328135       -1.97626547904232       -0.29057970624557
H           -0.24218207089100       -1.81256567641097        0.70070766679497
H            5.22908941373423       -3.25381053724584        0.45729427584191
H            6.88726011677610       -4.97109453253018        1.07117132683462
H            9.22282483595423       -4.32104171006112        1.54602451323742
H            9.87950721551428       -1.94378672057505        1.44848379507445
H            8.23470119344314       -0.22511179717303        0.86246973055118
H            5.95901363172239        3.27826184937862        0.34511200463353
H            7.83863373431066        4.75134190423790       -0.30691992835737

 projected vibrational frequencies (cm⁻¹)
eigval :       -0.00    -0.00     0.00     0.00     0.00     0.00
eigval :        9.30    11.63    17.80    29.94    35.80    40.67
eigval :       43.93    57.02    62.66    77.25    86.57    96.14
eigval :      102.28   110.30   115.11   140.14   145.83   150.62
eigval :      168.35   205.38   224.01   231.71   241.54   264.63
eigval :      269.00   271.96   290.96   326.72   347.83   358.38
eigval :      367.30   375.21   379.22   389.12   392.64   399.35
eigval :      413.33   421.49   423.63   436.43   448.63   460.34
eigval :      492.66   500.50   509.74   517.26   538.42   538.81
eigval :      565.04   578.31   581.13   585.41   591.01   593.33
eigval :      615.28   616.62   628.26   648.59   652.13   657.13
eigval :      664.53   674.26   678.03   684.99   687.77   709.08
eigval :      720.05   746.64   749.79   758.91   764.56   769.28
eigval :      779.56   786.60   807.36   839.01   850.74   857.42
eigval :      871.67   872.24   876.72   886.43   893.59   896.09
eigval :      902.03   902.30   902.55   906.76   915.71   918.12
eigval :      919.84   923.07   923.62   924.93   928.77   929.56
eigval :      934.83   936.78   938.79   965.26   997.95  1002.01
eigval :     1011.48  1038.84  1054.36  1069.71  1071.42  1072.96
eigval :     1079.11  1084.03  1114.65  1116.62  1119.79  1126.38
eigval :     1142.08  1149.60  1162.08  1175.09  1178.54  1179.34
eigval :     1180.09  1181.44  1189.45  1197.62  1206.32  1227.60
eigval :     1233.29  1242.75  1243.38  1263.06  1266.09  1275.35
eigval :     1276.42  1280.09  1292.64  1296.20  1306.33  1320.87
eigval :     1325.09  1329.88  1344.04  1351.67  1354.16  1358.84
eigval :     1364.90  1394.73  1417.26  1420.38  1422.62  1424.91
eigval :     1430.44  1433.02  1445.72  1466.95  1470.28  1477.65
eigval :     1485.28  1487.70  1500.50  1528.96  1534.93  1560.82
eigval :     1571.60  1574.16  1576.27  1581.14  1585.15  1588.79
eigval :     1593.10  1607.19  3046.44  3074.52  3075.75  3077.82
eigval :     3078.68  3079.00  3079.86  3080.29  3082.54  3083.71
eigval :     3085.25  3086.49  3086.59  3092.70  3092.74  3092.84
eigval :     3094.19  3097.82  3098.47  3099.04  3099.42  3103.12
eigval :     3103.77  3104.43  3112.49

   temp. (K)  partition function   enthalpy   heat capacity  entropy
                                   cal/mol     cal/K/mol   cal/K/mol   J/K/mol
 298.15  VIB  0.102E+16            19080.802    121.411    118.965
         ROT  0.880E+08              888.752      2.981     39.334
         INT  0.897E+23            19969.554    124.392    158.299
         TR   0.121E+29             1481.254      4.968     44.722
         TOT                       21450.8081   129.3601   203.0218   849.4430

       T/K    H(0)-H(T)+PV         H(T)/Eh          T*S/Eh         G(T)/Eh
   ------------------------------------------------------------------------
    298.15    0.341840E-01    0.540140E+00    0.964622E-01    0.443678E+00
   ------------------------------------------------------------------------

         :::::::::::::::::::::::::::::::::::::::::::::::::::::
         ::                  THERMODYNAMIC                  ::
         :::::::::::::::::::::::::::::::::::::::::::::::::::::
         :: total free energy        -106.469547562517 Eh   ::
         ::.................................................::
         :: total energy             -106.913225793986 Eh   ::
         :: zero point energy           0.505956382160 Eh   ::
         :: G(RRHO) w/o ZPVE           -0.062278150691 Eh   ::
         :: G(RRHO) contrib.            0.443678231469 Eh   ::
         :::::::::::::::::::::::::::::::::::::::::::::::::::::

           -------------------------------------------------
          | TOTAL ENERGY             -106.913225793986 Eh   |
          | TOTAL ENTHALPY           -106.373085373140 Eh   |
          | TOTAL FREE ENERGY        -106.469547562517 Eh   |
          | GRADIENT NORM               0.000078711195 Eh/α |
           -------------------------------------------------

 * finished run on 2025/07/18 at 15:24:59.684
