   * xtb version 6.7.1 (edcfbbe) compiled by 'albert@albert-system' on 2024-07-22

   ID    Z sym.   atoms
    1    6 C      1-5, 7-15, 17-31, 34-42
    2    7 N      6, 16, 32
    3    8 O      33
    4    1 H      43-67

          program call               : xtb data2507/gas/CzPh-PPO/CzPh-PPO_gas_S0_crest.xyz --gfn 2 --ohess vtight --parallel 40 --molden --ceasefiles --namespace data2507/gas/CzPh-PPO/CzPh-PPO_gas_S0_finalOpt
          :  Hamiltonian                  GFN2-xTB          :
 * total energy  :  -106.9909583 Eh     change       -0.1568097E-08 Eh
 * total energy  :  -106.9909599 Eh     change       -0.1596761E-05 Eh
 * total energy  :  -106.9909615 Eh     change       -0.1682064E-05 Eh
 * total energy  :  -106.9909653 Eh     change       -0.3781915E-05 Eh
 * total energy  :  -106.9909670 Eh     change       -0.1673737E-05 Eh
 * total energy  :  -106.9909684 Eh     change       -0.1453249E-05 Eh
 * total energy  :  -106.9909704 Eh     change       -0.1995116E-05 Eh
 * total energy  :  -106.9909725 Eh     change       -0.2006719E-05 Eh
 * total energy  :  -106.9909741 Eh     change       -0.1681465E-05 Eh
 * total energy  :  -106.9909760 Eh     change       -0.1860712E-05 Eh
 * total energy  :  -106.9909837 Eh     change       -0.1648906E-05 Eh
 * total energy  :  -106.9909862 Eh     change       -0.2459476E-05 Eh
 * total energy  :  -106.9909901 Eh     change       -0.3924777E-05 Eh
 * total energy  :  -106.9909947 Eh     change       -0.4623725E-05 Eh
 * total energy  :  -106.9909980 Eh     change       -0.3253732E-05 Eh
 * total energy  :  -106.9909998 Eh     change       -0.1813054E-05 Eh
 * total energy  :  -106.9910011 Eh     change       -0.1310985E-05 Eh
 * total energy  :  -106.9910025 Eh     change       -0.1403577E-05 Eh
 * total energy  :  -106.9910025 Eh     change       -0.6344393E-08 Eh
   *** GEOMETRY OPTIMIZATION CONVERGED AFTER 22 ITERATIONS ***

 final structure:
================
67
 xtb: 6.7.1 (edcfbbe)
C            8.97769347603975        3.28805705941414       -0.81590718993494
C            9.03137811011831        1.97556337449373       -1.25710531294087
C            7.96922400484345        1.12032365361408       -1.03247926174268
C            6.83882473130217        1.57288767808505       -0.35519764560864
C            5.69399690435183        0.70269023990391       -0.12306539463887
N            4.42415774815717        1.19127104667050       -0.19975273589908
C            3.63591940398221        0.16818746330649       -0.01328273357463
C            2.19061740932568        0.20780193294795       -0.02154286984690
C            1.52899443444469        1.41635130436935       -0.26017900430210
C            0.15069713102728        1.41917884201742       -0.27172127338482
C           -0.54313913027116        0.22793035050571       -0.04284991774814
C           -2.00689851815605        0.17438498582183       -0.03985913542635
C           -2.75569412460965        1.21346837560953        0.51152827243502
C           -4.13434290615812        1.16469451307325        0.52238577128231
C           -4.80091444305031        0.06782239311321       -0.01851155456130
N           -6.19893638344430        0.01359302339143       -0.00425192033442
C           -7.00951787837721       -0.27161182812914       -1.08633706823150
C           -6.66681085426176       -0.51230133651609       -2.40907489494295
C           -7.68975593023264       -0.74493872664335       -3.30845154380879
C           -9.02500645708166       -0.73106881025020       -2.91167894960279
C           -9.37333122739481       -0.46697283760811       -1.60225699167154
C           -8.36281681772816       -0.23021254042511       -0.67979313080285
C           -8.35942803052239        0.08999104395635        0.72028622294338
C           -9.36404670874686        0.24869847114492        1.66566876930784
C           -9.00755037329328        0.53928949854862        2.96725821651773
C           -7.66869021964710        0.65568653688679        3.33389959976400
C           -6.65152614565147        0.50216352897014        2.41131827436562
C           -7.00456902365035        0.23570550346400        1.09625716934729
C           -4.06093558889698       -0.97451252996475       -0.57188587943563
C           -2.68249323831517       -0.91845908775020       -0.58202483769890
C            0.22616925247741       -0.91569532828277        0.19251854039677
N            1.54010821262212       -0.93290523002743        0.20178712511236
O            4.30055660963244       -0.97889730557182        0.19203946022469
C            5.61532312905443       -0.65718660688662        0.13639933678769
C            6.59435950444042       -1.69653693728261        0.38950991296627
C            6.25959482357531       -3.02776516324354        0.13690225501844
C            7.17412230917234       -4.03393357556178        0.38019924740632
C            8.42823657677667       -3.72891051525168        0.88355042693487
C            8.75975332775208       -2.41072481411765        1.15525188323351
C            7.85184053285966       -1.39776496671773        0.91547533406335
C            6.78141925235031        2.89941427336696        0.06520426549037
C            7.84817268131243        3.74876673566048       -0.15976000151754
H            9.81187396133124        3.95158069211592       -0.99058686396103
H            9.90438263025102        1.61778283708404       -1.78331577096877
H            8.00623327461794        0.10231447577565       -1.39177981130849
H            2.10947962590408        2.30666013640383       -0.43705049285028
H           -0.39225892090098        2.33042957236954       -0.47795455163198
H           -2.25103960737094        2.06189228120007        0.94959162157106
H           -4.70477423726301        1.98203517499064        0.93753884938933
H           -5.63647883581574       -0.50649196743644       -2.73157415086651
H           -7.44823891818852       -0.93818038725417       -4.34329625975486
H           -9.79514005305629       -0.92062942449358       -3.64448308674794
H          -10.40860532116076       -0.43929246471968       -1.29747432985019
H          -10.40075155067148        0.14113373980353        1.38439244620269
H           -9.77318631637400        0.66922706164236        3.71756068566612
H           -7.41933579620351        0.86684525754501        4.36336848438817
H           -5.61675880509906        0.57507519573396        2.71058675221496
H           -4.57371893934652       -1.83298958160662       -0.97903110606717
H           -2.12043070805491       -1.72574239953463       -1.02731782851798
H           -0.24852533324166       -1.86534815369388        0.40352654145429
H            5.28004482727597       -3.25930341074036       -0.25345965125463
H            6.90820740078100       -5.06078400663913        0.17658948522446
H            9.14329090470834       -4.51620540622875        1.07062079184195
H            9.73107046959765       -2.17131896772749        1.56235906285828
H            8.10551681451498       -0.37456214638764        1.14673090337957
H            5.89270702558486        3.24702669777403        0.56897932442029
H            7.79920819945377        4.77436931952062        0.17601747673225

          :  Hamiltonian                  GFN2-xTB          :
         :: gradient norm              0.000060296300 Eh/a0 ::
         :: HOMO-LUMO gap              2.163939832788 eV    ::
         :: SCC energy              -108.931294964226 Eh    ::
         :: -> dispersion             -0.086740978023 Eh    ::
         :: repulsion energy           1.940292439719 Eh    ::

    * Orbital Energies and Occupations

         #    Occupation            Energy/Eh            Energy/eV
      -------------------------------------------------------------
         1        2.0000           -0.7495701             -20.3968
       ...           ...                  ...                  ...
        87        2.0000           -0.4207873             -11.4502
        88        2.0000           -0.4186997             -11.3934
        89        2.0000           -0.4168411             -11.3428
        90        2.0000           -0.4107962             -11.1783
        91        2.0000           -0.4097212             -11.1491
        92        2.0000           -0.4050826             -11.0229
        93        2.0000           -0.4048869             -11.0175
        94        2.0000           -0.4022627             -10.9461
        95        2.0000           -0.3944351             -10.7331
        96        2.0000           -0.3784789             -10.2989
        97        2.0000           -0.3738261             -10.1723
        98        2.0000           -0.3733643             -10.1598
        99        2.0000           -0.3622473              -9.8573 (HOMO)
       100                         -0.2827240              -7.6933 (LUMO)
       101                         -0.2572094              -6.9990
       102                         -0.2494538              -6.7880
       103                         -0.2451550              -6.6710
       104                         -0.2372726              -6.4565
       105                         -0.2351720              -6.3994
       106                         -0.2284419              -6.2162
       107                         -0.2225251              -6.0552
       108                         -0.2217173              -6.0332
       109                         -0.2178438              -5.9278
       110                         -0.1936171              -5.2686
       ...                                ...                  ...
       193                          0.7460747              20.3017
      -------------------------------------------------------------
                  HL-Gap            0.0795233 Eh            2.1639 eV

     #   Z          covCN         q      C6AA      α(0)
     1   6 C        2.920    -0.030    28.740     8.791
     2   6 C        2.919    -0.029    28.715     8.787
     3   6 C        2.923    -0.034    28.857     8.809
     4   6 C        2.974     0.011    27.766     8.643
     5   6 C        3.139     0.056    26.525     8.429
     6   7 N        1.891    -0.293    28.439     7.906
     7   6 C        3.210     0.207    23.080     7.820
     8   6 C        2.965     0.081    26.201     8.396
     9   6 C        2.917    -0.040    29.000     8.831
    10   6 C        2.931    -0.016    28.417     8.742
    11   6 C        2.972     0.001    27.995     8.679
    12   6 C        2.975     0.005    27.900     8.664
    13   6 C        2.924    -0.032    28.808     8.802
    14   6 C        2.920    -0.043    29.064     8.841
    15   6 C        2.913     0.065    26.544     8.448
    16   7 N        2.802    -0.043    22.077     6.978
    17   6 C        3.074     0.046    26.881     8.501
    18   6 C        2.910    -0.051    29.264     8.870
    19   6 C        2.924    -0.033    28.829     8.805
    20   6 C        2.920    -0.041    29.007     8.832
    21   6 C        2.913    -0.033    28.813     8.802
    22   6 C        3.068    -0.017    28.353     8.731
    23   6 C        3.068    -0.017    28.353     8.731
    24   6 C        2.913    -0.033    28.813     8.802
    25   6 C        2.920    -0.041    29.007     8.832
    26   6 C        2.924    -0.033    28.829     8.805
    27   6 C        2.910    -0.051    29.264     8.870
    28   6 C        3.075     0.046    26.881     8.501
    29   6 C        2.920    -0.042    29.051     8.839
    30   6 C        2.924    -0.033    28.824     8.804
    31   6 C        2.913     0.057    26.726     8.477
    32   7 N        1.842    -0.220    26.650     7.651
    33   8 O        1.728    -0.188    17.134     5.589
    34   6 C        3.095     0.100    25.672     8.304
    35   6 C        2.971     0.006    27.885     8.662
    36   6 C        2.926    -0.028    28.696     8.785
    37   6 C        2.918    -0.027    28.681     8.782
    38   6 C        2.920    -0.028    28.707     8.786
    39   6 C        2.919    -0.027    28.674     8.781
    40   6 C        2.923    -0.034    28.842     8.807
    41   6 C        2.926    -0.027    28.675     8.782
    42   6 C        2.919    -0.028    28.709     8.786
    43   1 H        0.926     0.032     2.558     2.501
    44   1 H        0.926     0.032     2.559     2.502
    45   1 H        0.926     0.031     2.576     2.510
    46   1 H        0.926     0.060     2.196     2.317
    47   1 H        0.926     0.042     2.427     2.436
    48   1 H        0.926     0.039     2.466     2.456
    49   1 H        0.926     0.043     2.405     2.425
    50   1 H        0.926     0.027     2.629     2.536
    51   1 H        0.926     0.029     2.596     2.519
    52   1 H        0.926     0.028     2.608     2.526
    53   1 H        0.926     0.031     2.567     2.506
    54   1 H        0.926     0.031     2.567     2.506
    55   1 H        0.926     0.028     2.608     2.526
    56   1 H        0.926     0.029     2.596     2.519
    57   1 H        0.926     0.027     2.628     2.535
    58   1 H        0.926     0.044     2.398     2.422
    59   1 H        0.926     0.040     2.454     2.450
    60   1 H        0.925     0.044     2.402     2.424
    61   1 H        0.926     0.047     2.351     2.398
    62   1 H        0.926     0.036     2.505     2.475
    63   1 H        0.926     0.035     2.521     2.483
    64   1 H        0.926     0.035     2.514     2.479
    65   1 H        0.926     0.037     2.486     2.466
    66   1 H        0.926     0.048     2.350     2.397
    67   1 H        0.926     0.033     2.538     2.491

molecular dipole:
                 x           y           z       tot (Debye)
 q only:        0.377       0.093       0.000
   full:        0.301       0.067      -0.015       0.785

 projected vibrational frequencies (cm⁻¹)
eigval :       -0.00    -0.00    -0.00     0.00     0.00     0.00
eigval :       10.29    10.65    16.57    30.63    34.08    40.20
eigval :       41.01    50.16    66.17    72.93    79.93    92.88
eigval :      103.64   109.30   118.76   130.27   145.47   147.47
eigval :      184.50   206.15   227.12   240.08   255.29   265.74
eigval :      271.51   276.20   298.13   335.27   354.21   367.83
eigval :      368.59   377.69   382.45   392.73   398.90   405.69
eigval :      419.02   423.85   437.34   439.79   467.14   489.72
eigval :      507.36   516.99   521.61   533.30   541.14   542.12
eigval :      567.52   582.90   587.44   592.54   595.91   614.79
eigval :      617.71   637.12   658.05   658.31   665.75   673.91
eigval :      680.29   689.92   693.87   698.91   708.84   725.36
eigval :      730.67   756.56   761.36   766.88   769.79   780.98
eigval :      788.92   814.75   842.20   866.60   873.99   875.62
eigval :      879.47   880.38   897.85   901.04   902.65   902.80
eigval :      903.55   907.74   919.49   921.23   926.61   928.24
eigval :      928.71   930.40   930.55   931.66   935.26   937.09
eigval :      943.61   967.09   976.43  1002.43  1012.09  1022.65
eigval :     1025.57  1070.66  1074.21  1080.69  1081.08  1082.36
eigval :     1106.02  1117.62  1118.20  1120.00  1121.29  1136.22
eigval :     1144.66  1153.17  1176.71  1181.33  1181.68  1181.84
eigval :     1184.04  1191.13  1197.73  1204.59  1209.66  1236.59
eigval :     1244.18  1245.97  1251.56  1269.15  1278.28  1282.31
eigval :     1283.15  1288.88  1300.62  1302.88  1316.09  1319.35
eigval :     1322.50  1329.80  1357.58  1361.92  1367.94  1370.52
eigval :     1383.60  1410.73  1427.40  1428.26  1430.09  1433.61
eigval :     1443.25  1453.07  1476.17  1484.53  1488.14  1500.15
eigval :     1536.44  1539.35  1555.67  1559.92  1569.19  1575.46
eigval :     1577.94  1582.37  1589.31  1593.87  1597.48  1599.24
eigval :     1599.32  1615.07  3055.48  3073.21  3074.50  3076.45
eigval :     3076.80  3076.98  3077.30  3081.36  3081.51  3082.42
eigval :     3083.16  3085.59  3085.67  3088.49  3090.08  3091.16
eigval :     3092.06  3095.38  3095.82  3096.96  3097.42  3098.19
eigval :     3100.37  3101.96  3116.40

   temp. (K)  partition function   enthalpy   heat capacity  entropy
                                   cal/mol     cal/K/mol   cal/K/mol   J/K/mol
 298.15  VIB  0.106E+16            18803.343    119.083    117.613
         ROT  0.879E+08              888.752      2.981     39.330
         INT  0.931E+23            19692.095    122.064    156.943
         TR   0.121E+29             1481.254      4.968     44.722
         TOT                       21173.3492   127.0320   201.6654   843.7678

       T/K    H(0)-H(T)+PV         H(T)/Eh          T*S/Eh         G(T)/Eh
   ------------------------------------------------------------------------
    298.15    0.337419E-01    0.543843E+00    0.958177E-01    0.448025E+00
   ------------------------------------------------------------------------

         :::::::::::::::::::::::::::::::::::::::::::::::::::::
         ::                  THERMODYNAMIC                  ::
         :::::::::::::::::::::::::::::::::::::::::::::::::::::
         :: total free energy        -106.542977472172 Eh   ::
         ::.................................................::
         :: total energy             -106.991002524507 Eh   ::
         :: zero point energy           0.510100890727 Eh   ::
         :: G(RRHO) w/o ZPVE           -0.062075838393 Eh   ::
         :: G(RRHO) contrib.            0.448025052334 Eh   ::
         :::::::::::::::::::::::::::::::::::::::::::::::::::::

           -------------------------------------------------
          | TOTAL ENERGY             -106.991002524507 Eh   |
          | TOTAL ENTHALPY           -106.447159754136 Eh   |
          | TOTAL FREE ENERGY        -106.542977472172 Eh   |
          | GRADIENT NORM               0.000060292677 Eh/α |
          | HOMO-LUMO GAP               2.163939678519 eV   |
           -------------------------------------------------

 * finished run on 2025/07/18 at 15:20:50.755
