   * xtb version 6.7.1 (edcfbbe) compiled by 'albert@albert-system' on 2024-07-22

   ID    Z sym.   atoms
    1    6 C      1-5, 7-15, 17-31, 34-42
    2    7 N      6, 16, 32
    3    8 O      33
    4    1 H      43-67

          program call               : xtb data2507/gas/CzPh-PPO/CzPh-PPO.xyz --gfn 2 --ohess vtight --parallel 40 --molden --ceasefiles --namespace data2507/gas/CzPh-PPO/CzPh-PPO_gas_S0_preOpt
          :  Hamiltonian                  GFN2-xTB          :
 * total energy  :  -106.9702140 Eh     change       -0.1338492E-08 Eh
 * total energy  :  -106.9822368 Eh     change       -0.1202285E-01 Eh
 * total energy  :  -106.9848219 Eh     change       -0.2585096E-02 Eh
 * total energy  :  -106.9855869 Eh     change       -0.7649963E-03 Eh
 * total energy  :  -106.9862865 Eh     change       -0.6995627E-03 Eh
 * total energy  :  -106.9865606 Eh     change       -0.2741048E-03 Eh
 * total energy  :  -106.9867199 Eh     change       -0.1592984E-03 Eh
 * total energy  :  -106.9868402 Eh     change       -0.1203340E-03 Eh
 * total energy  :  -106.9869539 Eh     change       -0.1137006E-03 Eh
 * total energy  :  -106.9870786 Eh     change       -0.1246613E-03 Eh
 * total energy  :  -106.9878652 Eh     change       -0.1322825E-05 Eh
 * total energy  :  -106.9878662 Eh     change       -0.9883259E-06 Eh
 * total energy  :  -106.9878670 Eh     change       -0.7982567E-06 Eh
 * total energy  :  -106.9878677 Eh     change       -0.7226973E-06 Eh
 * total energy  :  -106.9878684 Eh     change       -0.7176107E-06 Eh
 * total energy  :  -106.9878692 Eh     change       -0.7846892E-06 Eh
 * total energy  :  -106.9878702 Eh     change       -0.9245299E-06 Eh
 * total energy  :  -106.9878713 Eh     change       -0.1118106E-05 Eh
 * total energy  :  -106.9878713 Eh     change       -0.6189396E-08 Eh
   *** GEOMETRY OPTIMIZATION CONVERGED AFTER 68 ITERATIONS ***

 final structure:
================
67
 xtb: 6.7.1 (edcfbbe)
C            8.78956857497780        3.59242072725673       -0.09348989660006
C            8.94973814539514        2.37781467984213       -0.74085372961459
C            7.93818418121349        1.43617888777986       -0.71755026083788
C            6.75233447418327        1.70228252570738       -0.03634956986275
C            5.65718602582459        0.74332895918978       -0.00148934801271
N            4.36368671920552        1.17152939284557        0.01057893177676
C            3.62766373544067        0.10106443376549       -0.01544990832823
C            2.18245693680154        0.02531212823257       -0.01056255106256
C            1.53886284816598       -1.21426281870032        0.06692031286737
C            0.15993815473723       -1.24375144189902        0.06915186981483
C           -0.55312949803860       -0.04648084735013       -0.00886100938009
C           -2.01724263085749       -0.01922852227708       -0.01078793293076
C           -2.71250978110487        0.85247624953398       -0.84788963014556
C           -4.09182288133114        0.87409481913891       -0.85658086799557
C           -4.81221911167494        0.03737280206247       -0.00665205786549
N           -6.21045159810441        0.06472944755791       -0.00443311010018
C           -7.04102096480315       -1.03790080400093       -0.07302349418941
C           -6.72046200371547       -2.38055797875436       -0.21333008329856
C           -7.75959678807193       -3.28872487084695       -0.28386930540901
C           -9.08963602508556       -2.87884877424611       -0.22738759361333
C           -9.41540034848651       -1.54196733105609       -0.11646839150561
C           -8.38815339825901       -0.61062649927029       -0.04349782628411
C           -8.36056147184229        0.82212942805052        0.05200275591601
C           -9.35139457417389        1.79152610218307        0.13320689142204
C           -8.97436874828212        3.11507662889566        0.24105517415898
C           -7.62932741110467        3.47443202144750        0.28627683836809
C           -6.62570000289878        2.52780059610843        0.20760224047436
C           -6.99811864349647        1.19827454653526        0.07061366169218
C           -4.12427392343604       -0.82746034976000        0.84171977490877
C           -2.74529625466130       -0.86120503586928        0.82874434449677
C            0.19818819421839        1.13197172057383       -0.07658939789513
N            1.51020393718176        1.17253987724671       -0.07634735313189
O            4.35472290907998       -1.03835510717966       -0.04003873513080
C            5.65330737415266       -0.64195438220367       -0.02041534641858
C            6.68612904555309       -1.65943731466670        0.02344117132414
C            6.45180656114171       -2.90586897624340       -0.55839882614971
C            7.42168870413179       -3.88872328294175       -0.51652886740728
C            8.63237883273440       -3.64559643771460        0.11092194518556
C            8.86482995478696       -2.41588869434215        0.70712131782119
C            7.90095409504204       -1.42741302086160        0.66977096640904
C            6.58692032098900        2.93524185528910        0.59087727137503
C            7.60343945608662        3.87089132613069        0.56586101012782
H            9.58494569787020        4.32306012336367       -0.11135918929819
H            9.86670722828824        2.16490623394583       -1.27099689885660
H            8.05928152919241        0.49791043482662       -1.23891764574128
H            2.11949659642076       -2.12181935741657        0.12122448711442
H           -0.36676000404966       -2.18671784063198        0.11008668707514
H           -2.16399805486743        1.49465450624539       -1.52077822814806
H           -4.62119579848541        1.52669270231134       -1.53433640491490
H           -5.69402671809592       -2.70858362015590       -0.27895435418710
H           -7.53489303834339       -4.33996246506794       -0.38892990915376
H           -9.87304255049928       -3.62001266025918       -0.28190224021286
H          -10.44596753834264       -1.22151593279720       -0.09099441271565
H          -10.39348425525857        1.51008902227727        0.11635485472622
H           -9.72876585166285        3.88526683142630        0.30185691327511
H           -7.36414983861120        4.51636850306862        0.38888573767042
H           -5.58721826594278        2.81703322602384        0.26448725643046
H           -4.67766098879086       -1.45759774302095        1.52165502369808
H           -2.22292661395470       -1.52441662782676        1.50256539802470
H           -0.29419788142585        2.09512109378549       -0.11418333632026
H            5.50784353641029       -3.09037460569245       -1.04949821071843
H            7.23328983678706       -4.84795237179284       -0.97602032264664
H            9.39077704231240       -4.41366244408400        0.14061148209596
H            9.80232563241170       -2.22834415599462        1.20937950361038
H            8.07615397147764       -0.47694498481248        1.15011209186566
H            5.65299885610165        3.14038627807370        1.09043880475331
H            7.47095934944883        4.82217718901354        1.06018852761692

          :  Hamiltonian                  GFN2-xTB          :
         :: gradient norm              0.000065603357 Eh/a0 ::
         :: HOMO-LUMO gap              2.169533569077 eV    ::
         :: SCC energy              -108.928426744318 Eh    ::
         :: -> dispersion             -0.086795682358 Eh    ::
         :: repulsion energy           1.940555461798 Eh    ::

    * Orbital Energies and Occupations

         #    Occupation            Energy/Eh            Energy/eV
      -------------------------------------------------------------
         1        2.0000           -0.7521804             -20.4679
       ...           ...                  ...                  ...
        87        2.0000           -0.4207879             -11.4502
        88        2.0000           -0.4186239             -11.3913
        89        2.0000           -0.4168674             -11.3435
        90        2.0000           -0.4133830             -11.2487
        91        2.0000           -0.4101846             -11.1617
        92        2.0000           -0.4053403             -11.0299
        93        2.0000           -0.4026596             -10.9569
        94        2.0000           -0.4017418             -10.9319
        95        2.0000           -0.3888741             -10.5818
        96        2.0000           -0.3787556             -10.3065
        97        2.0000           -0.3742900             -10.1849
        98        2.0000           -0.3701620             -10.0726
        99        2.0000           -0.3625920              -9.8666 (HOMO)
       100                         -0.2828631              -7.6971 (LUMO)
       101                         -0.2577967              -7.0150
       102                         -0.2496361              -6.7929
       103                         -0.2453927              -6.6775
       104                         -0.2372035              -6.4546
       105                         -0.2350773              -6.3968
       106                         -0.2312795              -6.2934
       107                         -0.2220112              -6.0412
       108                         -0.2202203              -5.9925
       109                         -0.2186110              -5.9487
       110                         -0.1939350              -5.2772
       ...                                ...                  ...
       193                          0.7457580              20.2931
      -------------------------------------------------------------
                  HL-Gap            0.0797289 Eh            2.1695 eV

     #   Z          covCN         q      C6AA      α(0)
     1   6 C        2.920    -0.029    28.736     8.791
     2   6 C        2.919    -0.029    28.725     8.789
     3   6 C        2.923    -0.035    28.871     8.811
     4   6 C        2.974     0.011    27.764     8.643
     5   6 C        3.139     0.055    26.529     8.429
     6   7 N        1.889    -0.263    27.690     7.801
     7   6 C        3.199     0.206    23.176     7.846
     8   6 C        2.964     0.080    26.207     8.397
     9   6 C        2.917    -0.040    29.000     8.831
    10   6 C        2.931    -0.018    28.454     8.748
    11   6 C        2.973     0.002    27.988     8.678
    12   6 C        2.975     0.005    27.905     8.665
    13   6 C        2.924    -0.033    28.823     8.804
    14   6 C        2.920    -0.042    29.055     8.839
    15   6 C        2.913     0.065    26.546     8.449
    16   7 N        2.802    -0.043    22.066     6.977
    17   6 C        3.074     0.046    26.883     8.501
    18   6 C        2.910    -0.051    29.265     8.871
    19   6 C        2.924    -0.033    28.833     8.806
    20   6 C        2.920    -0.041    29.006     8.832
    21   6 C        2.913    -0.033    28.812     8.802
    22   6 C        3.068    -0.016    28.349     8.731
    23   6 C        3.068    -0.016    28.351     8.731
    24   6 C        2.913    -0.033    28.813     8.802
    25   6 C        2.920    -0.040    29.002     8.831
    26   6 C        2.924    -0.033    28.825     8.804
    27   6 C        2.910    -0.051    29.260     8.870
    28   6 C        3.074     0.046    26.882     8.501
    29   6 C        2.920    -0.043    29.073     8.842
    30   6 C        2.924    -0.032    28.807     8.802
    31   6 C        2.914     0.057    26.717     8.476
    32   7 N        1.843    -0.209    26.369     7.610
    33   8 O        1.728    -0.217    17.603     5.665
    34   6 C        3.083     0.101    25.686     8.308
    35   6 C        2.971     0.006    27.885     8.662
    36   6 C        2.926    -0.028    28.703     8.786
    37   6 C        2.918    -0.028    28.693     8.784
    38   6 C        2.920    -0.028    28.709     8.787
    39   6 C        2.919    -0.026    28.662     8.779
    40   6 C        2.923    -0.033    28.826     8.805
    41   6 C        2.927    -0.026    28.663     8.780
    42   6 C        2.919    -0.028    28.696     8.785
    43   1 H        0.926     0.032     2.561     2.503
    44   1 H        0.926     0.031     2.571     2.508
    45   1 H        0.926     0.029     2.596     2.520
    46   1 H        0.926     0.047     2.354     2.399
    47   1 H        0.926     0.039     2.461     2.453
    48   1 H        0.926     0.040     2.445     2.445
    49   1 H        0.926     0.044     2.394     2.419
    50   1 H        0.926     0.027     2.632     2.537
    51   1 H        0.926     0.029     2.600     2.522
    52   1 H        0.926     0.028     2.608     2.526
    53   1 H        0.926     0.031     2.565     2.505
    54   1 H        0.926     0.031     2.566     2.505
    55   1 H        0.926     0.029     2.604     2.524
    56   1 H        0.926     0.030     2.587     2.515
    57   1 H        0.926     0.028     2.615     2.529
    58   1 H        0.926     0.043     2.406     2.425
    59   1 H        0.926     0.038     2.479     2.462
    60   1 H        0.925     0.047     2.357     2.401
    61   1 H        0.926     0.040     2.447     2.446
    62   1 H        0.926     0.035     2.517     2.481
    63   1 H        0.926     0.035     2.516     2.480
    64   1 H        0.926     0.036     2.500     2.473
    65   1 H        0.926     0.039     2.466     2.456
    66   1 H        0.926     0.054     2.265     2.353
    67   1 H        0.926     0.034     2.526     2.485

molecular dipole:
                 x           y           z       tot (Debye)
 q only:        0.354      -0.483       0.084
   full:        0.301      -1.188       0.072       3.121

 projected vibrational frequencies (cm⁻¹)
eigval :       -0.00    -0.00    -0.00     0.00     0.00     0.00
eigval :        9.31    11.09    15.83    31.09    35.21    39.62
eigval :       41.18    49.17    62.37    72.62    84.56    88.56
eigval :      104.48   111.15   119.73   129.18   141.36   146.32
eigval :      188.87   206.05   228.24   239.78   252.50   265.75
eigval :      271.65   275.94   298.63   329.32   360.59   368.61
eigval :      376.85   377.96   385.35   387.79   396.92   398.99
eigval :      419.03   424.00   437.96   438.88   467.07   488.70
eigval :      508.10   516.86   522.48   534.03   541.13   543.06
eigval :      565.95   582.63   587.42   592.46   596.20   611.81
eigval :      619.24   635.83   657.78   657.90   665.61   674.07
eigval :      678.73   690.51   693.84   697.70   708.93   724.80
eigval :      730.65   756.65   760.90   767.05   769.83   780.99
eigval :      788.82   814.55   837.40   866.24   874.01   875.45
eigval :      879.91   880.61   897.58   900.76   902.54   902.66
eigval :      903.67   908.12   919.54   921.17   925.93   928.28
eigval :      928.54   929.63   930.61   931.78   935.75   937.32
eigval :      942.99   961.73   976.07  1000.73  1012.03  1021.26
eigval :     1024.46  1070.98  1074.58  1080.45  1082.06  1083.56
eigval :     1104.38  1112.07  1118.03  1118.30  1120.64  1136.78
eigval :     1152.26  1153.80  1176.75  1181.29  1181.62  1181.75
eigval :     1183.87  1191.13  1197.37  1204.18  1210.78  1236.34
eigval :     1239.43  1244.73  1250.42  1267.57  1277.46  1280.98
eigval :     1282.15  1287.83  1300.04  1302.08  1312.04  1317.45
eigval :     1320.97  1322.66  1357.58  1361.83  1366.03  1367.82
eigval :     1384.90  1409.97  1428.02  1429.18  1430.06  1433.72
eigval :     1448.08  1453.57  1476.06  1484.16  1488.04  1500.94
eigval :     1528.61  1551.86  1557.15  1559.99  1571.96  1575.61
eigval :     1577.85  1582.74  1589.20  1594.01  1596.52  1599.01
eigval :     1599.20  1614.99  3056.28  3071.16  3072.44  3076.45
eigval :     3076.90  3077.29  3077.41  3081.17  3081.19  3082.05
eigval :     3083.01  3085.40  3085.69  3088.93  3089.69  3090.62
eigval :     3091.53  3094.89  3095.48  3096.05  3097.23  3097.89
eigval :     3099.59  3100.38  3106.50

   temp. (K)  partition function   enthalpy   heat capacity  entropy
                                   cal/mol     cal/K/mol   cal/K/mol   J/K/mol
 298.15  VIB  0.121E+16            18814.127    119.092    117.772
         ROT  0.879E+08              888.752      2.981     39.331
         INT  0.106E+24            19702.880    122.073    157.104
         TR   0.121E+29             1481.254      4.968     44.722
         TOT                       21184.1337   127.0408   201.8259   844.4397

       T/K    H(0)-H(T)+PV         H(T)/Eh          T*S/Eh         G(T)/Eh
   ------------------------------------------------------------------------
    298.15    0.337591E-01    0.543714E+00    0.958940E-01    0.447820E+00
   ------------------------------------------------------------------------

         :::::::::::::::::::::::::::::::::::::::::::::::::::::
         ::                  THERMODYNAMIC                  ::
         :::::::::::::::::::::::::::::::::::::::::::::::::::::
         :: total free energy        -106.540051651268 Eh   ::
         ::.................................................::
         :: total energy             -106.987871282519 Eh   ::
         :: zero point energy           0.509954581373 Eh   ::
         :: G(RRHO) w/o ZPVE           -0.062134950123 Eh   ::
         :: G(RRHO) contrib.            0.447819631251 Eh   ::
         :::::::::::::::::::::::::::::::::::::::::::::::::::::

           -------------------------------------------------
          | TOTAL ENERGY             -106.987871282519 Eh   |
          | TOTAL ENTHALPY           -106.444157635244 Eh   |
          | TOTAL FREE ENERGY        -106.540051651268 Eh   |
          | GRADIENT NORM               0.000065603186 Eh/α |
          | HOMO-LUMO GAP               2.169533420825 eV   |
           -------------------------------------------------

 * finished run on 2025/07/18 at 15:18:20.835
