   * xtb version 6.7.1 (edcfbbe) compiled by 'albert@albert-system' on 2024-07-22

   ID    Z sym.   atoms
    1    6 C      1-5, 7-15, 17-31, 34-42
    2    7 N      6, 16, 32
    3    8 O      33
    4    1 H      43-67

          program call               : xtb data2507/gas/CzPh-PPO/CzPh-PPO_gas_S0_finalOpt.xtbopt.xyz --gfn 2 --spinpol --tblite --uhf 2 --ohess vtight --parallel 40 --molden --ceasefiles --namespace data2507/gas/CzPh-PPO/CzPh-PPO_gas_T1_preOpt
 * total energy  :  -106.9034349 Eh     change       -0.2421905E-07 Eh
 * total energy  :  -106.9096952 Eh     change       -0.6260289E-02 Eh
 * total energy  :  -106.9119462 Eh     change       -0.2251005E-02 Eh
 * total energy  :  -106.9121626 Eh     change       -0.2164655E-03 Eh
 * total energy  :  -106.9124269 Eh     change       -0.2642503E-03 Eh
 * total energy  :  -106.9125425 Eh     change       -0.1156381E-03 Eh
 * total energy  :  -106.9126565 Eh     change       -0.1139729E-03 Eh
 * total energy  :  -106.9127271 Eh     change       -0.7062408E-04 Eh
 * total energy  :  -106.9127590 Eh     change       -0.3189360E-04 Eh
 * total energy  :  -106.9127875 Eh     change       -0.2848497E-04 Eh
 * total energy  :  -106.9131861 Eh     change       -0.4928963E-06 Eh
 * total energy  :  -106.9131869 Eh     change       -0.7753500E-06 Eh
 * total energy  :  -106.9131877 Eh     change       -0.8236379E-06 Eh
 * total energy  :  -106.9131887 Eh     change       -0.9465132E-06 Eh
 * total energy  :  -106.9131897 Eh     change       -0.1014982E-05 Eh
 * total energy  :  -106.9131908 Eh     change       -0.1071174E-05 Eh
 * total energy  :  -106.9131918 Eh     change       -0.1066954E-05 Eh
 * total energy  :  -106.9131929 Eh     change       -0.1087684E-05 Eh
 * total energy  :  -106.9131929 Eh     change       -0.6690783E-08 Eh
   *** GEOMETRY OPTIMIZATION CONVERGED AFTER 68 ITERATIONS ***

 final structure:
================
67
 xtb: 6.7.1 (edcfbbe)
C            8.91347963160921        3.33365505098911       -0.76354887120269
C            8.91294998645343        2.07189614159339       -1.33739272065827
C            7.86956578926352        1.19815288108061       -1.09888201942028
C            6.80985910478475        1.58186939338900       -0.27620685647615
C            5.67660632266466        0.70173849523379       -0.04455823543682
N            4.43449329570466        1.18478851037935       -0.02329069919447
C            3.62162461389140        0.13046163557234        0.10004305473259
C            2.22904581998888        0.17955905542100        0.14387545948921
C            1.53515302249483        1.42515562083080        0.03238955598995
C            0.17966307841750        1.43191999704015       -0.01614507026167
C           -0.55718759194062        0.21043821675794        0.04811955505816
C           -1.98860339621926        0.15934076632260        0.04187416467821
C           -2.76794275585634        1.26670518741204        0.43943820047441
C           -4.13891241762346        1.22086564440809        0.42629829475889
C           -4.80652787095228        0.06711156262515        0.00207454582798
N           -6.20112937637066        0.02092303402273       -0.01745826656625
C           -6.98182490452245       -0.40541089660808       -1.07431030964719
C           -6.60115419922912       -0.81781745396215       -2.34380111817614
C           -7.59888047014094       -1.16326182649438       -3.23579653630393
C           -8.94477163823597       -1.09305086077020       -2.88451757130875
C           -9.33083664631884       -0.65673145578996       -1.63127679257257
C           -8.34709549316767       -0.30496780803514       -0.71859804664699
C           -8.38193185808215        0.20216898340488        0.62619500289440
C           -9.41074860322654        0.48742017340457        1.51196287247954
C           -9.08795167864780        0.94783786327989        2.77447343489612
C           -7.75952490971749        1.10709278090784        3.16132664856535
C           -6.71770375095615        0.82889376873333        2.29666149619802
C           -7.03628769478580        0.39285164065627        1.01796784066337
C           -4.05311777105222       -1.04102305164956       -0.40037222738011
C           -2.68227913882784       -0.99810203185234       -0.37105828872753
C            0.23222508346338       -0.96087513690071        0.20291925497600
N            1.52194701021863       -0.97579807952911        0.26867470168550
O            4.30936464322413       -1.05205918759140        0.15919502579312
C            5.63095253787328       -0.70824910463870        0.10539566449094
C            6.61453225278226       -1.71892000855460        0.29179673785205
C            6.24329122535821       -3.07207634625583        0.15882479749182
C            7.17071972739945       -4.07265976814204        0.33493232867761
C            8.48625714128575       -3.76283752623756        0.65879922991728
C            8.85920627124603       -2.43387624798655        0.82143349438268
C            7.94382686611612       -1.42070484035164        0.64710716327757
C            6.80315252666692        2.86290405899412        0.27423099630182
C            7.85360494668185        3.72817908927110        0.03767036190148
H            9.73434262548489        4.01075583901725       -0.94857796226639
H            9.72843335937134        1.76939437923312       -1.97798306597570
H            7.85958317422014        0.22363347557957       -1.56470625808299
H            2.12819587000180        2.31884954578206       -0.07001209111830
H           -0.35034519882757        2.36222970577587       -0.15533339759363
H           -2.27781427694014        2.16691475297622        0.77655602152657
H           -4.71512719299221        2.08625685157135        0.71914969128107
H           -5.56196663514744       -0.85505522987397       -2.63280809035770
H           -7.32841172023068       -1.49001233665453       -4.22884221698950
H           -9.69463845144184       -1.37381155330649       -3.60883164676994
H          -10.37466426647747       -0.58381745007565       -1.36611527629332
H          -10.44002972436855        0.34558207027683        1.21928542049749
H           -9.87379884010341        1.17774989950377        3.47827866024543
H           -7.53785178894315        1.45051441189908        4.16081846780972
H           -5.69133043551023        0.93424193166030        2.61333089188601
H           -4.56295956112298       -1.94152116914544       -0.70981604359239
H           -2.12486220370348       -1.86460615459490       -0.69200936785662
H           -0.24767918598459       -1.91759773557903        0.36532566083135
H            5.22037803462112       -3.30497135618393       -0.09388588700510
H            6.87438156175215       -5.10520248539759        0.22074632467916
H            9.21212258831137       -4.55015835539467        0.79523821843365
H            9.87526601281442       -2.19196568809008        1.09759270955289
H            8.23481245905612       -0.39511275057296        0.81139765661034
H            5.96742867425376        3.15797869068096        0.88950558891730
H            7.84695990713376        4.71526859425108        0.47623570256764

 projected vibrational frequencies (cm⁻¹)
eigval :       -0.00    -0.00    -0.00     0.00     0.00     0.00
eigval :        9.72    12.23    17.97    30.26    36.80    41.10
eigval :       44.32    57.44    62.76    77.32    86.34    97.23
eigval :      102.38   110.27   115.32   140.69   145.40   150.11
eigval :      168.53   204.11   223.31   231.26   241.33   264.10
eigval :      269.11   271.93   291.22   327.02   348.64   358.38
eigval :      367.56   375.45   379.65   388.94   392.71   399.06
eigval :      413.33   421.91   423.71   436.10   449.17   460.94
eigval :      493.33   500.38   509.39   517.36   538.24   539.02
eigval :      565.10   578.32   580.98   585.50   591.07   593.46
eigval :      614.97   616.18   628.21   648.48   652.07   657.05
eigval :      664.60   674.25   678.48   684.94   687.23   709.00
eigval :      720.04   746.78   750.22   758.83   764.96   769.73
eigval :      779.88   787.46   808.32   841.45   853.08   857.66
eigval :      872.28   872.80   876.95   886.62   894.53   896.16
eigval :      902.52   902.71   903.10   907.16   916.16   918.83
eigval :      920.16   923.58   924.02   925.09   928.87   929.94
eigval :      934.83   937.27   939.29   965.01   997.78  1001.61
eigval :     1011.61  1039.89  1053.68  1069.73  1071.19  1072.99
eigval :     1079.13  1083.56  1114.70  1116.96  1120.20  1126.83
eigval :     1141.87  1149.61  1162.34  1176.05  1179.22  1180.09
eigval :     1180.34  1181.88  1189.78  1197.69  1206.05  1227.13
eigval :     1233.72  1242.75  1243.63  1262.96  1265.14  1275.79
eigval :     1276.55  1280.64  1293.09  1296.17  1306.44  1321.02
eigval :     1325.04  1329.99  1344.11  1351.75  1354.26  1358.66
eigval :     1364.89  1394.83  1416.70  1420.38  1422.80  1424.37
eigval :     1430.04  1432.93  1444.25  1467.08  1470.21  1477.29
eigval :     1485.08  1487.37  1501.10  1529.10  1533.85  1560.13
eigval :     1571.57  1573.85  1576.15  1580.50  1585.38  1588.94
eigval :     1592.75  1607.12  3045.80  3074.83  3075.98  3077.42
eigval :     3078.97  3079.24  3079.99  3080.42  3082.32  3083.50
eigval :     3085.23  3086.62  3086.93  3092.56  3093.05  3093.16
eigval :     3094.14  3097.19  3098.31  3098.63  3099.50  3103.37
eigval :     3104.27  3104.47  3112.83

   temp. (K)  partition function   enthalpy   heat capacity  entropy
                                   cal/mol     cal/K/mol   cal/K/mol   J/K/mol
 298.15  VIB  0.863E+15            19072.739    121.435    118.834
         ROT  0.880E+08              888.752      2.981     39.334
         INT  0.759E+23            19961.491    124.416    158.168
         TR   0.121E+29             1481.254      4.968     44.722
         TOT                       21442.7449   129.3841   202.8908   848.8949

       T/K    H(0)-H(T)+PV         H(T)/Eh          T*S/Eh         G(T)/Eh
   ------------------------------------------------------------------------
    298.15    0.341712E-01    0.540175E+00    0.963999E-01    0.443775E+00
   ------------------------------------------------------------------------

         :::::::::::::::::::::::::::::::::::::::::::::::::::::
         ::                  THERMODYNAMIC                  ::
         :::::::::::::::::::::::::::::::::::::::::::::::::::::
         :: total free energy        -106.469417841070 Eh   ::
         ::.................................................::
         :: total energy             -106.913192909061 Eh   ::
         :: zero point energy           0.506003822978 Eh   ::
         :: G(RRHO) w/o ZPVE           -0.062228754987 Eh   ::
         :: G(RRHO) contrib.            0.443775067991 Eh   ::
         :::::::::::::::::::::::::::::::::::::::::::::::::::::

           -------------------------------------------------
          | TOTAL ENERGY             -106.913192909061 Eh   |
          | TOTAL ENTHALPY           -106.373017897069 Eh   |
          | TOTAL FREE ENERGY        -106.469417841070 Eh   |
          | GRADIENT NORM               0.000057996405 Eh/α |
           -------------------------------------------------

 * finished run on 2025/07/18 at 15:20:59.676
