   * xtb version 6.7.1 (edcfbbe) compiled by 'albert@albert-system' on 2024-07-22

   ID    Z sym.   atoms
    1    6 C      1-4, 6-21
    2    7 N      5
    3    1 H      22-34

          program call               : xtb data2507/toluene/indenoacridine/indenoacridine_toluene_S0_finalOpt.xtbopt.xyz --gfn 2 --uhf 2 --gbsa toluene --ohess vtight --parallel 40 --molden --ceasefiles --namespace data2507/toluene/indenoacridine/indenoacridine_toluene_T1_preOpt
      * Solvation model:               GBSA
        Solvent                        toluene
        Solvent mass                       9.2140E+01 g/mol
          :  Hamiltonian                  GFN2-xTB          :
 * total energy  :   -52.3555841 Eh     change       -0.8239951E-09 Eh
 * total energy  :   -52.3585363 Eh     change       -0.2952235E-02 Eh
 * total energy  :   -52.3594145 Eh     change       -0.8782204E-03 Eh
 * total energy  :   -52.3594418 Eh     change       -0.2731067E-04 Eh
 * total energy  :   -52.3594499 Eh     change       -0.8081879E-05 Eh
 * total energy  :   -52.3594505 Eh     change       -0.5589024E-06 Eh
 * total energy  :   -52.3594499 Eh     change        0.5853905E-06 Eh
 * total energy  :   -52.3594506 Eh     change       -0.6659192E-06 Eh
 * total energy  :   -52.3594506 Eh     change       -0.1706825E-07 Eh
   *** GEOMETRY OPTIMIZATION CONVERGED AFTER 9 ITERATIONS ***

 final structure:
================
34
 xtb: 6.7.1 (edcfbbe)
C           -5.16086776360469       -1.53193420402699       -0.00224358896803
C           -5.57646321024838       -0.20474490183667       -0.00287929883823
C           -4.63741724557559        0.81681808645564       -0.00285667133536
C           -3.28245339553107        0.51741653394339       -0.00223502650236
N           -2.34060740035593        1.51410464043925       -0.00212451696125
C           -0.98178983326418        1.28834169074287       -0.00172766239003
C           -0.09944675663249        2.37410997319296       -0.00167218264887
C            1.27389889991142        2.18340240931011       -0.00151253517435
C            1.76308965591150        0.88307211269233       -0.00147468033576
C            3.11996134013641        0.36826319147003       -0.00167912723337
C            4.34889310861697        0.98699025985947       -0.00198344530492
C            5.49951311882872        0.19630608043731       -0.00236164184453
C            5.41526316151723       -1.18987269339446       -0.00241229445207
C            4.18633899675903       -1.83102346920564       -0.00206821947243
C            3.02556888122767       -1.05823448625256       -0.00170586358344
C            1.65821545209570       -1.41804951547817       -0.00146323034905
C            0.88522278618865       -0.23369044484269       -0.00137762653139
C           -0.52093729853161       -0.04908552310383       -0.00143514216675
C           -1.45943953657641       -1.09936898432705       -0.00130565874688
C           -2.83762427737483       -0.83489752839557       -0.00169995188264
C           -3.81945616321498       -1.84585207656602       -0.00166877527199
H           -5.89732125071184       -2.32252375070388       -0.00221622937641
H           -6.62902202022088        0.03479404696682       -0.00338404393989
H           -4.95500546915628        1.85017913535565       -0.00332336876899
H           -2.66324456562856        2.47249578455498       -0.00247113293600
H           -0.50564811887662        3.37606140518981       -0.00180071085134
H            1.94282984841200        3.02985159146587       -0.00148672911805
H            4.43203288660686        2.06442763783202       -0.00196704353185
H            6.47010437483299        0.67093059759164       -0.00264446061761
H            6.32335170542084       -1.77588298300514       -0.00274488373317
H            4.12704161917889       -2.91014993676657       -0.00212297720430
H            1.28133560015574       -2.42414557162322       -0.00142334977111
H           -1.11887301685665       -2.12165954823831       -0.00095643586301
H           -3.49768671531016       -2.87689267803937       -0.00119749858298

          :  Hamiltonian                  GFN2-xTB          :
         :: gradient norm              0.000023865690 Eh/a0 ::
         :: HOMO-LUMO gap              1.304686093138 eV    ::
         :: SCC energy               -53.351633590959 Eh    ::
         :: -> dispersion             -0.041424531732 Eh    ::
         :: -> Gsolv                  -0.021519458878 Eh    ::
         :: repulsion energy           0.992183006928 Eh    ::

    * Orbital Energies and Occupations

         #    Occupation            Energy/Eh            Energy/eV
      -------------------------------------------------------------
         1        2.0000           -0.6733399             -18.3225
       ...           ...                  ...                  ...
        38        2.0000           -0.4354555             -11.8493
        39        2.0000           -0.4327467             -11.7756
        40        2.0000           -0.4289687             -11.6728
        41        2.0000           -0.4275978             -11.6355
        42        2.0000           -0.4197558             -11.4221
        43        2.0000           -0.4147907             -11.2870
        44        2.0000           -0.4145835             -11.2814
        45        2.0000           -0.4130474             -11.2396
        46        2.0000           -0.4007944             -10.9062
        47        2.0000           -0.3914472             -10.6518
        48        2.0000           -0.3668986              -9.9838
        49        1.0000           -0.3416515              -9.2968
        50        1.0000           -0.2900547              -7.8928 (HOMO)
        51                         -0.2421083              -6.5881 (LUMO)
        52                         -0.2215494              -6.0287
        53                         -0.2116356              -5.7589
        54                         -0.1947072              -5.2983
        55                         -0.1733080              -4.7160
        56                         -0.1621971              -4.4136
        57                         -0.0895368              -2.4364
        58                         -0.0667845              -1.8173
        59                         -0.0447299              -1.2172
        60                          0.0133023               0.3620
        61                          0.0955044               2.5988
       ...                                ...                  ...
        97                          0.7347710              19.9941
      -------------------------------------------------------------
                  HL-Gap            0.0479463 Eh            1.3047 eV

     #   Z          covCN         q      C6AA      α(0)
     1   6 C        2.913    -0.037    28.916     8.818
     2   6 C        2.918    -0.038    28.955     8.824
     3   6 C        2.917    -0.065    29.624     8.925
     4   6 C        2.919     0.064    26.561     8.451
     5   7 N        2.704    -0.109    23.376     7.181
     6   6 C        2.918     0.056    26.751     8.482
     7   6 C        2.919    -0.053    29.311     8.878
     8   6 C        2.907    -0.041    29.028     8.834
     9   6 C        3.065    -0.003    28.033     8.682
    10   6 C        3.066    -0.008    28.157     8.701
    11   6 C        2.909    -0.030    28.739     8.790
    12   6 C        2.920    -0.033    28.824     8.804
    13   6 C        2.916    -0.036    28.884     8.813
    14   6 C        2.910    -0.030    28.743     8.791
    15   6 C        3.073    -0.005    28.069     8.687
    16   6 C        2.991    -0.038    28.924     8.822
    17   6 C        3.072    -0.016    28.325     8.726
    18   6 C        2.970     0.003    27.956     8.673
    19   6 C        2.916    -0.066    29.645     8.928
    20   6 C        2.976     0.008    27.835     8.654
    21   6 C        2.920    -0.052    29.283     8.874
    22   1 H        0.926     0.027     2.628     2.535
    23   1 H        0.926     0.029     2.607     2.525
    24   1 H        0.926     0.026     2.644     2.543
    25   1 H        0.860     0.171     1.268     1.764
    26   1 H        0.926     0.033     2.539     2.492
    27   1 H        0.926     0.034     2.531     2.488
    28   1 H        0.926     0.031     2.577     2.511
    29   1 H        0.926     0.030     2.583     2.513
    30   1 H        0.926     0.029     2.600     2.521
    31   1 H        0.926     0.031     2.578     2.511
    32   1 H        0.926     0.031     2.575     2.509
    33   1 H        0.926     0.029     2.603     2.523
    34   1 H        0.926     0.028     2.622     2.532

molecular dipole:
                 x           y           z       tot (Debye)
 q only:       -0.310       0.692      -0.000
   full:       -0.366       0.837      -0.000       2.322

 projected vibrational frequencies (cm⁻¹)
eigval :       -0.00    -0.00     0.00     0.00     0.00     0.00
eigval :       40.37    62.75    97.19   111.94   126.59   207.41
eigval :      225.34   243.95   271.68   276.03   303.93   346.12
eigval :      399.21   399.46   419.46   444.27   471.21   500.56
eigval :      507.91   514.89   521.79   535.54   538.78   572.45
eigval :      599.00   599.83   645.21   670.01   685.73   702.99
eigval :      727.21   738.71   743.65   765.38   768.00   769.73
eigval :      793.55   828.73   845.00   856.97   860.06   863.02
eigval :      867.93   878.98   895.41   910.29   910.58   910.68
eigval :     1014.30  1063.67  1083.61  1095.33  1120.53  1133.32
eigval :     1146.98  1176.21  1178.96  1186.73  1194.86  1198.20
eigval :     1215.57  1251.32  1257.98  1271.49  1286.08  1295.23
eigval :     1327.60  1347.22  1357.71  1382.99  1384.94  1402.17
eigval :     1424.22  1442.87  1450.99  1454.73  1482.64  1515.61
eigval :     1537.49  1545.33  1551.55  1561.72  1581.02  3064.84
eigval :     3065.51  3066.36  3068.57  3070.19  3074.57  3080.96
eigval :     3085.15  3091.89  3092.84  3108.33  3135.80  3403.67

   temp. (K)  partition function   enthalpy   heat capacity  entropy
                                   cal/mol     cal/K/mol   cal/K/mol   J/K/mol
 298.15  VIB  0.222E+05             7831.552     58.299     44.747
         ROT  0.568E+07              888.752      2.981     33.887
         INT  0.126E+12             8720.304     61.280     78.634
         TR   0.423E+28             1481.254      4.968     42.630
         TOT                       10201.5583    66.2482   121.2635   507.3666

       T/K    H(0)-H(T)+PV         H(T)/Eh          T*S/Eh         G(T)/Eh
   ------------------------------------------------------------------------
    298.15    0.162572E-01    0.274386E+00    0.576162E-01    0.216770E+00
   ------------------------------------------------------------------------

         :::::::::::::::::::::::::::::::::::::::::::::::::::::
         ::                  THERMODYNAMIC                  ::
         :::::::::::::::::::::::::::::::::::::::::::::::::::::
         :: total free energy         -52.142681054020 Eh   ::
         ::.................................................::
         :: total energy              -52.359450584571 Eh   ::
         :: zero point energy           0.258128526961 Eh   ::
         :: G(RRHO) w/o ZPVE           -0.041358996410 Eh   ::
         :: G(RRHO) contrib.            0.216769530551 Eh   ::
         :::::::::::::::::::::::::::::::::::::::::::::::::::::

           -------------------------------------------------
          | TOTAL ENERGY              -52.359450584571 Eh   |
          | TOTAL ENTHALPY            -52.085064839646 Eh   |
          | TOTAL FREE ENERGY         -52.142681054020 Eh   |
          | GRADIENT NORM               0.000023872887 Eh/α |
          | HOMO-LUMO GAP               1.304685652396 eV   |
           -------------------------------------------------

 * finished run on 2025/09/09 at 23:50:57.392
