   * xtb version 6.7.1 (edcfbbe) compiled by 'albert@albert-system' on 2024-07-22

   ID    Z sym.   atoms
    1    6 C      1-4, 6-21
    2    7 N      5
    3    1 H      22-34

          program call               : xtb data2507/toluene/indenoacridine/indenoacridine_toluene_S0_crest.xyz --gfn 2 --gbsa toluene --ohess vtight --parallel 40 --molden --ceasefiles --namespace data2507/toluene/indenoacridine/indenoacridine_toluene_S0_finalOpt
      * Solvation model:               GBSA
        Solvent                        toluene
        Solvent mass                       9.2140E+01 g/mol
          :  Hamiltonian                  GFN2-xTB          :
 * total energy  :   -52.4042987 Eh     change       -0.3914181E-08 Eh
 * total energy  :   -52.4043222 Eh     change       -0.2343547E-04 Eh
 * total energy  :   -52.4043287 Eh     change       -0.6561636E-05 Eh
 * total energy  :   -52.4043301 Eh     change       -0.1417474E-05 Eh
 * total energy  :   -52.4043312 Eh     change       -0.1041188E-05 Eh
 * total energy  :   -52.4043321 Eh     change       -0.9602142E-06 Eh
 * total energy  :   -52.4043331 Eh     change       -0.9817206E-06 Eh
 * total energy  :   -52.4043340 Eh     change       -0.8649613E-06 Eh
 * total energy  :   -52.4043346 Eh     change       -0.6267178E-06 Eh
 * total energy  :   -52.4043350 Eh     change       -0.4107699E-06 Eh
 * total energy  :   -52.4043352 Eh     change       -0.1852629E-06 Eh
 * total energy  :   -52.4043352 Eh     change       -0.3156522E-07 Eh
   *** GEOMETRY OPTIMIZATION CONVERGED AFTER 12 ITERATIONS ***

 final structure:
================
34
 xtb: 6.7.1 (edcfbbe)
C           -5.15652911084067       -1.53127647234229       -0.00212237420842
C           -5.57096805308613       -0.19876854688064       -0.00324201981752
C           -4.64494340077125        0.82085769734915       -0.00341229259735
C           -3.28025535848353        0.52229456149691       -0.00248128694902
N           -2.34163555299462        1.51103409287302       -0.00242966471195
C           -0.98979361876743        1.30127135364576       -0.00166016718793
C           -0.11148225054465        2.36390938430520       -0.00135222071107
C            1.27436274838092        2.15271153776441       -0.00105020455812
C            1.77270170380005        0.87821386995788       -0.00115988807707
C            3.11799659768992        0.36843057827218       -0.00144941309922
C            4.35614288047419        0.99074489800163       -0.00196053530911
C            5.49670978942501        0.20653308609605       -0.00261435591629
C            5.41132551508052       -1.18460055576583       -0.00274036414074
C            4.18651849780473       -1.82361459483252       -0.00221874464020
C            3.02737331833762       -1.05269792015307       -0.00159214079698
C            1.64910065987642       -1.41973281729348       -0.00124619988864
C            0.88985259442858       -0.26821750869067       -0.00115223205733
C           -0.52818439940820       -0.06890850270023       -0.00126526882032
C           -1.45324174224189       -1.08407220417848       -0.00106754072981
C           -2.84743152557087       -0.82449650204017       -0.00157014977882
C           -3.81671717312494       -1.83964887296926       -0.00133095095937
H           -5.89376573474684       -2.31979044743478       -0.00192581304396
H           -6.62500316219011        0.03465644675293       -0.00398135685640
H           -4.96245348217493        1.85369781149911       -0.00425951948718
H           -2.66406052110922        2.47166121002800       -0.00298687388364
H           -0.49788649612324        3.37312069442795       -0.00147865906637
H            1.93743439298832        3.00617603957068       -0.00087806858288
H            4.43410937046072        2.06930552776707       -0.00195395475494
H            6.47059046450458        0.67654326465056       -0.00312443510666
H            6.32149865241858       -1.76890210834317       -0.00328981908915
H            4.12820421899533       -2.90373666914867       -0.00227180866197
H            1.29036968907453       -2.43351671342023       -0.00124089504120
H           -1.12156290229928       -2.11101688740200       -0.00057704809137
H           -3.48901321316222       -2.86860893876301       -0.00054246337902

          :  Hamiltonian                  GFN2-xTB          :
         :: gradient norm              0.000034136664 Eh/a0 ::
         :: HOMO-LUMO gap              1.177345833302 eV    ::
         :: SCC energy               -53.408275353497 Eh    ::
         :: -> dispersion             -0.041492314719 Eh    ::
         :: -> Gsolv                  -0.023476546046 Eh    ::
         :: repulsion energy           1.003940104093 Eh    ::

    * Orbital Energies and Occupations

         #    Occupation            Energy/Eh            Energy/eV
      -------------------------------------------------------------
         1        2.0000           -0.6847320             -18.6325
       ...           ...                  ...                  ...
        37        2.0000           -0.4454492             -12.1213
        38        2.0000           -0.4408807             -11.9970
        39        2.0000           -0.4371376             -11.8951
        40        2.0000           -0.4248131             -11.5598
        41        2.0000           -0.4245057             -11.5514
        42        2.0000           -0.4197866             -11.4230
        43        2.0000           -0.4145230             -11.2797
        44        2.0000           -0.4096538             -11.1472
        45        2.0000           -0.4033697             -10.9762
        46        2.0000           -0.4022470             -10.9457
        47        2.0000           -0.3919132             -10.6645
        48        2.0000           -0.3617015              -9.8424
        49        2.0000           -0.3360325              -9.1439 (HOMO)
        50                         -0.2927659              -7.9666 (LUMO)
        51                         -0.2434417              -6.6244
        52                         -0.2240131              -6.0957
        53                         -0.2122814              -5.7765
        54                         -0.1938238              -5.2742
        55                         -0.1625574              -4.4234
        56                         -0.1618885              -4.4052
        57                         -0.0929479              -2.5292
        58                         -0.0574669              -1.5638
        59                         -0.0438989              -1.1945
        60                          0.0100241               0.2728
       ...                                ...                  ...
        97                          0.7606649              20.6987
      -------------------------------------------------------------
                  HL-Gap            0.0432666 Eh            1.1773 eV

     #   Z          covCN         q      C6AA      α(0)
     1   6 C        2.915    -0.035    28.875     8.812
     2   6 C        2.919    -0.025    28.630     8.774
     3   6 C        2.917    -0.056    29.399     8.891
     4   6 C        2.922     0.068    26.486     8.440
     5   7 N        2.706    -0.089    22.974     7.119
     6   6 C        2.915     0.065    26.543     8.448
     7   6 C        2.917    -0.081    30.028     8.986
     8   6 C        2.909    -0.023    28.579     8.766
     9   6 C        3.069    -0.024    28.540     8.760
    10   6 C        3.063    -0.014    28.300     8.724
    11   6 C        2.910    -0.039    28.965     8.825
    12   6 C        2.920    -0.042    29.035     8.836
    13   6 C        2.919    -0.041    29.007     8.832
    14   6 C        2.910    -0.041    29.027     8.834
    15   6 C        3.092    -0.008    28.100     8.689
    16   6 C        2.990    -0.061    29.515     8.912
    17   6 C        3.076    -0.019    28.399     8.737
    18   6 C        2.967     0.008    27.832     8.653
    19   6 C        2.918    -0.035    28.866     8.810
    20   6 C        2.981     0.005    27.910     8.666
    21   6 C        2.920    -0.034    28.858     8.809
    22   1 H        0.926     0.041     2.439     2.442
    23   1 H        0.926     0.044     2.395     2.420
    24   1 H        0.926     0.040     2.451     2.448
    25   1 H        0.860     0.177     1.229     1.736
    26   1 H        0.926     0.024     2.678     2.559
    27   1 H        0.926     0.028     2.611     2.527
    28   1 H        0.925     0.017     2.783     2.609
    29   1 H        0.925     0.016     2.794     2.614
    30   1 H        0.925     0.016     2.799     2.616
    31   1 H        0.925     0.016     2.794     2.614
    32   1 H        0.926     0.012     2.856     2.643
    33   1 H        0.926     0.048     2.350     2.397
    34   1 H        0.926     0.043     2.404     2.425

molecular dipole:
                 x           y           z       tot (Debye)
 q only:       -2.600       0.576      -0.000
   full:       -2.597       0.716      -0.001       6.847

 projected vibrational frequencies (cm⁻¹)
eigval :       -0.00    -0.00    -0.00    -0.00    -0.00     0.00
eigval :       42.96    58.82   103.53   114.80   125.92   219.37
eigval :      227.69   243.06   275.29   277.79   314.33   354.05
eigval :      401.37   420.16   424.59   447.94   468.77   507.77
eigval :      511.17   526.45   527.33   540.06   577.75   603.68
eigval :      623.64   630.88   650.79   686.30   698.41   714.60
eigval :      738.65   761.06   768.75   768.75   781.96   800.22
eigval :      832.53   855.24   860.56   865.55   867.46   869.29
eigval :      886.69   897.69   907.27   909.76   916.67   922.96
eigval :     1015.74  1067.60  1082.76  1101.39  1136.26  1143.91
eigval :     1159.60  1176.07  1181.90  1196.59  1207.96  1217.17
eigval :     1222.19  1261.68  1267.09  1290.19  1296.29  1311.13
eigval :     1334.69  1357.47  1363.37  1382.07  1401.50  1416.81
eigval :     1446.44  1466.38  1469.49  1496.74  1514.33  1535.36
eigval :     1560.07  1569.32  1586.84  1593.14  1623.66  3051.30
eigval :     3055.03  3061.56  3065.53  3073.13  3074.34  3076.91
eigval :     3081.21  3088.13  3096.03  3098.79  3120.42  3379.24

   temp. (K)  partition function   enthalpy   heat capacity  entropy
                                   cal/mol     cal/K/mol   cal/K/mol   J/K/mol
 298.15  VIB  0.174E+05             7644.772     57.109     43.686
         ROT  0.566E+07              888.752      2.981     33.879
         INT  0.982E+11             8533.524     60.090     77.565
         TR   0.423E+28             1481.254      4.968     42.630
         TOT                       10014.7779    65.0582   120.1947   502.8944

       T/K    H(0)-H(T)+PV         H(T)/Eh          T*S/Eh         G(T)/Eh
   ------------------------------------------------------------------------
    298.15    0.159596E-01    0.276366E+00    0.571084E-01    0.219257E+00
   ------------------------------------------------------------------------

         :::::::::::::::::::::::::::::::::::::::::::::::::::::
         ::                  THERMODYNAMIC                  ::
         :::::::::::::::::::::::::::::::::::::::::::::::::::::
         :: total free energy         -52.185077885099 Eh   ::
         ::.................................................::
         :: total energy              -52.404335249879 Eh   ::
         :: zero point energy           0.260406157834 Eh   ::
         :: G(RRHO) w/o ZPVE           -0.041148793054 Eh   ::
         :: G(RRHO) contrib.            0.219257364780 Eh   ::
         :::::::::::::::::::::::::::::::::::::::::::::::::::::

           -------------------------------------------------
          | TOTAL ENERGY              -52.404335249879 Eh   |
          | TOTAL ENTHALPY            -52.127969527533 Eh   |
          | TOTAL FREE ENERGY         -52.185077885099 Eh   |
          | GRADIENT NORM               0.000034088298 Eh/α |
          | HOMO-LUMO GAP               1.177344516864 eV   |
           -------------------------------------------------

 * finished run on 2025/09/09 at 23:50:56.647
