   * xtb version 6.7.1 (edcfbbe) compiled by 'albert@albert-system' on 2024-07-22

   ID    Z sym.   atoms
    1    6 C      1-4, 6-21
    2    7 N      5
    3    1 H      22-34

          program call               : xtb data2507/toluene/indenoacridine/indenoacridine.xyz --gfn 2 --gbsa toluene --ohess vtight --parallel 40 --molden --ceasefiles --namespace data2507/toluene/indenoacridine/indenoacridine_toluene_S0_preOpt
      * Solvation model:               GBSA
        Solvent                        toluene
        Solvent mass                       9.2140E+01 g/mol
          :  Hamiltonian                  GFN2-xTB          :
 * total energy  :   -52.3925638 Eh     change       -0.2956504E-08 Eh
 * total energy  :   -52.4011774 Eh     change       -0.8613614E-02 Eh
 * total energy  :   -52.4040149 Eh     change       -0.2837545E-02 Eh
 * total energy  :   -52.4042400 Eh     change       -0.2250524E-03 Eh
 * total energy  :   -52.4043125 Eh     change       -0.7252397E-04 Eh
 * total energy  :   -52.4043272 Eh     change       -0.1471913E-04 Eh
 * total energy  :   -52.4043333 Eh     change       -0.6066652E-05 Eh
 * total energy  :   -52.4043351 Eh     change       -0.1849386E-05 Eh
 * total energy  :   -52.4043358 Eh     change       -0.6100961E-06 Eh
 * total energy  :   -52.4043359 Eh     change       -0.1627953E-06 Eh
 * total energy  :   -52.4043360 Eh     change       -0.5177430E-07 Eh
   *** GEOMETRY OPTIMIZATION CONVERGED AFTER 11 ITERATIONS ***

 final structure:
================
34
 xtb: 6.7.1 (edcfbbe)
C           -5.15955046788221       -1.46454385196996       -0.00000053882386
C           -5.56512314111667       -0.12932638016447       -0.00000025069350
C           -4.63238266455489        0.88419414643667        0.00000032411836
C           -3.26971094079783        0.57664215924972       -0.00000013052985
N           -2.32451047788130        1.55908067282949       -0.00000092139349
C           -0.97407665734049        1.34031614584243       -0.00000159250119
C           -0.08869757347253        2.39706730998705        0.00000021237924
C            1.29574031009103        2.17654990665434        0.00000792663717
C            1.78558128539697        0.89876398839915        0.00000380362279
C            3.12740315268069        0.37994696016699       -0.00000375180431
C            4.36972455957531        0.99384511213846       -0.00000478069515
C            5.50494884536705        0.20189199614185       -0.00000145852604
C            5.41017011242274       -1.18862590739740        0.00000097102599
C            4.18104611112581       -1.81931453595609        0.00000488488086
C            3.02717172178326       -1.04055069840609        0.00000050396221
C            1.64646190443441       -1.39831779133473       -0.00000319567033
C            0.89503332148558       -0.24169335014166       -0.00000314798394
C           -0.52160628000480       -0.03289015025820        0.00000071856097
C           -1.45340311562950       -1.04188995423748        0.00000194946489
C           -2.84583360967106       -0.77304397492679        0.00000013199206
C           -3.82179096469414       -1.78177675203001        0.00000045287596
H           -5.90200280484069       -2.24815387944652        0.00000060260249
H           -6.61760698483854        0.11104320991208       -0.00000044697511
H           -4.94314491545835        1.91910024247082       -0.00000003152378
H           -2.64057129990924        2.52182201144892       -0.00000010912521
H           -0.46828607102771        3.40885989524453        0.00000061616998
H            1.96454115010630        3.02554215637169       -0.00000204559271
H            4.45513964553491        2.07184065070487       -0.00000036819584
H            6.48196067863805        0.66533334930184        0.00000010239690
H            6.31635991138948       -1.77909350470217        0.00000148570997
H            4.11541253209995       -2.89901443359438        0.00000107603756
H            1.28104414953106       -2.40970592110381       -0.00000104725324
H           -1.12860122198804       -2.07103333224754       -0.00000148649645
H           -3.50084120055461       -2.81286549538356        0.00000154134659

          :  Hamiltonian                  GFN2-xTB          :
         :: gradient norm              0.000115032883 Eh/a0 ::
         :: HOMO-LUMO gap              1.177336009248 eV    ::
         :: SCC energy               -53.408260981290 Eh    ::
         :: -> dispersion             -0.041492287294 Eh    ::
         :: -> Gsolv                  -0.023476951735 Eh    ::
         :: repulsion energy           1.003925005766 Eh    ::

    * Orbital Energies and Occupations

         #    Occupation            Energy/Eh            Energy/eV
      -------------------------------------------------------------
         1        2.0000           -0.6847279             -18.6324
       ...           ...                  ...                  ...
        37        2.0000           -0.4454475             -12.1212
        38        2.0000           -0.4408773             -11.9969
        39        2.0000           -0.4371379             -11.8951
        40        2.0000           -0.4248136             -11.5598
        41        2.0000           -0.4245060             -11.5514
        42        2.0000           -0.4197849             -11.4229
        43        2.0000           -0.4145218             -11.2797
        44        2.0000           -0.4096538             -11.1472
        45        2.0000           -0.4033726             -10.9763
        46        2.0000           -0.4022449             -10.9456
        47        2.0000           -0.3919127             -10.6645
        48        2.0000           -0.3617026              -9.8424
        49        2.0000           -0.3360334              -9.1439 (HOMO)
        50                         -0.2927671              -7.9666 (LUMO)
        51                         -0.2434418              -6.6244
        52                         -0.2240116              -6.0957
        53                         -0.2122817              -5.7765
        54                         -0.1938259              -5.2743
        55                         -0.1625574              -4.4234
        56                         -0.1618906              -4.4053
        57                         -0.0929502              -2.5293
        58                         -0.0574678              -1.5638
        59                         -0.0438977              -1.1945
        60                          0.0100185               0.2726
       ...                                ...                  ...
        97                          0.7606882              20.6994
      -------------------------------------------------------------
                  HL-Gap            0.0432662 Eh            1.1773 eV

     #   Z          covCN         q      C6AA      α(0)
     1   6 C        2.915    -0.035    28.875     8.812
     2   6 C        2.919    -0.025    28.630     8.774
     3   6 C        2.917    -0.056    29.399     8.891
     4   6 C        2.922     0.068    26.486     8.440
     5   7 N        2.706    -0.089    22.974     7.119
     6   6 C        2.915     0.065    26.543     8.448
     7   6 C        2.917    -0.081    30.028     8.986
     8   6 C        2.909    -0.023    28.579     8.766
     9   6 C        3.069    -0.024    28.540     8.760
    10   6 C        3.063    -0.014    28.300     8.724
    11   6 C        2.910    -0.039    28.965     8.825
    12   6 C        2.920    -0.042    29.035     8.836
    13   6 C        2.919    -0.041    29.007     8.832
    14   6 C        2.910    -0.041    29.027     8.834
    15   6 C        3.092    -0.008    28.100     8.689
    16   6 C        2.990    -0.061    29.515     8.912
    17   6 C        3.076    -0.019    28.399     8.737
    18   6 C        2.967     0.008    27.832     8.653
    19   6 C        2.918    -0.035    28.866     8.810
    20   6 C        2.981     0.005    27.910     8.666
    21   6 C        2.920    -0.034    28.858     8.809
    22   1 H        0.926     0.041     2.439     2.442
    23   1 H        0.926     0.044     2.395     2.420
    24   1 H        0.926     0.040     2.451     2.448
    25   1 H        0.860     0.177     1.229     1.736
    26   1 H        0.926     0.024     2.678     2.559
    27   1 H        0.926     0.028     2.611     2.527
    28   1 H        0.925     0.017     2.783     2.609
    29   1 H        0.925     0.016     2.794     2.614
    30   1 H        0.925     0.016     2.799     2.616
    31   1 H        0.925     0.016     2.794     2.614
    32   1 H        0.926     0.012     2.856     2.643
    33   1 H        0.926     0.048     2.350     2.397
    34   1 H        0.926     0.043     2.404     2.425

molecular dipole:
                 x           y           z       tot (Debye)
 q only:       -2.596       0.593       0.000
   full:       -2.592       0.734       0.000       6.846

 projected vibrational frequencies (cm⁻¹)
eigval :       -0.00    -0.00     0.00     0.00     0.00     0.00
eigval :       43.05    54.65   103.97   114.72   125.42   220.08
eigval :      227.42   243.04   275.24   277.69   314.11   353.19
eigval :      401.27   419.26   424.44   447.86   469.10   507.77
eigval :      511.62   526.41   527.51   540.00   577.71   603.65
eigval :      623.28   631.02   650.74   685.54   698.09   714.52
eigval :      738.62   760.68   768.58   768.72   781.78   800.33
eigval :      832.54   854.91   860.49   867.28   868.39   869.27
eigval :      885.99   899.62   907.21   909.69   916.75   923.10
eigval :     1015.74  1067.50  1082.58  1101.29  1136.04  1143.84
eigval :     1159.56  1175.90  1181.39  1196.48  1207.91  1217.08
eigval :     1222.09  1261.46  1267.01  1289.93  1296.12  1311.09
eigval :     1334.64  1357.37  1363.35  1382.02  1401.42  1416.76
eigval :     1446.43  1466.22  1469.30  1496.72  1514.35  1535.35
eigval :     1560.02  1569.21  1586.81  1593.12  1623.69  3051.05
eigval :     3054.54  3061.34  3065.52  3072.63  3074.07  3076.85
eigval :     3081.07  3087.95  3096.00  3098.69  3120.46  3379.24

   temp. (K)  partition function   enthalpy   heat capacity  entropy
                                   cal/mol     cal/K/mol   cal/K/mol   J/K/mol
 298.15  VIB  0.185E+05             7651.184     57.049     43.731
         ROT  0.566E+07              888.752      2.981     33.879
         INT  0.105E+12             8539.936     60.030     77.610
         TR   0.423E+28             1481.254      4.968     42.630
         TOT                       10021.1903    64.9977   120.2396   503.0824

       T/K    H(0)-H(T)+PV         H(T)/Eh          T*S/Eh         G(T)/Eh
   ------------------------------------------------------------------------
    298.15    0.159698E-01    0.276354E+00    0.571297E-01    0.219224E+00
   ------------------------------------------------------------------------

         :::::::::::::::::::::::::::::::::::::::::::::::::::::
         ::                  THERMODYNAMIC                  ::
         :::::::::::::::::::::::::::::::::::::::::::::::::::::
         :: total free energy         -52.185111581444 Eh   ::
         ::.................................................::
         :: total energy              -52.404335976163 Eh   ::
         :: zero point energy           0.260384315831 Eh   ::
         :: G(RRHO) w/o ZPVE           -0.041159921112 Eh   ::
         :: G(RRHO) contrib.            0.219224394719 Eh   ::
         :::::::::::::::::::::::::::::::::::::::::::::::::::::

           -------------------------------------------------
          | TOTAL ENERGY              -52.404335976163 Eh   |
          | TOTAL ENTHALPY            -52.127981877094 Eh   |
          | TOTAL FREE ENERGY         -52.185111581444 Eh   |
          | GRADIENT NORM               0.000114852817 Eh/α |
          | HOMO-LUMO GAP               1.177334139139 eV   |
           -------------------------------------------------

 * finished run on 2025/09/09 at 23:50:08.300
