   * xtb version 6.7.1 (edcfbbe) compiled by 'albert@albert-system' on 2024-07-22

   ID    Z sym.   atoms
    1    6 C      1-4, 6-21
    2    7 N      5
    3    1 H      22-34

          program call               : xtb data2507/toluene/indenoacridine/indenoacridine_toluene_T1_crest.xyz --gfn 2 --uhf 2 --gbsa toluene --ohess vtight --parallel 40 --molden --ceasefiles --namespace data2507/toluene/indenoacridine/indenoacridine_toluene_T1_finalOpt
      * Solvation model:               GBSA
        Solvent                        toluene
        Solvent mass                       9.2140E+01 g/mol
          :  Hamiltonian                  GFN2-xTB          :
 * total energy  :   -52.3594341 Eh     change       -0.4679421E-09 Eh
 * total energy  :   -52.3594415 Eh     change       -0.7374689E-05 Eh
 * total energy  :   -52.3594427 Eh     change       -0.1245434E-05 Eh
 * total energy  :   -52.3594438 Eh     change       -0.1056330E-05 Eh
 * total energy  :   -52.3594446 Eh     change       -0.7843349E-06 Eh
 * total energy  :   -52.3594452 Eh     change       -0.6777171E-06 Eh
 * total energy  :   -52.3594458 Eh     change       -0.6138125E-06 Eh
 * total energy  :   -52.3594464 Eh     change       -0.5445075E-06 Eh
 * total energy  :   -52.3594469 Eh     change       -0.4742488E-06 Eh
 * total energy  :   -52.3594473 Eh     change       -0.4220769E-06 Eh
 * total energy  :   -52.3594485 Eh     change       -0.2449525E-06 Eh
 * total energy  :   -52.3594487 Eh     change       -0.2207448E-06 Eh
 * total energy  :   -52.3594489 Eh     change       -0.1958658E-06 Eh
 * total energy  :   -52.3594491 Eh     change       -0.1766538E-06 Eh
 * total energy  :   -52.3594493 Eh     change       -0.1570147E-06 Eh
 * total energy  :   -52.3594494 Eh     change       -0.1383920E-06 Eh
 * total energy  :   -52.3594495 Eh     change       -0.1227650E-06 Eh
 * total energy  :   -52.3594497 Eh     change       -0.1104925E-06 Eh
 * total energy  :   -52.3594497 Eh     change       -0.1050545E-08 Eh
   *** GEOMETRY OPTIMIZATION CONVERGED AFTER 22 ITERATIONS ***

 final structure:
================
34
 xtb: 6.7.1 (edcfbbe)
C           -5.16192599977333       -1.53032788732407       -0.00904702350016
C           -5.57704561360946       -0.20299566590541       -0.01225812878227
C           -4.63766732879848        0.81826184553761       -0.00877244834583
C           -3.28281367597842        0.51841183081310       -0.00257453536932
N           -2.34061808411181        1.51477304985298        0.00051184951642
C           -0.98187770304617        1.28852420631884        0.00233689563361
C           -0.09907250467534        2.37391001911708        0.00105518183097
C            1.27420084326163        2.18263581507776        0.00003598629609
C            1.76288359643310        0.88211324554683        0.00077260689910
C            3.11951863796317        0.36666730692856       -0.00236882263759
C            4.34875296126666        0.98476235404443       -0.00863888471100
C            5.49897174006331        0.19349441677994       -0.01225369695351
C            5.41406357616963       -1.19264095591443       -0.00918183358665
C            4.18483691674528       -1.83317017184095       -0.00275378719679
C            3.02446042965116       -1.05978958947234        0.00037056514440
C            1.65695914866011       -1.41897216718174        0.00479803292842
C            0.88452830970319       -0.23424457971883        0.00428692298886
C           -0.52154375458723       -0.04907178707807        0.00463876271282
C           -1.46040284922778       -1.09902262138758        0.00514957916237
C           -2.83848134324266       -0.83406449752876        0.00042319003777
C           -3.82063347434703       -1.84469721756283       -0.00267623972205
H           -5.89864777493407       -2.32066250794175       -0.01172454908303
H           -6.62951645238346        0.03688593687602       -0.01751083436858
H           -4.95491357411014        1.85172487834878       -0.01119843834044
H           -2.66297155452215        2.47325800707634       -0.00180421854576
H           -0.50481863973558        3.37604532669838        0.00004629734429
H            1.94344705584643        3.02883677881008       -0.00173229231461
H            4.43244771136525        2.06215312626197       -0.01122790881517
H            6.46978596550732        0.66763432786068       -0.01766047478714
H            6.32185598267216       -1.77910050063358       -0.01216149197302
H            4.12497528909761       -2.91226240249836       -0.00061912756235
H            1.27958477758308       -2.42487237079478        0.00764238519887
H           -1.12021415628832       -2.12143333382299        0.00753923642478
H           -3.49919682991767       -2.87583797454297       -0.00029351442346

          :  Hamiltonian                  GFN2-xTB          :
         :: gradient norm              0.000026528907 Eh/a0 ::
         :: HOMO-LUMO gap              1.304717600457 eV    ::
         :: SCC energy               -53.351637202155 Eh    ::
         :: -> dispersion             -0.041424597833 Eh    ::
         :: -> Gsolv                  -0.021519443647 Eh    ::
         :: repulsion energy           0.992187550694 Eh    ::

    * Orbital Energies and Occupations

         #    Occupation            Energy/Eh            Energy/eV
      -------------------------------------------------------------
         1        2.0000           -0.6733384             -18.3225
       ...           ...                  ...                  ...
        38        2.0000           -0.4354551             -11.8493
        39        2.0000           -0.4327464             -11.7756
        40        2.0000           -0.4289685             -11.6728
        41        2.0000           -0.4275977             -11.6355
        42        2.0000           -0.4197547             -11.4221
        43        2.0000           -0.4147901             -11.2870
        44        2.0000           -0.4145836             -11.2814
        45        2.0000           -0.4130481             -11.2396
        46        2.0000           -0.4007936             -10.9061
        47        2.0000           -0.3914478             -10.6518
        48        2.0000           -0.3668986              -9.9838
        49        1.0000           -0.3416508              -9.2968
        50        1.0000           -0.2900551              -7.8928 (HOMO)
        51                         -0.2421076              -6.5881 (LUMO)
        52                         -0.2215486              -6.0286
        53                         -0.2116366              -5.7589
        54                         -0.1947073              -5.2983
        55                         -0.1733075              -4.7159
        56                         -0.1621962              -4.4136
        57                         -0.0895361              -2.4364
        58                         -0.0667860              -1.8173
        59                         -0.0447290              -1.2171
        60                          0.0132978               0.3619
        61                          0.0955033               2.5988
       ...                                ...                  ...
        97                          0.7347764              19.9943
      -------------------------------------------------------------
                  HL-Gap            0.0479475 Eh            1.3047 eV

     #   Z          covCN         q      C6AA      α(0)
     1   6 C        2.913    -0.037    28.916     8.818
     2   6 C        2.918    -0.038    28.955     8.824
     3   6 C        2.917    -0.065    29.624     8.925
     4   6 C        2.919     0.064    26.561     8.451
     5   7 N        2.704    -0.109    23.376     7.181
     6   6 C        2.918     0.056    26.751     8.482
     7   6 C        2.919    -0.053    29.311     8.878
     8   6 C        2.907    -0.041    29.028     8.834
     9   6 C        3.065    -0.003    28.033     8.682
    10   6 C        3.066    -0.008    28.157     8.701
    11   6 C        2.909    -0.030    28.739     8.790
    12   6 C        2.920    -0.033    28.824     8.804
    13   6 C        2.916    -0.036    28.884     8.813
    14   6 C        2.910    -0.030    28.743     8.791
    15   6 C        3.073    -0.005    28.069     8.687
    16   6 C        2.991    -0.038    28.924     8.822
    17   6 C        3.072    -0.016    28.325     8.726
    18   6 C        2.970     0.003    27.956     8.673
    19   6 C        2.916    -0.066    29.645     8.928
    20   6 C        2.976     0.008    27.835     8.654
    21   6 C        2.920    -0.052    29.283     8.874
    22   1 H        0.926     0.027     2.628     2.535
    23   1 H        0.926     0.029     2.607     2.525
    24   1 H        0.926     0.026     2.644     2.543
    25   1 H        0.860     0.171     1.268     1.764
    26   1 H        0.926     0.033     2.539     2.492
    27   1 H        0.926     0.034     2.531     2.488
    28   1 H        0.926     0.031     2.577     2.511
    29   1 H        0.926     0.030     2.583     2.513
    30   1 H        0.926     0.029     2.600     2.521
    31   1 H        0.926     0.031     2.578     2.511
    32   1 H        0.926     0.031     2.575     2.509
    33   1 H        0.926     0.029     2.603     2.523
    34   1 H        0.926     0.028     2.622     2.532

molecular dipole:
                 x           y           z       tot (Debye)
 q only:       -0.310       0.693      -0.001
   full:       -0.365       0.837      -0.002       2.321

 projected vibrational frequencies (cm⁻¹)
eigval :       -0.00    -0.00    -0.00    -0.00     0.00     0.00
eigval :       40.00    62.70    97.09   111.92   126.54   207.36
eigval :      225.23   243.94   271.55   276.04   303.84   346.10
eigval :      399.19   399.42   419.29   444.25   471.17   500.54
eigval :      507.89   514.84   521.77   535.52   538.85   572.44
eigval :      598.95   599.84   645.20   669.97   685.59   702.97
eigval :      727.16   738.70   743.84   765.36   768.00   769.98
eigval :      793.55   828.73   845.10   857.01   860.03   863.00
eigval :      867.93   879.49   895.49   910.28   910.64   910.80
eigval :     1014.31  1063.66  1083.59  1095.32  1120.53  1133.32
eigval :     1146.98  1176.22  1178.97  1186.75  1194.86  1198.21
eigval :     1215.56  1251.32  1257.97  1271.48  1286.07  1295.22
eigval :     1327.61  1347.22  1357.72  1382.98  1384.95  1402.18
eigval :     1424.21  1442.87  1450.98  1454.73  1482.64  1515.62
eigval :     1537.49  1545.34  1551.54  1561.71  1581.01  3064.84
eigval :     3065.51  3066.37  3068.55  3070.18  3074.57  3080.98
eigval :     3085.10  3091.93  3092.82  3108.36  3135.85  3403.67

   temp. (K)  partition function   enthalpy   heat capacity  entropy
                                   cal/mol     cal/K/mol   cal/K/mol   J/K/mol
 298.15  VIB  0.225E+05             7832.742     58.291     44.754
         ROT  0.568E+07              888.752      2.981     33.887
         INT  0.128E+12             8721.494     61.272     78.641
         TR   0.423E+28             1481.254      4.968     42.630
         TOT                       10202.7484    66.2400   121.2710   507.3977

       T/K    H(0)-H(T)+PV         H(T)/Eh          T*S/Eh         G(T)/Eh
   ------------------------------------------------------------------------
    298.15    0.162591E-01    0.274387E+00    0.576198E-01    0.216767E+00
   ------------------------------------------------------------------------

         :::::::::::::::::::::::::::::::::::::::::::::::::::::
         ::                  THERMODYNAMIC                  ::
         :::::::::::::::::::::::::::::::::::::::::::::::::::::
         :: total free energy         -52.142682551502 Eh   ::
         ::.................................................::
         :: total energy              -52.359449651849 Eh   ::
         :: zero point energy           0.258127735997 Eh   ::
         :: G(RRHO) w/o ZPVE           -0.041360635650 Eh   ::
         :: G(RRHO) contrib.            0.216767100346 Eh   ::
         :::::::::::::::::::::::::::::::::::::::::::::::::::::

           -------------------------------------------------
          | TOTAL ENERGY              -52.359449651849 Eh   |
          | TOTAL ENTHALPY            -52.085062801342 Eh   |
          | TOTAL FREE ENERGY         -52.142682551502 Eh   |
          | GRADIENT NORM               0.000026531666 Eh/α |
          | HOMO-LUMO GAP               1.304717657273 eV   |
           -------------------------------------------------

 * finished run on 2025/09/09 at 23:51:45.345
