   * xtb version 6.7.1 (edcfbbe) compiled by 'albert@albert-system' on 2024-07-22

   ID    Z sym.   atoms
    1    6 C      1-16, 18-39
    2    7 N      17
    3    1 H      40-64

          program call               : xtb data2507/gas/PhPC/PhPC.xyz --gfn 2 --ohess vtight --parallel 40 --molden --ceasefiles --namespace data2507/gas/PhPC/PhPC_gas_S0_preOpt
          :  Hamiltonian                  GFN2-xTB          :
 * total energy  :   -97.0530501 Eh     change       -0.3654151E-08 Eh
 * total energy  :   -97.0674598 Eh     change       -0.1440973E-01 Eh
 * total energy  :   -97.0707533 Eh     change       -0.3293443E-02 Eh
 * total energy  :   -97.0711097 Eh     change       -0.3564347E-03 Eh
 * total energy  :   -97.0713397 Eh     change       -0.2300483E-03 Eh
 * total energy  :   -97.0714276 Eh     change       -0.8788696E-04 Eh
 * total energy  :   -97.0715008 Eh     change       -0.7313539E-04 Eh
 * total energy  :   -97.0715510 Eh     change       -0.5023038E-04 Eh
 * total energy  :   -97.0715933 Eh     change       -0.4225721E-04 Eh
 * total energy  :   -97.0716210 Eh     change       -0.2771624E-04 Eh
 * total energy  :   -97.0719971 Eh     change       -0.3797388E-05 Eh
 * total energy  :   -97.0719990 Eh     change       -0.1924909E-05 Eh
 * total energy  :   -97.0720004 Eh     change       -0.1395668E-05 Eh
 * total energy  :   -97.0720013 Eh     change       -0.8898477E-06 Eh
 * total energy  :   -97.0720017 Eh     change       -0.4101474E-06 Eh
 * total energy  :   -97.0720017 Eh     change        0.2883591E-07 Eh
 * total energy  :   -97.0720019 Eh     change       -0.2266301E-06 Eh
 * total energy  :   -97.0720020 Eh     change       -0.1065672E-06 Eh
 * total energy  :   -97.0720021 Eh     change       -0.7998982E-07 Eh
   *** GEOMETRY OPTIMIZATION CONVERGED AFTER 68 ITERATIONS ***

 final structure:
================
64
 xtb: 6.7.1 (edcfbbe)
C            8.49633286518739        0.00010642321054        0.00352144663638
C            7.80286284033387       -0.21092302170110       -1.17648433166803
C            6.41969540330613       -0.20848746222272       -1.17960700540165
C            5.71334312133866        0.00115418525777        0.00058735328367
C            4.23457159511674        0.00070111908690       -0.00053963782667
C            3.53771595061449       -1.06222139040010        0.59100790146916
C            4.21412837040003       -2.16651749834452        1.17323504346973
C            3.52762599681024       -3.19868506382003        1.73426989337120
C            2.11841027793987       -3.19738989609934        1.73712959376107
C            1.43169890514656       -2.16457501428266        1.17769787239726
C            2.10808467207638       -1.06201550667900        0.59214354752125
C            1.41142505318957       -0.00038310602889       -0.00131332514387
C           -0.06705731133156       -0.00068117023602       -0.00096584180128
C           -0.77475116941193       -0.22656178582188       -1.17772535665806
C           -2.15578651679523       -0.22484389726905       -1.18156151174130
C           -2.85659131426085       -0.00095557636178        0.00012069942308
N           -4.25828476349817       -0.00071901641257        0.00061656075880
C           -5.06538665676411        0.98804934391537        0.52649171953008
C           -4.71496494064518        2.19457884926715        1.11539332143673
C           -5.73440567356375        3.02596900933877        1.53768289727285
C           -7.07322705190738        2.67668211776906        1.37448971410318
C           -7.42804773610396        1.48807072312934        0.76880952184905
C           -6.42127018487344        0.63539050954777        0.33554603086506
C           -6.42186647102828       -0.63460947275269       -0.33464015495247
C           -7.42944824421440       -1.48625117963377       -0.76807233287155
C           -7.07574656698410       -2.67524261478598       -1.37365952014453
C           -5.73725738866592       -3.02593126287541       -1.53657864507080
C           -4.71702985686418       -2.19556808031429       -1.11416436370090
C           -5.06631111801446       -0.98864280043324       -0.52539382546290
C           -2.15492212086713        0.22290120488005        1.18129835233865
C           -0.77390270917741        0.22490078677838        1.17637578901048
C            2.10759366353714        1.06154336764089       -0.59480860951891
C            1.43070380588075        2.16337768353357       -1.18115495338889
C            2.11694672458210        3.19640696027642       -1.74076040660713
C            3.52616762821782        3.19873959479606       -1.73720227360759
C            4.21315136430363        2.16740440284653       -1.17521726123971
C            3.53724999752140        1.06284713148934       -0.59287943741629
C            6.41741121215528        0.21054354412713        1.18222198453218
C            7.80055840909543        0.21192276505207        1.18203101811242
H            9.57637092189923       -0.00043046056708        0.00469673219450
H            8.34150268259094       -0.37761790135171       -2.09806107941797
H            5.87597506252713       -0.37540965292409       -2.09865425740693
H            5.29386483714111       -2.17604474164826        1.15631986606155
H            4.05681339316753       -4.03160694603562        2.17352253724981
H            1.58931202431395       -4.02897440382489        2.17911738808564
H            0.35175094633041       -2.17238584529337        1.16517473278778
H           -0.23275949191904       -0.40178225914565       -2.09580519162834
H           -2.69932521434821       -0.38313310738235       -2.10111131158691
H           -3.68058271221663        2.48183015652707        1.23116880702873
H           -5.48765063955609        3.96967228511607        2.00166104724703
H           -7.84067281981568        3.35305684803590        1.72052174359959
H           -8.46548352972385        1.22423008233271        0.62838271068904
H           -8.46663545083170       -1.22131978115290       -0.62786185667098
H           -7.84383235910016       -3.35082073873741       -1.71982987111628
H           -5.49140721910576       -3.96992538808492       -2.00044563137753
H           -3.68291802874226       -2.48387708466169       -1.22973951781427
H           -2.69777518613240        0.38099338997728        2.10128503692656
H           -0.23121661431331        0.40014601144907        2.09404009342734
H            0.35074205686403        2.17035881625755       -1.16928291535637
H            1.58745448639695        4.02729759063616       -2.18358996729490
H            4.05493020892425        4.03184716240389       -2.17661826461667
H            5.29287498953181        2.17771998931072       -1.15767770580963
H            5.87187812574036        0.37783285482067        2.10011986245832
H            8.33736846859673        0.37825621847174        2.10472654542107

          :  Hamiltonian                  GFN2-xTB          :
         :: gradient norm              0.000037046050 Eh/a0 ::
         :: HOMO-LUMO gap              2.097169386580 eV    ::
         :: SCC energy               -98.963010746223 Eh    ::
         :: -> dispersion             -0.089749969439 Eh    ::
         :: repulsion energy           1.891008682159 Eh    ::

    * Orbital Energies and Occupations

         #    Occupation            Energy/Eh            Energy/eV
      -------------------------------------------------------------
         1        2.0000           -0.6734553             -18.3257
       ...           ...                  ...                  ...
        79        2.0000           -0.4165179             -11.3340
        80        2.0000           -0.4157104             -11.3121
        81        2.0000           -0.4129743             -11.2376
        82        2.0000           -0.4078648             -11.0986
        83        2.0000           -0.4059169             -11.0456
        84        2.0000           -0.4043399             -11.0026
        85        2.0000           -0.4030104             -10.9665
        86        2.0000           -0.4018658             -10.9353
        87        2.0000           -0.3998284             -10.8799
        88        2.0000           -0.3978741             -10.8267
        89        2.0000           -0.3754185             -10.2157
        90        2.0000           -0.3611320              -9.8269
        91        2.0000           -0.3577003              -9.7335 (HOMO)
        92                         -0.2806307              -7.6364 (LUMO)
        93                         -0.2431721              -6.6171
        94                         -0.2331167              -6.3434
        95                         -0.2329298              -6.3383
        96                         -0.2311665              -6.2904
        97                         -0.2251584              -6.1269
        98                         -0.2247482              -6.1157
        99                         -0.2206431              -6.0040
       100                         -0.2186806              -5.9506
       101                         -0.1882161              -5.1216
       102                         -0.1828105              -4.9745
       ...                                ...                  ...
       181                          0.7493325              20.3904
      -------------------------------------------------------------
                  HL-Gap            0.0770696 Eh            2.0972 eV

     #   Z          covCN         q      C6AA      α(0)
     1   6 C        2.920    -0.032    28.788     8.799
     2   6 C        2.919    -0.030    28.741     8.791
     3   6 C        2.924    -0.032    28.799     8.801
     4   6 C        2.977     0.016    27.652     8.626
     5   6 C        2.977    -0.006    28.162     8.705
     6   6 C        2.984     0.006    27.873     8.660
     7   6 C        2.917    -0.034    28.851     8.808
     8   6 C        2.914    -0.030    28.751     8.793
     9   6 C        2.914    -0.030    28.744     8.792
    10   6 C        2.917    -0.035    28.869     8.811
    11   6 C        2.984     0.006    27.877     8.661
    12   6 C        2.977    -0.007    28.194     8.710
    13   6 C        2.977     0.013    27.713     8.635
    14   6 C        2.924    -0.032    28.793     8.800
    15   6 C        2.921    -0.044    29.081     8.843
    16   6 C        2.913     0.062    26.610     8.459
    17   7 N        2.803    -0.045    22.108     6.983
    18   6 C        3.076     0.047    26.873     8.499
    19   6 C        2.910    -0.051    29.268     8.871
    20   6 C        2.924    -0.034    28.838     8.806
    21   6 C        2.920    -0.041    29.023     8.834
    22   6 C        2.913    -0.033    28.821     8.803
    23   6 C        3.068    -0.017    28.371     8.734
    24   6 C        3.068    -0.017    28.371     8.734
    25   6 C        2.913    -0.033    28.821     8.803
    26   6 C        2.920    -0.041    29.023     8.834
    27   6 C        2.924    -0.034    28.838     8.806
    28   6 C        2.910    -0.051    29.268     8.871
    29   6 C        3.076     0.047    26.873     8.499
    30   6 C        2.921    -0.044    29.081     8.843
    31   6 C        2.924    -0.032    28.793     8.800
    32   6 C        2.984     0.006    27.877     8.661
    33   6 C        2.917    -0.035    28.869     8.811
    34   6 C        2.914    -0.030    28.744     8.792
    35   6 C        2.914    -0.030    28.751     8.793
    36   6 C        2.917    -0.034    28.851     8.808
    37   6 C        2.984     0.006    27.873     8.660
    38   6 C        2.924    -0.032    28.799     8.801
    39   6 C        2.919    -0.030    28.741     8.791
    40   1 H        0.926     0.029     2.595     2.519
    41   1 H        0.926     0.030     2.587     2.515
    42   1 H        0.926     0.030     2.593     2.518
    43   1 H        0.926     0.032     2.557     2.501
    44   1 H        0.926     0.029     2.601     2.522
    45   1 H        0.926     0.029     2.601     2.522
    46   1 H        0.926     0.030     2.588     2.516
    47   1 H        0.926     0.036     2.504     2.475
    48   1 H        0.926     0.041     2.441     2.443
    49   1 H        0.926     0.026     2.640     2.541
    50   1 H        0.926     0.028     2.613     2.528
    51   1 H        0.926     0.027     2.627     2.535
    52   1 H        0.926     0.030     2.584     2.514
    53   1 H        0.926     0.030     2.584     2.514
    54   1 H        0.926     0.027     2.627     2.535
    55   1 H        0.926     0.028     2.613     2.528
    56   1 H        0.926     0.026     2.640     2.541
    57   1 H        0.926     0.041     2.441     2.443
    58   1 H        0.926     0.036     2.504     2.475
    59   1 H        0.926     0.030     2.588     2.516
    60   1 H        0.926     0.029     2.601     2.522
    61   1 H        0.926     0.029     2.601     2.522
    62   1 H        0.926     0.032     2.557     2.501
    63   1 H        0.926     0.030     2.593     2.518
    64   1 H        0.926     0.030     2.587     2.515

molecular dipole:
                 x           y           z       tot (Debye)
 q only:        0.637      -0.000      -0.000
   full:        0.708      -0.000      -0.000       1.799

 projected vibrational frequencies (cm⁻¹)
eigval :       -0.00    -0.00     0.00     0.00     0.00     0.00
eigval :       11.30    14.73    17.33    35.83    40.36    55.28
eigval :       69.97    73.27    77.00    81.69   104.85   107.97
eigval :      113.16   144.76   177.28   184.55   203.10   212.10
eigval :      217.24   221.45   241.71   264.98   271.75   320.05
eigval :      342.87   369.02   378.86   382.42   391.84   398.54
eigval :      399.39   414.37   417.62   430.09   435.82   443.58
eigval :      448.17   458.78   474.94   502.07   519.12   533.70
eigval :      541.23   575.28   579.04   584.63   586.67   592.54
eigval :      592.88   604.86   617.49   618.66   635.91   664.56
eigval :      673.66   674.73   692.65   697.65   702.66   709.48
eigval :      739.57   742.55   758.18   758.62   769.48   774.69
eigval :      776.05   780.76   819.34   867.41   873.21   874.65
eigval :      875.39   881.06   882.60   895.72   898.36   901.39
eigval :      902.72   902.80   904.84   911.86   917.75   918.42
eigval :      919.97   921.41   926.01   927.85   928.53   931.40
eigval :      932.23   933.70   934.60   952.68   996.27  1012.12
eigval :     1024.63  1070.15  1073.70  1081.44  1082.19  1083.36
eigval :     1117.49  1118.36  1132.42  1135.26  1145.95  1152.73
eigval :     1176.68  1181.43  1181.54  1181.98  1182.48  1185.38
eigval :     1195.60  1197.70  1214.72  1222.78  1228.90  1237.12
eigval :     1246.38  1258.75  1262.58  1267.27  1281.19  1300.44
eigval :     1303.97  1309.71  1312.25  1324.65  1350.36  1356.63
eigval :     1362.59  1362.69  1380.24  1385.03  1402.91  1419.12
eigval :     1427.79  1428.62  1430.64  1432.61  1445.54  1471.13
eigval :     1476.92  1488.68  1490.40  1501.76  1527.25  1531.13
eigval :     1543.06  1559.97  1575.15  1580.39  1589.45  1597.98
eigval :     1599.40  1599.63  1608.74  1615.70  1623.04  3071.17
eigval :     3072.02  3073.83  3073.85  3075.22  3075.56  3079.13
eigval :     3079.25  3079.99  3080.14  3080.50  3081.01  3081.82
eigval :     3084.17  3087.21  3088.91  3089.47  3089.94  3092.15
eigval :     3092.96  3093.77  3093.95  3094.51  3095.01  3096.23

   temp. (K)  partition function   enthalpy   heat capacity  entropy
                                   cal/mol     cal/K/mol   cal/K/mol   J/K/mol
 298.15  VIB  0.653E+13            17001.023    111.716    104.734
         ROT  0.229E+08              888.752      2.981     36.654
         INT  0.149E+21            17889.775    114.697    141.388
         TR   0.107E+29             1481.254      4.968     44.469
         TOT                       19371.0289   119.6650   185.8571   777.6261

       T/K    H(0)-H(T)+PV         H(T)/Eh          T*S/Eh         G(T)/Eh
   ------------------------------------------------------------------------
    298.15    0.308697E-01    0.526893E+00    0.883067E-01    0.438587E+00
   ------------------------------------------------------------------------

         :::::::::::::::::::::::::::::::::::::::::::::::::::::
         ::                  THERMODYNAMIC                  ::
         :::::::::::::::::::::::::::::::::::::::::::::::::::::
         :: total free energy         -96.633415524842 Eh   ::
         ::.................................................::
         :: total energy              -97.072002064013 Eh   ::
         :: zero point energy           0.496023539650 Eh   ::
         :: G(RRHO) w/o ZPVE           -0.057437000479 Eh   ::
         :: G(RRHO) contrib.            0.438586539171 Eh   ::
         :::::::::::::::::::::::::::::::::::::::::::::::::::::

           -------------------------------------------------
          | TOTAL ENERGY              -97.072002064013 Eh   |
          | TOTAL ENTHALPY            -96.545108824917 Eh   |
          | TOTAL FREE ENERGY         -96.633415524842 Eh   |
          | GRADIENT NORM               0.000037015902 Eh/α |
          | HOMO-LUMO GAP               2.097169688347 eV   |
           -------------------------------------------------

 * finished run on 2025/09/12 at 03:51:23.568
