   * xtb version 6.7.1 (edcfbbe) compiled by 'albert@albert-system' on 2024-07-22

   ID    Z sym.   atoms
    1    6 C      1-16, 18-39
    2    7 N      17
    3    1 H      40-64

          program call               : xtb data2507/gas/PhPC/PhPC_gas_T1_crest.xyz --gfn 2 --spinpol --tblite --uhf 2 --ohess vtight --parallel 40 --molden --ceasefiles --namespace data2507/gas/PhPC/PhPC_gas_T1_finalOpt
 * total energy  :   -97.0088198 Eh     change       -0.1454825E-07 Eh
 * total energy  :   -97.0088599 Eh     change       -0.4013548E-04 Eh
 * total energy  :   -97.0088730 Eh     change       -0.1307360E-04 Eh
 * total energy  :   -97.0088779 Eh     change       -0.4938167E-05 Eh
 * total energy  :   -97.0088827 Eh     change       -0.4781855E-05 Eh
 * total energy  :   -97.0088855 Eh     change       -0.2848641E-05 Eh
 * total energy  :   -97.0088880 Eh     change       -0.2501916E-05 Eh
 * total energy  :   -97.0088902 Eh     change       -0.2200126E-05 Eh
 * total energy  :   -97.0088912 Eh     change       -0.9030917E-06 Eh
 * total energy  :   -97.0088916 Eh     change       -0.4600795E-06 Eh
 * total energy  :   -97.0088936 Eh     change       -0.5336224E-06 Eh
 * total energy  :   -97.0088941 Eh     change       -0.5101597E-06 Eh
 * total energy  :   -97.0088944 Eh     change       -0.2789676E-06 Eh
 * total energy  :   -97.0088946 Eh     change       -0.2063961E-06 Eh
 * total energy  :   -97.0088948 Eh     change       -0.1819258E-06 Eh
 * total energy  :   -97.0088950 Eh     change       -0.2304273E-06 Eh
 * total energy  :   -97.0088953 Eh     change       -0.2549945E-06 Eh
 * total energy  :   -97.0088956 Eh     change       -0.3559357E-06 Eh
 * total energy  :   -97.0088956 Eh     change       -0.1179370E-07 Eh
   *** GEOMETRY OPTIMIZATION CONVERGED AFTER 22 ITERATIONS ***

 final structure:
================
64
 xtb: 6.7.1 (edcfbbe)
C            8.60326470166586        0.00287979154500       -0.02095233843284
C            7.90021891825193        0.62621601249731       -1.03945613976372
C            6.51884409842591        0.63066376387461       -1.03093055611552
C            5.81041157564082       -0.00003572420613       -0.00581221450016
C            4.34628628170076       -0.00114882038029        0.00142222847261
C            3.63743174021657       -1.24177202892988        0.00094011553802
C            4.30413792613263       -2.46722971915690       -0.07065987408859
C            3.61541749110383       -3.67584928187080        0.01520618316165
C            2.24921969766981       -3.67387645301486        0.18566491538639
C            1.55459478551085       -2.46493961755425        0.20817094887347
C            2.21234840698188       -1.24245844041928        0.06135310898586
C            1.49909631016576       -0.00189665602705        0.00816082801763
C            0.04217753408007       -0.00287298036133        0.00758561022085
C           -0.67826689735912       -0.74627279772480       -0.93504078370262
C           -2.05564669372289       -0.73926341818779       -0.94631811199542
C           -2.76300952268696       -0.00241493747880        0.00287557922933
N           -4.16170032361521       -0.00061501979123       -0.00046654466464
C           -4.96813945179302        1.11932517952697        0.05110771452082
C           -4.61694781356081        2.46171561474667        0.06519457866934
C           -5.63566765682110        3.39495461038903        0.08850554749706
C           -6.97459730639974        3.01062529980475        0.08836835616612
C           -7.33044879822181        1.67703864617218        0.04852079575445
C           -6.32448079932961        0.72061041111297        0.02496643366788
C           -6.32671764509899       -0.71440962034210       -0.03958720474945
C           -7.33580565859773       -1.66735647626756       -0.06957312566467
C           -6.98430214592737       -3.00215485313837       -0.10736607756822
C           -5.64672375200836       -3.39108411045581       -0.09922899537350
C           -4.62494792572949       -2.46136536932482       -0.06943667421248
C           -4.97159528865902       -1.11777458354042       -0.05728285193977
C           -2.05855348497782        0.73323352992257        0.95514730824108
C           -0.68110997374588        0.73976862953235        0.94859124019830
C            2.21120168778788        1.23926644508601       -0.04568106996781
C            1.55252637273701        2.46189400676587       -0.18732453430067
C            2.24686769993349        3.67099440873582       -0.16522478684391
C            3.61382680468482        3.67311590552481       -0.00105646531737
C            4.30327839549028        2.46450443875047        0.07878081954125
C            3.63655832450767        1.23902601309983        0.00804532951027
C            6.53114412439731       -0.62912463086613        1.01162701362422
C            7.91255461197040       -0.62180731844563        1.00511159457087
H            9.68313229589016        0.00403622225446       -0.02678158067071
H            8.43250923589825        1.10998813081522       -1.84574736675489
H            5.97246168058162        1.10327769677053       -1.83468865756260
H            5.37581256585625       -2.48147019660391       -0.19725789358172
H            4.16214224191854       -4.60549120481245       -0.03781501959867
H            1.70636060053979       -4.60134727110896        0.29131226844652
H            0.48488704128371       -2.48042558759784        0.35048365289488
H           -0.13971160782106       -1.29779291508501       -1.69177333855343
H           -2.59640986919683       -1.28543787649352       -1.70493713372011
H           -3.58277823836371        2.77073197043133        0.04582479147145
H           -5.38792395153099        4.44613061679353        0.10293911369522
H           -7.74156850100664        3.77045895132375        0.10964096847262
H           -8.36804997914496        1.37949471598694        0.03078760506598
H           -8.37246393989345       -1.36622799746715       -0.05834619551448
H           -7.75374319924737       -3.75933470806882       -0.13354756234269
H           -5.40254146407995       -4.44311136647669       -0.11232907446532
H           -3.59198042622404       -2.77393346877180       -0.04378069746740
H           -2.60171213025584        1.27933731092430        1.71210314495426
H           -0.14496896873584        1.29057621242267        1.70754627933828
H            0.48226392016925        2.47748334363809       -0.32524843570331
H            1.70321455828729        4.59850621800820       -0.26637573799505
H            4.16051325620453        4.60280790984769        0.05145478596102
H            5.37559323932210        2.47872429044004        0.19992755424118
H            5.99455439307769       -1.10250031466570        1.82151379219618
H            8.45457735897132       -1.10431888340879        1.80566118984761

 projected vibrational frequencies (cm⁻¹)
eigval :       -0.00    -0.00    -0.00     0.00     0.00     0.00
eigval :       13.15    17.59    19.01    37.28    53.77    55.17
eigval :       69.09    73.18    85.16    88.19   105.15   111.85
eigval :      133.61   149.39   175.42   193.88   202.90   214.86
eigval :      222.68   234.86   248.87   265.38   272.04   318.50
eigval :      345.02   366.10   370.78   378.84   386.25   392.82
eigval :      395.99   401.92   414.48   419.70   422.79   430.94
eigval :      445.84   468.62   471.54   500.87   518.61   536.39
eigval :      540.73   564.73   573.93   575.67   582.63   584.62
eigval :      588.40   596.30   609.46   619.04   623.58   657.45
eigval :      673.22   673.32   674.21   692.19   701.41   709.59
eigval :      715.01   738.85   747.50   755.53   757.72   761.00
eigval :      769.54   780.53   821.78   843.59   846.41   866.36
eigval :      873.61   876.82   883.17   887.60   892.32   892.91
eigval :      898.04   898.93   903.11   903.34   904.66   905.82
eigval :      907.93   909.50   921.45   921.87   930.95   932.15
eigval :      933.75   939.53   945.37   950.44   992.73  1011.92
eigval :     1019.14  1070.32  1073.79  1082.60  1100.99  1104.06
eigval :     1113.64  1117.26  1120.23  1126.44  1135.68  1151.98
eigval :     1176.50  1180.77  1181.16  1181.30  1181.66  1182.61
eigval :     1185.02  1192.32  1199.88  1205.15  1232.00  1236.14
eigval :     1244.88  1254.21  1257.04  1268.51  1280.62  1295.93
eigval :     1296.62  1301.26  1301.31  1311.41  1313.51  1335.72
eigval :     1358.15  1360.83  1365.91  1366.73  1376.91  1377.06
eigval :     1408.78  1409.15  1425.32  1426.67  1427.70  1429.67
eigval :     1463.00  1474.30  1474.88  1485.16  1486.01  1488.24
eigval :     1518.27  1530.63  1534.19  1558.16  1564.99  1574.17
eigval :     1576.79  1586.53  1588.57  1596.83  1612.86  3070.77
eigval :     3071.41  3076.42  3076.60  3076.98  3077.31  3079.65
eigval :     3080.20  3081.12  3082.16  3083.65  3083.72  3085.14
eigval :     3085.47  3089.20  3091.16  3092.28  3092.48  3092.88
eigval :     3094.58  3095.23  3095.48  3097.26  3098.99  3099.04

   temp. (K)  partition function   enthalpy   heat capacity  entropy
                                   cal/mol     cal/K/mol   cal/K/mol   J/K/mol
 298.15  VIB  0.244E+13            17016.047    112.992    103.966
         ROT  0.230E+08              888.752      2.981     36.663
         INT  0.560E+20            17904.800    115.973    140.629
         TR   0.107E+29             1481.254      4.968     44.469
         TOT                       19386.0537   120.9412   185.0978   774.4492

       T/K    H(0)-H(T)+PV         H(T)/Eh          T*S/Eh         G(T)/Eh
   ------------------------------------------------------------------------
    298.15    0.308936E-01    0.524568E+00    0.879459E-01    0.436622E+00
   ------------------------------------------------------------------------

         :::::::::::::::::::::::::::::::::::::::::::::::::::::
         ::                  THERMODYNAMIC                  ::
         :::::::::::::::::::::::::::::::::::::::::::::::::::::
         :: total free energy         -96.572273601943 Eh   ::
         ::.................................................::
         :: total energy              -97.008895622519 Eh   ::
         :: zero point energy           0.493674311222 Eh   ::
         :: G(RRHO) w/o ZPVE           -0.057052290646 Eh   ::
         :: G(RRHO) contrib.            0.436622020576 Eh   ::
         :::::::::::::::::::::::::::::::::::::::::::::::::::::

           -------------------------------------------------
          | TOTAL ENERGY              -97.008895622519 Eh   |
          | TOTAL ENTHALPY            -96.484327668238 Eh   |
          | TOTAL FREE ENERGY         -96.572273601943 Eh   |
          | GRADIENT NORM               0.000055411920 Eh/α |
           -------------------------------------------------

 * finished run on 2025/09/12 at 03:56:48.030
