   * xtb version 6.7.1 (edcfbbe) compiled by 'albert@albert-system' on 2024-07-22

   ID    Z sym.   atoms
    1    6 C      1-16, 18-39
    2    7 N      17
    3    1 H      40-64

          program call               : xtb data2507/gas/PhPC/PhPC_gas_S0_crest.xyz --gfn 2 --ohess vtight --parallel 40 --molden --ceasefiles --namespace data2507/gas/PhPC/PhPC_gas_S0_finalOpt
          :  Hamiltonian                  GFN2-xTB          :
 * total energy  :   -97.0720900 Eh     change       -0.1895657E-08 Eh
 * total energy  :   -97.0720910 Eh     change       -0.1030450E-05 Eh
 * total energy  :   -97.0720910 Eh     change       -0.3295001E-07 Eh
 * total energy  :   -97.0720925 Eh     change       -0.1482004E-05 Eh
 * total energy  :   -97.0720940 Eh     change       -0.1441109E-05 Eh
 * total energy  :   -97.0720948 Eh     change       -0.8310148E-06 Eh
 * total energy  :   -97.0720959 Eh     change       -0.1058017E-05 Eh
 * total energy  :   -97.0720975 Eh     change       -0.1640400E-05 Eh
 * total energy  :   -97.0720990 Eh     change       -0.1470499E-05 Eh
 * total energy  :   -97.0720997 Eh     change       -0.7692335E-06 Eh
 * total energy  :   -97.0721013 Eh     change       -0.2976621E-06 Eh
 * total energy  :   -97.0721015 Eh     change       -0.2133349E-06 Eh
 * total energy  :   -97.0721018 Eh     change       -0.2313806E-06 Eh
 * total energy  :   -97.0721021 Eh     change       -0.3156565E-06 Eh
 * total energy  :   -97.0721024 Eh     change       -0.3815787E-06 Eh
 * total energy  :   -97.0721028 Eh     change       -0.3865381E-06 Eh
 * total energy  :   -97.0721032 Eh     change       -0.3405524E-06 Eh
 * total energy  :   -97.0721035 Eh     change       -0.3097797E-06 Eh
 * total energy  :   -97.0721035 Eh     change       -0.3303924E-08 Eh
   *** GEOMETRY OPTIMIZATION CONVERGED AFTER 22 ITERATIONS ***

 final structure:
================
64
 xtb: 6.7.1 (edcfbbe)
C            8.59709505924281        0.00398671589920        0.00135510136890
C            7.90288663730977        0.21834853281299       -1.17761881810686
C            6.51971760800220        0.21946362495123       -1.17920174085926
C            5.81420718404614        0.00087126752567       -0.00012805407682
C            4.33539108715316        0.00015183077334       -0.00070409578583
C            3.63856849414060       -1.20245162247992        0.18141095326842
C            4.31490340559753       -2.44060123528091        0.34146329111765
C            3.62885619751424       -3.59885244809533        0.53928797037313
C            2.22064849104428       -3.59071023115882        0.59389612638059
C            1.53375909797873       -2.42852730884761        0.42437646733276
C            2.20903355606210       -1.20093779160266        0.19418537841107
C            1.51204555210135       -0.00053829115571       -0.00092765930140
C            0.03402307401446       -0.00060661984493       -0.00066956315964
C           -0.67392247430532       -0.57538189553792       -1.05206110954374
C           -2.05480552853039       -0.56872607912572       -1.05970812011218
C           -2.75628221843187        0.00003373455024       -0.00018204187780
N           -4.15761144613042       -0.00016478227455        0.00004118311312
C           -4.96587292124221        1.09704170846938        0.22168664119399
C           -4.61774302608827        2.42226692206909        0.44078361679086
C           -5.63836085788554        3.33806827242223        0.60953961107799
C           -6.97665084736520        2.95485343020135        0.55446600930375
C           -7.32951324448101        1.64240951793106        0.31271867067912
C           -6.32138443241376        0.70322422628928        0.13979419949743
C           -6.32084636102753       -0.70504605598220       -0.14069374229274
C           -7.32822443257542       -1.64489241323146       -0.31442609267779
C           -6.97430728917519       -2.95700178480576       -0.55645610100344
C           -5.63572414474214       -3.33928731532477       -0.61083616318601
C           -4.61585184866976       -2.42283719903926       -0.44116071817530
C           -4.96504103290958       -1.09790167180982       -0.22199306644815
C           -2.05424862964251        0.56860349563729        1.05906545585781
C           -0.67335771134901        0.57457546181009        1.05089871316027
C            2.20848742913478        1.20019046663031       -0.19601183801666
C            1.53262271460061        2.42747060931463       -0.42611886033883
C            2.21892541455368        3.59008330937547       -0.59504480177039
C            3.62710551362104        3.59894262138746       -0.54009550355292
C            4.31371359223756        2.44097300313318       -0.34257374758764
C            3.63800092081501        1.20242388636035       -0.18297696998595
C            6.51894722292889       -0.21636412065329        1.17965600329384
C            7.90211021235927       -0.21212662948542        1.17955349913164
H            9.67713957239729        0.00533677774393        0.00194012877089
H            8.44094266669712        0.38597989661465       -2.09935612421703
H            5.97531543251736        0.38467092035348       -2.09814717568993
H            5.39406911450543       -2.44659362722802        0.30104330229827
H            4.15760510308728       -4.53301168619322        0.65974192525797
H            1.69260271249385       -4.51664943496620        0.76901356137433
H            0.45458183798335       -2.42269556605427        0.46668240529271
H           -0.13199834705222       -1.01653762819708       -1.87607916529553
H           -2.59767555468814       -0.99150554449938       -1.89186258582952
H           -3.58411509595521        2.73305203146938        0.46792802126212
H           -5.39292879797808        4.37527817759159        0.78474982527756
H           -7.74509511512376        3.70055443555908        0.69446210552072
H           -8.36649840305751        1.34777098813556        0.25407444381468
H           -8.36544445938771       -1.35100095959071       -0.25621936954355
H           -7.74213702191073       -3.70318657389394       -0.69722975196361
H           -5.38944409520933       -4.37625170533464       -0.78630317936322
H           -3.58199492813235       -2.73290362638897       -0.46773456958045
H           -2.59658162026263        0.99174991617539        1.89138432656998
H           -0.13090371104738        1.01560164038329        1.87463778135211
H            0.45346807761491        2.42108237233263       -0.46879961604523
H            1.69041914048273        4.51579796964519       -0.76994232406890
H            4.15540033710002        4.53342682452252       -0.65999320078202
H            5.39285979869188        2.44755968639634       -0.30192630918344
H            5.97395239376772       -0.38274399384079        2.09803729760302
H            8.43953434587262       -0.37855059534372        2.10187739657519

          :  Hamiltonian                  GFN2-xTB          :
         :: gradient norm              0.000035960048 Eh/a0 ::
         :: HOMO-LUMO gap              2.087225271136 eV    ::
         :: SCC energy               -98.963176495697 Eh    ::
         :: -> dispersion             -0.089924788120 Eh    ::
         :: repulsion energy           1.891073005613 Eh    ::

    * Orbital Energies and Occupations

         #    Occupation            Energy/Eh            Energy/eV
      -------------------------------------------------------------
         1        2.0000           -0.6736068             -18.3298
       ...           ...                  ...                  ...
        79        2.0000           -0.4163101             -11.3284
        80        2.0000           -0.4159877             -11.3196
        81        2.0000           -0.4135173             -11.2524
        82        2.0000           -0.4074060             -11.0861
        83        2.0000           -0.4070822             -11.0773
        84        2.0000           -0.4044586             -11.0059
        85        2.0000           -0.4027198             -10.9586
        86        2.0000           -0.4014521             -10.9241
        87        2.0000           -0.3997378             -10.8774
        88        2.0000           -0.3974821             -10.8160
        89        2.0000           -0.3756358             -10.2216
        90        2.0000           -0.3616236              -9.8403
        91        2.0000           -0.3573847              -9.7249 (HOMO)
        92                         -0.2806806              -7.6377 (LUMO)
        93                         -0.2433774              -6.6226
        94                         -0.2330775              -6.3424
        95                         -0.2329047              -6.3377
        96                         -0.2310584              -6.2874
        97                         -0.2251189              -6.1258
        98                         -0.2247185              -6.1149
        99                         -0.2205976              -6.0028
       100                         -0.2189141              -5.9570
       101                         -0.1884746              -5.1287
       102                         -0.1830304              -4.9805
       ...                                ...                  ...
       181                          0.7491131              20.3844
      -------------------------------------------------------------
                  HL-Gap            0.0767041 Eh            2.0872 eV

     #   Z          covCN         q      C6AA      α(0)
     1   6 C        2.920    -0.032    28.787     8.798
     2   6 C        2.919    -0.030    28.741     8.791
     3   6 C        2.924    -0.032    28.798     8.800
     4   6 C        2.977     0.016    27.652     8.626
     5   6 C        2.977    -0.006    28.164     8.705
     6   6 C        2.984     0.006    27.873     8.660
     7   6 C        2.917    -0.034    28.850     8.808
     8   6 C        2.914    -0.030    28.752     8.793
     9   6 C        2.914    -0.030    28.745     8.792
    10   6 C        2.917    -0.035    28.865     8.810
    11   6 C        2.984     0.006    27.878     8.661
    12   6 C        2.977    -0.007    28.194     8.710
    13   6 C        2.977     0.013    27.716     8.636
    14   6 C        2.924    -0.032    28.791     8.799
    15   6 C        2.921    -0.044    29.086     8.844
    16   6 C        2.913     0.062    26.609     8.459
    17   7 N        2.803    -0.045    22.100     6.982
    18   6 C        3.076     0.047    26.874     8.499
    19   6 C        2.910    -0.051    29.264     8.871
    20   6 C        2.924    -0.034    28.838     8.807
    21   6 C        2.920    -0.041    29.021     8.834
    22   6 C        2.913    -0.033    28.820     8.803
    23   6 C        3.068    -0.017    28.369     8.734
    24   6 C        3.068    -0.017    28.369     8.734
    25   6 C        2.913    -0.033    28.820     8.803
    26   6 C        2.920    -0.041    29.021     8.834
    27   6 C        2.924    -0.034    28.838     8.807
    28   6 C        2.910    -0.051    29.265     8.871
    29   6 C        3.076     0.047    26.874     8.499
    30   6 C        2.921    -0.044    29.086     8.844
    31   6 C        2.924    -0.032    28.791     8.799
    32   6 C        2.984     0.006    27.878     8.661
    33   6 C        2.917    -0.035    28.865     8.810
    34   6 C        2.914    -0.030    28.745     8.792
    35   6 C        2.914    -0.030    28.752     8.793
    36   6 C        2.917    -0.034    28.850     8.808
    37   6 C        2.984     0.006    27.873     8.660
    38   6 C        2.924    -0.032    28.798     8.800
    39   6 C        2.919    -0.030    28.741     8.791
    40   1 H        0.926     0.029     2.595     2.519
    41   1 H        0.926     0.030     2.587     2.515
    42   1 H        0.926     0.030     2.593     2.518
    43   1 H        0.926     0.032     2.559     2.502
    44   1 H        0.926     0.029     2.601     2.522
    45   1 H        0.926     0.029     2.603     2.523
    46   1 H        0.926     0.030     2.593     2.518
    47   1 H        0.926     0.036     2.504     2.475
    48   1 H        0.926     0.041     2.440     2.443
    49   1 H        0.926     0.026     2.641     2.541
    50   1 H        0.926     0.028     2.612     2.528
    51   1 H        0.926     0.027     2.626     2.534
    52   1 H        0.926     0.030     2.583     2.513
    53   1 H        0.926     0.030     2.583     2.513
    54   1 H        0.926     0.027     2.626     2.534
    55   1 H        0.926     0.028     2.612     2.528
    56   1 H        0.926     0.026     2.641     2.541
    57   1 H        0.926     0.041     2.441     2.443
    58   1 H        0.926     0.036     2.504     2.475
    59   1 H        0.926     0.030     2.593     2.518
    60   1 H        0.926     0.029     2.603     2.523
    61   1 H        0.926     0.029     2.601     2.522
    62   1 H        0.926     0.032     2.559     2.502
    63   1 H        0.926     0.030     2.593     2.518
    64   1 H        0.926     0.030     2.587     2.515

molecular dipole:
                 x           y           z       tot (Debye)
 q only:        0.622       0.000       0.000
   full:        0.693       0.000       0.000       1.761

 projected vibrational frequencies (cm⁻¹)
eigval :       -0.00    -0.00    -0.00    -0.00     0.00     0.00
eigval :       11.83    15.29    16.92    33.96    40.26    56.57
eigval :       69.74    72.83    74.85    81.92   104.98   109.47
eigval :      115.19   145.42   173.35   192.40   199.11   214.39
eigval :      217.90   222.32   241.08   262.21   271.84   319.99
eigval :      350.13   368.91   380.75   380.86   389.22   398.25
eigval :      399.19   410.67   417.71   430.31   441.39   443.76
eigval :      447.83   458.79   470.07   504.89   519.21   534.47
eigval :      541.20   576.41   578.11   585.22   586.13   591.62
eigval :      592.91   605.56   615.09   618.75   638.45   664.34
eigval :      673.81   674.35   693.01   697.54   702.48   709.54
eigval :      739.31   742.36   758.24   758.94   769.33   774.49
eigval :      775.90   780.66   819.40   866.95   872.79   874.37
eigval :      874.99   880.90   882.82   896.11   898.16   901.37
eigval :      902.62   902.73   904.59   911.98   917.56   918.21
eigval :      920.04   921.31   926.44   927.70   928.26   931.24
eigval :      932.45   933.79   934.73   952.90   996.31  1012.04
eigval :     1024.48  1070.34  1074.04  1081.22  1081.99  1083.36
eigval :     1117.72  1118.36  1132.83  1135.24  1145.94  1152.87
eigval :     1176.58  1181.20  1181.57  1181.98  1182.66  1185.12
eigval :     1195.62  1197.95  1214.87  1223.03  1228.54  1237.01
eigval :     1246.50  1258.46  1262.97  1267.44  1281.13  1300.45
eigval :     1303.66  1309.70  1312.17  1324.77  1350.30  1356.74
eigval :     1362.59  1362.59  1380.23  1385.14  1403.28  1419.22
eigval :     1427.99  1428.57  1430.48  1432.45  1445.48  1471.10
eigval :     1476.87  1488.63  1490.54  1501.78  1527.20  1531.24
eigval :     1543.06  1559.55  1575.23  1580.44  1589.38  1597.26
eigval :     1599.43  1599.65  1608.71  1615.66  1623.00  3071.20
eigval :     3072.09  3073.73  3073.77  3075.34  3075.68  3079.23
eigval :     3079.25  3079.99  3080.12  3080.66  3081.17  3082.01
eigval :     3084.24  3087.49  3089.15  3089.35  3089.84  3092.14
eigval :     3093.44  3093.80  3094.12  3094.74  3094.96  3096.31

   temp. (K)  partition function   enthalpy   heat capacity  entropy
                                   cal/mol     cal/K/mol   cal/K/mol   J/K/mol
 298.15  VIB  0.631E+13            16995.528    111.679    104.622
         ROT  0.228E+08              888.752      2.981     36.651
         INT  0.144E+21            17884.280    114.660    141.274
         TR   0.107E+29             1481.254      4.968     44.469
         TOT                       19365.5342   119.6282   185.7425   777.1468

       T/K    H(0)-H(T)+PV         H(T)/Eh          T*S/Eh         G(T)/Eh
   ------------------------------------------------------------------------
    298.15    0.308609E-01    0.526900E+00    0.882523E-01    0.438648E+00
   ------------------------------------------------------------------------

         :::::::::::::::::::::::::::::::::::::::::::::::::::::
         ::                  THERMODYNAMIC                  ::
         :::::::::::::::::::::::::::::::::::::::::::::::::::::
         :: total free energy         -96.633455378281 Eh   ::
         ::.................................................::
         :: total energy              -97.072103490081 Eh   ::
         :: zero point energy           0.496039446043 Eh   ::
         :: G(RRHO) w/o ZPVE           -0.057391334243 Eh   ::
         :: G(RRHO) contrib.            0.438648111800 Eh   ::
         :::::::::::::::::::::::::::::::::::::::::::::::::::::

           -------------------------------------------------
          | TOTAL ENERGY              -97.072103490081 Eh   |
          | TOTAL ENTHALPY            -96.545203100957 Eh   |
          | TOTAL FREE ENERGY         -96.633455378281 Eh   |
          | GRADIENT NORM               0.000035963037 Eh/α |
          | HOMO-LUMO GAP               2.087225203038 eV   |
           -------------------------------------------------

 * finished run on 2025/09/12 at 03:54:05.602
