   * xtb version 6.7.1 (edcfbbe) compiled by 'albert@albert-system' on 2024-07-22

   ID    Z sym.   atoms
    1    6 C      1-16, 18-39
    2    7 N      17
    3    1 H      40-64

          program call               : xtb data2507/gas/PhPC/PhPC_gas_S0_finalOpt.xtbopt.xyz --gfn 2 --spinpol --tblite --uhf 2 --ohess vtight --parallel 40 --molden --ceasefiles --namespace data2507/gas/PhPC/PhPC_gas_T1_preOpt
 * total energy  :   -96.9993552 Eh     change       -0.7189669E-08 Eh
 * total energy  :   -97.0057355 Eh     change       -0.6380249E-02 Eh
 * total energy  :   -97.0071976 Eh     change       -0.1462113E-02 Eh
 * total energy  :   -97.0073224 Eh     change       -0.1247520E-03 Eh
 * total energy  :   -97.0074529 Eh     change       -0.1305529E-03 Eh
 * total energy  :   -97.0075350 Eh     change       -0.8210127E-04 Eh
 * total energy  :   -97.0076445 Eh     change       -0.1095159E-03 Eh
 * total energy  :   -97.0077705 Eh     change       -0.1259474E-03 Eh
 * total energy  :   -97.0078582 Eh     change       -0.8772035E-04 Eh
 * total energy  :   -97.0079144 Eh     change       -0.5622654E-04 Eh
 * total energy  :   -97.0088785 Eh     change       -0.6106080E-06 Eh
 * total energy  :   -97.0088791 Eh     change       -0.6071504E-06 Eh
 * total energy  :   -97.0088797 Eh     change       -0.5634621E-06 Eh
 * total energy  :   -97.0088803 Eh     change       -0.5518010E-06 Eh
 * total energy  :   -97.0088808 Eh     change       -0.4960102E-06 Eh
 * total energy  :   -97.0088812 Eh     change       -0.4814542E-06 Eh
 * total energy  :   -97.0088817 Eh     change       -0.4217756E-06 Eh
 * total energy  :   -97.0088821 Eh     change       -0.4054259E-06 Eh
 * total energy  :   -97.0088821 Eh     change       -0.1862136E-07 Eh
   *** GEOMETRY OPTIMIZATION CONVERGED AFTER 122 ITERATIONS ***

 final structure:
================
64
 xtb: 6.7.1 (edcfbbe)
C            8.60382183788242        0.00196609339843        0.00018968367282
C            7.90687516483892        0.57179271143931       -1.05322120661245
C            6.52543312220990        0.57739360353243       -1.05261772691713
C            5.81090949553151        0.00135727385606        0.00000574010310
C            4.34665685677972        0.00103770562664       -0.00009023772018
C            3.63767981949585       -1.23843424359066        0.05691456121208
C            4.30449153948605       -2.46575976883938        0.04897031250234
C            3.61456091943065       -3.66926175047198        0.18558791630234
C            2.24671117648038       -3.65998291273911        0.34107879691325
C            1.55219885520868       -2.45133165384697        0.30177660919397
C            2.21224202795788       -1.23660513173190        0.10828026861937
C            1.50016529192050        0.00041573208715       -0.00027330651945
C            0.04224416243828        0.00009704921873       -0.00036817530764
C           -0.67863480919501       -0.76397847415620       -0.92511752372550
C           -2.05620746794216       -0.75540881794877       -0.93622700410280
C           -2.76268013201041       -0.00051376597243       -0.00055296143402
N           -4.16123838498525       -0.00081661840910       -0.00064571537582
C           -4.97006489943800        1.11792035128342        0.04972193329942
C           -4.62303177579960        2.46152469070423        0.05780591943862
C           -5.64424416601637        3.39200609537207        0.08473832973294
C           -6.98212881415936        3.00432793098363        0.09309111151121
C           -7.33425697765753        1.66971872229902        0.05682012376213
C           -6.32561241728632        0.71622868082968        0.02995269654681
C           -6.32529846520777       -0.71879666959244       -0.03152603927145
C           -7.33352766206340       -1.67272218285878       -0.05852485262114
C           -6.98081847207416       -3.00717918317223       -0.09475057625236
C           -5.64276761815920       -3.39427950869255       -0.08622427993913
C           -4.62196063419276       -2.46335719692060       -0.05915863233150
C           -4.96957498093340       -1.11990285435687       -0.05111891957889
C           -2.05665949612759        0.75468803786591        0.93521479026997
C           -0.67908929184076        0.76385770764481        0.92428687580915
C            2.21171533984424        1.23774773526599       -0.10873523477572
C            1.55116626915323        2.45218581639079       -0.30231577322067
C            2.24515541512405        3.66114042413066       -0.34152920277129
C            3.61298112493893        3.67101690481535       -0.18586387518579
C            4.30342001701102        2.46781649599222       -0.04915784855323
C            3.63714563766010        1.24019972623278       -0.05718681382617
C            6.52554560176814       -0.57436755769996        1.05272329639537
C            7.90698494909221       -0.56816439937454        1.05350878920305
H            9.68371384037803        0.00220149064201        0.00026078989646
H            8.44398537954872        1.01257897380456       -1.88068869826897
H            5.98394429313000        1.00760718641052       -1.88305616729553
H            5.37723408973905       -2.48606027142724       -0.06733165442529
H            4.16179612937479       -4.60011556456007        0.18224135974184
H            1.70261367746903       -4.58184321580006        0.48319858761144
H            0.48087006368510       -2.46006291751399        0.43215741446217
H           -0.14065639490934       -1.33411660761449       -1.66837332945114
H           -2.59725988132034       -1.31549529226276       -1.68432517524800
H           -3.59023521772604        2.77436815180087        0.03112632116606
H           -5.39913798815714        4.44384175795284        0.09568180364720
H           -7.75103941912189        3.76208781082318        0.11791788950210
H           -8.37099879677168        1.36890872891601        0.04489489781401
H           -8.37040082241431       -1.37235990061502       -0.04673426164716
H           -7.74939854353685       -3.76527103099827       -0.11967752444537
H           -5.39720582534022       -4.44600922089298       -0.09713662891006
H           -3.58903256405220       -2.77575468645956       -0.03234513872447
H           -2.59805444078237        1.31453858394697        1.68324175295681
H           -0.14145718757489        1.33422978636821        1.66761376797844
H            0.47985042371606        2.46044912185187       -0.43283330218214
H            1.70067328427690        4.58276291310813       -0.48371832526260
H            4.15980915962410        4.60210972175344       -0.18244774624191
H            5.37613873785067        2.48858574100623        0.06728100510886
H            5.98413493180516       -1.00481740540208        1.88309026493700
H            8.44417826893018       -1.00871654742623        1.88104700886572

 projected vibrational frequencies (cm⁻¹)
eigval :       -0.00    -0.00    -0.00    -0.00     0.00     0.00
eigval :       13.11    17.41    18.50    37.32    53.43    55.14
eigval :       68.53    73.04    84.87    87.83   105.26   112.08
eigval :      131.73   149.41   174.21   194.60   202.79   215.53
eigval :      222.79   233.53   248.78   265.26   271.87   318.63
eigval :      344.87   365.80   370.65   378.68   385.98   392.99
eigval :      396.07   401.58   414.41   419.36   421.97   431.30
eigval :      445.79   468.22   471.24   501.17   518.61   536.52
eigval :      540.65   564.60   573.78   575.50   582.39   584.56
eigval :      588.30   596.19   609.35   618.98   623.61   657.59
eigval :      672.86   673.28   674.27   692.21   701.74   709.68
eigval :      714.83   739.22   746.96   755.38   757.78   760.49
eigval :      769.33   780.35   821.41   842.78   845.08   865.82
eigval :      873.50   876.76   882.86   886.97   891.51   893.03
eigval :      897.93   898.93   902.89   903.14   904.46   905.49
eigval :      907.84   909.50   920.93   921.53   930.71   931.42
eigval :      933.53   938.61   945.58   950.69   992.79  1012.09
eigval :     1020.19  1070.80  1074.40  1082.98  1101.10  1104.14
eigval :     1113.34  1117.52  1119.92  1126.25  1135.33  1152.20
eigval :     1175.69  1180.51  1180.57  1180.91  1181.12  1182.19
eigval :     1184.45  1190.42  1199.24  1205.07  1231.67  1235.84
eigval :     1244.55  1253.96  1256.73  1267.87  1280.26  1295.72
eigval :     1296.11  1300.62  1301.15  1311.17  1313.42  1335.46
eigval :     1358.19  1360.77  1366.39  1366.78  1376.22  1377.11
eigval :     1408.22  1408.70  1425.69  1426.18  1427.81  1429.19
eigval :     1462.47  1474.20  1474.52  1484.66  1486.14  1487.93
eigval :     1517.71  1530.89  1535.11  1558.54  1565.29  1574.22
eigval :     1577.26  1586.45  1588.35  1596.80  1612.83  3070.18
eigval :     3071.02  3076.05  3076.23  3076.72  3077.12  3079.33
eigval :     3079.83  3080.50  3082.03  3083.08  3083.36  3084.85
eigval :     3085.14  3088.99  3091.14  3091.99  3092.10  3092.86
eigval :     3094.38  3095.10  3095.34  3097.14  3097.83  3098.76

   temp. (K)  partition function   enthalpy   heat capacity  entropy
                                   cal/mol     cal/K/mol   cal/K/mol   J/K/mol
 298.15  VIB  0.263E+13            17025.693    113.004    104.078
         ROT  0.230E+08              888.752      2.981     36.663
         INT  0.603E+20            17914.446    115.985    140.741
         TR   0.107E+29             1481.254      4.968     44.469
         TOT                       19395.6995   120.9531   185.2095   774.9164

       T/K    H(0)-H(T)+PV         H(T)/Eh          T*S/Eh         G(T)/Eh
   ------------------------------------------------------------------------
    298.15    0.309090E-01    0.524499E+00    0.879990E-01    0.436500E+00
   ------------------------------------------------------------------------

         :::::::::::::::::::::::::::::::::::::::::::::::::::::
         ::                  THERMODYNAMIC                  ::
         :::::::::::::::::::::::::::::::::::::::::::::::::::::
         :: total free energy         -96.572381639872 Eh   ::
         ::.................................................::
         :: total energy              -97.008882080121 Eh   ::
         :: zero point energy           0.493590415131 Eh   ::
         :: G(RRHO) w/o ZPVE           -0.057089974881 Eh   ::
         :: G(RRHO) contrib.            0.436500440249 Eh   ::
         :::::::::::::::::::::::::::::::::::::::::::::::::::::

           -------------------------------------------------
          | TOTAL ENERGY              -97.008882080121 Eh   |
          | TOTAL ENTHALPY            -96.484382650467 Eh   |
          | TOTAL FREE ENERGY         -96.572381639872 Eh   |
          | GRADIENT NORM               0.000051602235 Eh/α |
           -------------------------------------------------

 * finished run on 2025/09/12 at 03:54:15.218
