   * xtb version 6.7.1 (edcfbbe) compiled by 'albert@albert-system' on 2024-07-22

   ID    Z sym.   atoms
    1    6 C      1-3, 5-18, 20-23, 25-46, 48-64, 66-79, 81-84, 86-107
    2    7 N      4, 19, 24, 47, 65, 80, 85
    3    1 H      108-176

          program call               : xtb data2507/gas/TPA–2SPPITPA/TPA–2SPPITPA_gas_S0_finalOpt.xtbopt.xyz --gfn 2 --spinpol --tblite --uhf 2 --ohess vtight --parallel 40 --molden --ceasefiles --namespace data2507/gas/TPA–2SPPITPA/TPA–2SPPITPA_gas_T1_preOpt
 * total energy  :  -269.8183821 Eh     change        0.2467862E-06 Eh
 * total energy  :  -269.8234145 Eh     change       -0.5032447E-02 Eh
 * total energy  :  -269.8265188 Eh     change       -0.3104301E-02 Eh
 * total energy  :  -269.8270950 Eh     change       -0.5761424E-03 Eh
 * total energy  :  -269.8273016 Eh     change       -0.2066407E-03 Eh
 * total energy  :  -269.8274304 Eh     change       -0.1288455E-03 Eh
 * total energy  :  -269.8274828 Eh     change       -0.5231846E-04 Eh
 * total energy  :  -269.8275449 Eh     change       -0.6218879E-04 Eh
 * total energy  :  -269.8275896 Eh     change       -0.4461063E-04 Eh
 * total energy  :  -269.8276103 Eh     change       -0.2069769E-04 Eh
 * total energy  :  -269.8311478 Eh     change       -0.5888360E-06 Eh
 * total energy  :  -269.8311492 Eh     change       -0.1392373E-05 Eh
 * total energy  :  -269.8311505 Eh     change       -0.1285119E-05 Eh
 * total energy  :  -269.8311519 Eh     change       -0.1381554E-05 Eh
 * total energy  :  -269.8311537 Eh     change       -0.1871110E-05 Eh
 * total energy  :  -269.8311553 Eh     change       -0.1524777E-05 Eh
 * total energy  :  -269.8311568 Eh     change       -0.1480640E-05 Eh
 * total energy  :  -269.8311585 Eh     change       -0.1734325E-05 Eh
 * total energy  :  -269.8311585 Eh     change       -0.1824316E-07 Eh
   *** GEOMETRY OPTIMIZATION CONVERGED AFTER 460 ITERATIONS ***

 final structure:
================
176
 xtb: 6.7.1 (edcfbbe)
C           -6.02610638183128       -2.55440560913097       -0.36222675885624
C           -5.73510357896329       -1.21601594781785       -0.70144222101690
C           -6.63711073111520       -0.18571234611369       -0.53940979561132
N           -7.89139297581513       -0.29516520620465       -0.07028558407676
C           -8.38264033419330        0.94126460847914       -0.01826346015964
C           -9.67223042310343        1.34767222871229        0.43480195958989
C          -10.58836333371795        0.40787071938879        0.91488699778662
C          -11.81852026585171        0.80910560362725        1.37808640134688
C          -12.14044742363150        2.16334461702702        1.36922352164918
C          -11.24696314156718        3.09717044107345        0.89303575113765
C           -9.98724830367580        2.72574198379311        0.40240301978206
C           -9.03806243366981        3.68396678235565       -0.13966204539070
C           -9.35112762326434        5.04205227301824       -0.26079083918557
C           -8.47512870879877        5.94963234606825       -0.81305482985149
C           -7.23750598247549        5.52508643022608       -1.29091139186574
C           -6.88555540365591        4.20427411773218       -1.18547186387401
C           -7.75322507814773        3.26374088101737       -0.59902338917010
C           -7.43490339773109        1.89272800430931       -0.47273472043772
N           -6.32466635944118        1.16642330417774       -0.80659441226721
C           -5.04542803373894        1.60661626280549       -1.17106856558343
C           -4.31832382622621        2.45600181635568       -0.33714354918213
C           -3.03966317221292        2.84242681636073       -0.67953014956822
C           -2.45021859205228        2.37757966666741       -1.85780646110202
N           -1.14757636066040        2.74478763642545       -2.20739288426702
C           -0.30936355568778        1.78654482315851       -2.79547584243920
C           -0.34541341539993        0.46391182902526       -2.35327845831238
C            0.49524842690297       -0.48116716140483       -2.90939509572201
C            1.38250004351204       -0.12656269750511       -3.91248916166995
C            1.41061291224223        1.18212084552912       -4.36667576365044
C            0.57013456908303        2.13301432264867       -3.82050436524299
C           -0.70123270547631        4.05367791252704       -2.01003779596113
C            0.64879468396784        4.31643503712133       -1.77153098882935
C            1.08787384842062        5.61456317425224       -1.59764640006214
C            0.19311580622117        6.67113179816730       -1.63327964488869
C           -1.14922583489493        6.41655052576578       -1.85996262407518
C           -1.59485786931510        5.12431255730120       -2.05706894821093
C           -3.18323962561865        1.52893798043395       -2.68959961169191
C           -4.46403038279299        1.14864521639940       -2.35192578467870
C           -5.12747837442510       -3.61012365810803       -0.45660234423539
C           -3.83441957632035       -3.49263763373337       -1.04991273581165
C           -2.92233888128550       -4.49754458847354       -0.97390148430954
C           -3.19143482497880       -5.70981900630579       -0.29061741349573
C           -2.12872308288564       -6.63775903450455       -0.00463553886045
C           -0.90350634249432       -6.58722728424879       -0.70114951848218
C            0.19899665117978       -7.26714865705443       -0.25693558533644
C            0.13539682495380       -8.06334071908015        0.89257351067149
N            1.33269589095256       -8.53779738989299        1.44568060133926
C            1.46575609851028       -9.82843726605646        1.93498471802780
C            0.68387851185811      -10.85970304874702        1.40923881206723
C            0.80882842976294      -12.14461619864720        1.89748455547528
C            1.71531452159689      -12.42863701659063        2.90647152014703
C            2.49539067554437      -11.40976465016172        3.42938940934135
C            2.37316205007441      -10.11870267498036        2.95605625089561
C            2.33875218267069       -7.56816842229886        1.55971006206969
C            3.67395173860417       -7.82196250291998        1.24904468222197
C            4.59284309585786       -6.78989961578999        1.23513789155260
C            4.21573489540816       -5.48134466854562        1.53768348886368
C            5.10130951806528       -4.32455884793176        1.38037164683348
C            6.02437185245445       -4.25021050039283        0.33648975296359
C            6.69149000860637       -3.07348932002455        0.06263107794380
C            6.43908207770946       -1.91787176684393        0.80450516296244
C            6.96366292581193       -0.63126380299580        0.38533908867536
C            6.25281178252743        0.49572773697949        0.54354933898137
C            6.65978976460213        1.80266265164158        0.12722981198287
N            7.87167545168279        2.17894286079210       -0.20883433996805
C            7.79247916209170        3.50977948532688       -0.45253418964155
C            8.84368716021289        4.38840555871853       -0.83752312547036
C           10.14805413792848        3.91723434297153       -1.01945683691265
C           11.15230544928591        4.77880695047233       -1.38342791873194
C           10.86108183121029        6.12868254691740       -1.56986325030724
C            9.58208495461927        6.60271151000851       -1.39406300912774
C            8.52797582226504        5.75370858258427       -1.02338444553540
C            7.16612808769492        6.22359251857521       -0.83583386008394
C            6.82044814077370        7.57058001560686       -1.01360561484185
C            5.53393899843474        8.02299719161282       -0.84015167249289
C            4.52192389461455        7.13546495699007       -0.48859902407647
C            4.81646403337934        5.80632511376631       -0.30998746040564
C            6.12565527536001        5.32821911143466       -0.46419996446628
C            6.48507748888714        3.96729611551593       -0.26259734058869
N            5.76468813416745        2.85916855911104        0.10649980422083
C            4.39166687089799        2.69039076536526        0.37813002044236
C            3.81154805127962        3.21770016348125        1.52823620323272
C            2.49838057189495        2.92795686808706        1.83704729547742
C            1.74043466187483        2.08981217993405        1.01548305726757
N            0.43586588369669        1.73826338704452        1.36920402696891
C           -0.39428260880137        2.69498534089064        1.97115654251830
C           -1.26966418371219        2.34513406233953        2.99853182879868
C           -2.10505803429315        3.29509758555571        3.55384537865694
C           -2.07542569678043        4.60640050399584        3.10730075345673
C           -1.19105799062735        4.96433505027825        2.10307462566438
C           -0.35585730661432        4.01997423183904        1.53751417999262
C           -0.01222719633542        0.42346728113773        1.18941013464199
C            0.87956133998751       -0.64802412247468        1.24574569340201
C            0.42835716704194       -1.94263677136839        1.07421327178901
C           -0.91690353230150       -2.20015257559024        0.87236847033053
C           -1.80898980159215       -1.14188961002836        0.82002771252556
C           -1.36414808769951        0.15872194787091        0.96214820558688
C            2.31961466495285        1.59031191160371       -0.15323608279632
C            3.62927238108036        1.88719667240294       -0.46652355888987
C            5.59713960301137       -2.02457223441701        1.91525193047827
C            4.95029143384441       -3.20422194927695        2.20152688173232
C            2.89063154414265       -5.25442895686655        1.91716490714746
C            1.96946753821411       -6.27300470884900        1.92986081741982
C           -1.10713972118658       -8.25286850376590        1.50271842570815
C           -2.20633130400629       -7.55233055436976        1.06488244796728
C           -4.51733503652964       -5.88311232279224        0.18041726134140
C           -5.44556324077480       -4.89223067327459        0.08741605552592
H           -7.00724946691186       -2.73857550082506        0.05031916783748
H           -4.75141449309852       -0.96035251992520       -1.06314559215879
H          -10.29273724041203       -0.62965729621570        0.91078494778528
H          -12.52895052646712        0.08585319129950        1.74978220218792
H          -13.10248939657249        2.48793729306845        1.73897627541930
H          -11.54139767401044        4.13456992309393        0.90917732103330
H          -10.30938366683663        5.40395275421904        0.07555648218472
H           -8.75433128987276        6.99011148931820       -0.88810450585105
H           -6.56033538291383        6.23257910073409       -1.74630674684278
H           -5.93518138682091        3.87309642721154       -1.57324708178098
H           -4.76046069309349        2.80442447032304        0.58489874295479
H           -2.48212915136024        3.49625952560525       -0.02506861149260
H           -1.02536169140514        0.18351801231569       -1.56285648102523
H            0.46321600813185       -1.49683251758527       -2.54320046511036
H            2.04399674400664       -0.86464932853021       -4.33963107532804
H            2.08824858466729        1.46509584026530       -5.15857433604838
H            0.58918170714522        3.14908730146806       -4.18613971196238
H            1.35307272927393        3.49908776232979       -1.71940944622842
H            2.13816574954037        5.79742238308843       -1.42951000694704
H            0.53918736347567        7.68362735375614       -1.49136291439414
H           -1.85568861194414        7.23268831020351       -1.89809812222579
H           -2.63961461824658        4.93918827439785       -2.25820084762081
H           -2.74139801776774        1.17676507403492       -3.60984516687104
H           -5.03296433743066        0.50948337908682       -3.01071305339259
H           -3.56840135463075       -2.58415254297906       -1.56824360096078
H           -1.94871290365576       -4.33820141860612       -1.41179515601326
H           -0.81926608239766       -6.00171217693187       -1.60290736793655
H            1.14088587909068       -7.17756227340344       -0.77918789253634
H           -0.01181559897970      -10.64319653193396        0.61189110239434
H            0.19899157921872      -12.93289635812522        1.48122136413764
H            1.81230872238128      -13.43542605209976        3.28288092305469
H            3.19957313785652      -11.62036651319302        4.22088439020185
H            2.96847187552768       -9.32427554696747        3.38144450779917
H            3.97842863733091       -8.82450222743779        0.98564798490115
H            5.61961862516301       -7.00335193283947        0.97678835585750
H            6.18151768588515       -5.11049048059521       -0.29769828188971
H            7.37399142394067       -3.02500492466299       -0.77374245334117
H            7.90956980351083       -0.60023817966116       -0.13488954359258
H            5.27282933206630        0.44589330031468        1.00021446117018
H           10.32954963548871        2.86539429529230       -0.86234243888004
H           12.16097895816441        4.41943697816903       -1.52451894589737
H           11.64823460444087        6.81156780913934       -1.85570492091841
H            9.40533102662033        7.65515408922384       -1.54997143708515
H            7.57674592761461        8.28622788867437       -1.29261950440357
H            5.30763321705735        9.06983176965558       -0.97997430842852
H            3.51166043775255        7.49352029130604       -0.35295397336664
H            4.03181585408689        5.11414881918674       -0.04563241524297
H            4.40203425398931        3.83623354096764        2.18819401511485
H            2.05883425407237        3.32613517673808        2.73933398654813
H           -1.29069191375560        1.32699948113680        3.35809638815930
H           -2.78033008445509        3.00929085792800        4.34675561917779
H           -2.73328847507375        5.34358869386702        3.54153441263808
H           -1.15605340062947        5.98251937605155        1.74434589248292
H            0.32239054708933        4.30301835672048        0.74681606082023
H            1.92795707730616       -0.46570234611949        1.43130217342037
H            1.13451989196118       -2.75916263699272        1.10758571799023
H           -1.27084004095061       -3.21321262430159        0.75965084174871
H           -2.86051645363423       -1.33168634213788        0.66260571936697
H           -2.06614879961355        0.97708316231603        0.89799935518850
H            1.74026236366172        0.95627607750869       -0.80757499693193
H            4.07476603588225        1.48753450134980       -1.36573479319876
H            5.45481196397333       -1.16844379309148        2.55824127450594
H            4.31233521637291       -3.26090412084172        3.07147287167510
H            2.57103319714327       -4.25610481262899        2.17370716486038
H            0.94515197670366       -6.07169315344902        2.20703996394260
H           -1.18236483567689       -8.90221262542688        2.36320356538387
H           -3.13192263483536       -7.65845369132815        1.60875523436176
H           -4.80246838982506       -6.83015087075640        0.61439401043987
H           -6.44640143070818       -5.04971585693158        0.46343079964087

 projected vibrational frequencies (cm⁻¹)
eigval :       -0.00    -0.00    -0.00    -0.00     0.00     0.00
eigval :        7.19     8.21    10.65    12.03    13.63    15.23
eigval :       17.10    20.67    23.22    27.22    28.38    28.89
eigval :       31.36    32.08    37.17    40.10    44.41    44.66
eigval :       48.60    51.62    55.75    56.10    59.90    62.44
eigval :       63.91    65.05    68.86    70.23    76.94    78.19
eigval :       80.78    82.76    84.84    86.72    90.54    93.53
eigval :       94.59    98.64   101.60   107.85   109.34   113.44
eigval :      120.19   128.73   135.00   136.58   144.53   155.16
eigval :      160.37   165.07   173.48   178.36   180.68   184.30
eigval :      191.12   195.55   210.71   215.56   217.30   220.59
eigval :      227.93   234.86   237.91   241.63   243.40   248.99
eigval :      253.30   259.24   267.34   271.27   273.17   302.55
eigval :      304.46   306.15   308.40   308.99   320.09   321.86
eigval :      333.58   336.01   344.04   349.98   354.55   361.94
eigval :      367.19   370.02   375.01   377.72   378.89   379.71
eigval :      381.02   382.10   385.50   385.62   386.56   387.16
eigval :      392.31   393.61   394.78   396.29   398.01   399.26
eigval :      404.54   410.18   410.74   415.03   418.24   426.28
eigval :      429.92   436.62   444.55   448.59   450.11   457.30
eigval :      462.54   471.83   477.90   481.51   482.20   491.64
eigval :      494.42   496.38   499.38   505.44   507.68   509.73
eigval :      514.22   518.78   526.47   529.09   530.00   536.09
eigval :      540.93   573.01   573.60   580.90   582.04   584.50
eigval :      585.73   587.18   587.39   588.71   592.01   592.46
eigval :      594.79   601.84   605.22   606.02   611.18   612.37
eigval :      618.17   621.37   626.72   639.77   642.79   648.89
eigval :      650.71   655.06   656.37   659.44   660.78   662.35
eigval :      663.67   664.56   668.84   670.62   671.64   673.96
eigval :      675.71   676.65   679.65   682.23   685.60   696.92
eigval :      698.53   704.25   721.65   727.56   731.66   732.24
eigval :      735.54   750.11   755.68   757.36   757.57   757.78
eigval :      759.85   761.31   761.83   763.52   766.85   766.92
eigval :      773.51   778.83   783.00   796.30   807.01   808.49
eigval :      811.58   823.51   823.81   830.03   838.18   849.28
eigval :      850.24   854.10   858.78   861.22   863.69   866.16
eigval :      867.14   872.02   872.19   873.23   875.00   875.94
eigval :      876.87   877.51   877.97   880.85   883.47   887.86
eigval :      894.11   896.88   898.80   899.72   903.57   905.52
eigval :      907.54   908.25   909.35   910.07   910.80   913.54
eigval :      914.40   914.68   914.85   916.43   917.57   918.22
eigval :      918.66   918.87   919.48   920.99   924.28   924.50
eigval :      925.09   926.88   927.31   927.42   928.10   928.57
eigval :      929.15   930.17   931.77   932.01   932.10   932.36
eigval :      932.78   935.00   935.42   937.61   941.71   945.72
eigval :      963.82   980.32   982.58   983.04   983.21   997.38
eigval :      998.54  1003.90  1004.67  1008.27  1010.18  1010.48
eigval :     1017.41  1022.03  1040.28  1049.32  1062.65  1078.53
eigval :     1081.08  1082.24  1083.47  1083.64  1084.00  1086.94
eigval :     1087.34  1088.10  1088.39  1105.54  1108.96  1123.19
eigval :     1123.54  1124.30  1126.79  1128.44  1129.19  1134.47
eigval :     1135.32  1136.15  1140.13  1146.10  1148.21  1149.20
eigval :     1159.18  1161.25  1166.68  1175.01  1175.88  1176.88
eigval :     1179.41  1179.59  1180.44  1181.66  1181.99  1182.55
eigval :     1183.09  1183.92  1184.75  1185.86  1187.69  1191.12
eigval :     1192.20  1194.56  1194.87  1197.80  1199.02  1204.16
eigval :     1204.78  1208.19  1213.25  1216.44  1219.89  1220.74
eigval :     1229.47  1236.45  1248.19  1252.50  1255.38  1258.75
eigval :     1264.82  1265.21  1267.82  1269.13  1275.11  1277.35
eigval :     1278.01  1278.94  1281.60  1282.70  1283.93  1284.62
eigval :     1284.80  1285.78  1288.04  1295.55  1305.03  1307.31
eigval :     1308.80  1309.83  1312.52  1316.40  1317.70  1319.19
eigval :     1321.01  1323.01  1323.29  1323.53  1324.53  1326.64
eigval :     1328.04  1329.00  1331.26  1334.02  1336.47  1338.26
eigval :     1339.73  1340.72  1341.60  1349.14  1350.04  1368.09
eigval :     1381.41  1396.49  1398.35  1399.45  1406.02  1412.22
eigval :     1414.06  1414.98  1418.26  1422.88  1425.73  1433.34
eigval :     1434.41  1434.90  1435.95  1438.55  1439.31  1441.74
eigval :     1443.11  1443.80  1447.24  1458.09  1467.24  1471.35
eigval :     1472.42  1473.12  1474.45  1474.93  1477.58  1479.64
eigval :     1483.45  1484.10  1495.94  1498.75  1506.01  1508.23
eigval :     1513.18  1514.94  1531.73  1542.62  1546.37  1547.05
eigval :     1547.63  1550.69  1553.48  1557.06  1562.99  1565.61
eigval :     1568.36  1574.97  1576.10  1576.13  1576.56  1580.50
eigval :     1580.80  1581.68  1588.57  1590.11  1592.23  1592.39
eigval :     1592.99  1593.54  1594.22  1594.60  1598.93  1599.04
eigval :     1599.50  1604.11  1632.23  3059.99  3069.14  3071.70
eigval :     3072.67  3072.86  3073.05  3074.18  3075.00  3075.93
eigval :     3076.91  3077.26  3077.39  3077.75  3078.28  3078.58
eigval :     3078.70  3078.77  3078.89  3080.54  3081.05  3082.63
eigval :     3082.85  3082.96  3083.07  3083.74  3084.31  3084.62
eigval :     3084.70  3084.94  3085.17  3085.42  3085.69  3086.54
eigval :     3086.68  3086.81  3087.83  3088.06  3088.54  3089.90
eigval :     3090.25  3090.40  3090.64  3090.99  3091.27  3092.91
eigval :     3093.98  3095.80  3096.16  3096.28  3096.36  3096.45
eigval :     3096.59  3097.21  3097.96  3098.82  3100.01  3100.32
eigval :     3101.09  3101.42  3102.16  3102.54  3102.86  3103.26
eigval :     3105.32  3106.49  3106.87  3109.48  3110.11  3111.01

   temp. (K)  partition function   enthalpy   heat capacity  entropy
                                   cal/mol     cal/K/mol   cal/K/mol   J/K/mol
 298.15  VIB  0.399E+43            52534.138    325.896    331.449
         ROT  0.848E+09              888.752      2.981     43.836
         INT  0.338E+52            53422.891    328.877    375.286
         TR   0.490E+29             1481.254      4.968     47.495
         TOT                       54904.1448   333.8455   422.7812  1768.9164

       T/K    H(0)-H(T)+PV         H(T)/Eh          T*S/Eh         G(T)/Eh
   ------------------------------------------------------------------------
    298.15    0.874953E-01    0.144920E+01    0.200877E+00    0.124832E+01
   ------------------------------------------------------------------------

         :::::::::::::::::::::::::::::::::::::::::::::::::::::
         ::                  THERMODYNAMIC                  ::
         :::::::::::::::::::::::::::::::::::::::::::::::::::::
         :: total free energy        -268.582838031095 Eh   ::
         ::.................................................::
         :: total energy             -269.831158510239 Eh   ::
         :: zero point energy           1.361702134959 Eh   ::
         :: G(RRHO) w/o ZPVE           -0.113381655815 Eh   ::
         :: G(RRHO) contrib.            1.248320479145 Eh   ::
         :::::::::::::::::::::::::::::::::::::::::::::::::::::

           -------------------------------------------------
          | TOTAL ENERGY             -269.831158510239 Eh   |
          | TOTAL ENTHALPY           -268.381961051276 Eh   |
          | TOTAL FREE ENERGY        -268.582838031095 Eh   |
          | GRADIENT NORM               0.000078877467 Eh/α |
           -------------------------------------------------

 * finished run on 2025/09/07 at 11:48:31.311
