   * xtb version 6.7.1 (edcfbbe) compiled by 'albert@albert-system' on 2024-07-22

   ID    Z sym.   atoms
    1    6 C      1-3, 5-18, 20-23, 25-46, 48-64, 66-79, 81-84, 86-107
    2    7 N      4, 19, 24, 47, 65, 80, 85
    3    1 H      108-176

          program call               : xtb data2507/gas/TPA–2SPPITPA/TPA–2SPPITPA.xyz --gfn 2 --ohess vtight --parallel 40 --molden --ceasefiles --namespace data2507/gas/TPA–2SPPITPA/TPA–2SPPITPA_gas_S0_preOpt
          :  Hamiltonian                  GFN2-xTB          :
 * total energy  :  -269.8093307 Eh     change       -0.9019232E-08 Eh
 * total energy  :  -269.8417023 Eh     change       -0.3237162E-01 Eh
 * total energy  :  -269.8549652 Eh     change       -0.1326291E-01 Eh
 * total energy  :  -269.8600293 Eh     change       -0.5064065E-02 Eh
 * total energy  :  -269.8629569 Eh     change       -0.2927586E-02 Eh
 * total energy  :  -269.8645674 Eh     change       -0.1610521E-02 Eh
 * total energy  :  -269.8655794 Eh     change       -0.1011998E-02 Eh
 * total energy  :  -269.8663369 Eh     change       -0.7575347E-03 Eh
 * total energy  :  -269.8669386 Eh     change       -0.6017093E-03 Eh
 * total energy  :  -269.8674288 Eh     change       -0.4902009E-03 Eh
 * total energy  :  -269.8849374 Eh     change       -0.2083585E-05 Eh
 * total energy  :  -269.8849392 Eh     change       -0.1834970E-05 Eh
 * total energy  :  -269.8849409 Eh     change       -0.1657642E-05 Eh
 * total energy  :  -269.8849425 Eh     change       -0.1629857E-05 Eh
 * total energy  :  -269.8849444 Eh     change       -0.1893883E-05 Eh
 * total energy  :  -269.8849472 Eh     change       -0.2754319E-05 Eh
 * total energy  :  -269.8849510 Eh     change       -0.3804766E-05 Eh
 * total energy  :  -269.8849560 Eh     change       -0.5039108E-05 Eh
 * total energy  :  -269.8849560 Eh     change       -0.7201891E-08 Eh
   *** GEOMETRY OPTIMIZATION CONVERGED AFTER 1820 ITERATIONS ***

 final structure:
================
176
 xtb: 6.7.1 (edcfbbe)
C           -8.90784753555775        0.09618600393991        2.73169875924791
C           -9.77515632962620       -0.43228445399568        1.85222404670279
C          -11.04939993863929       -0.94705922055007        2.25006448303354
N          -11.50269700692733       -0.99757485827553        3.48360810477015
C          -12.74748191679192       -1.52509435477476        3.40357753175132
C          -13.66607169138792       -1.76853084673772        4.46334402508729
C          -13.33905785605990       -1.46156653459526        5.78809003466518
C          -14.24521002327041       -1.68069371154468        6.79527790009471
C          -15.49654148409581       -2.20973589179524        6.48591321268773
C          -15.82726318715788       -2.51929014294097        5.18728197089493
C          -14.92647013579941       -2.31614680171968        4.13064552022383
C          -15.23903947427405       -2.65732591590032        2.75310541773025
C          -16.45893668038178       -3.24983608809937        2.39802082273693
C          -16.74735659579154       -3.60572495859703        1.10163197893709
C          -15.81166359396676       -3.39517644098262        0.09363828886442
C          -14.60668387938614       -2.81195459979190        0.39732022138189
C          -14.30288859737233       -2.42031761554826        1.70928226970529
C          -13.07248487616368       -1.80913289705028        2.07482046090510
N          -11.97294128097833       -1.43401256638393        1.34406910458353
C          -11.81519569762232       -1.38947110805629       -0.05468273114548
C          -12.57646932622079       -0.50347327127339       -0.81242189410942
C          -12.39558419681368       -0.42523607080428       -2.17613523172606
C          -11.44397870368546       -1.22630163797901       -2.81292727176777
N          -11.25460809946286       -1.14191557977709       -4.19069588050996
C           -9.96873590162679       -1.28015310141933       -4.73115447747542
C           -8.86417883251914       -0.74218590952372       -4.07172207653542
C           -7.59856325032045       -0.88226931005221       -4.60699037559200
C           -7.41460902874123       -1.54924528284271       -5.80705970864051
C           -8.50971478599948       -2.07970750140232       -6.46900219937688
C           -9.77840762741043       -1.95253297983142       -5.93730871531483
C          -12.34599141119468       -0.90755514425133       -5.03820074111911
C          -12.20654678627070       -0.09173655776663       -6.15994903002794
C          -13.28349928749236        0.12965325508747       -6.99631588501247
C          -14.51304798209335       -0.44805245577130       -6.72564724560165
C          -14.65727817615591       -1.25665193816731       -5.61023295412663
C          -13.58412614439349       -1.49138620985686       -4.77285733973001
C          -10.68315212499977       -2.11077861183896       -2.04523836543566
C          -10.86455904411636       -2.18931806951029       -0.68000494919197
C           -7.61046559263829        0.65053236534061        2.41421247815543
C           -6.93685309747833        0.37637610927648        1.21989596184696
C           -5.70563531260709        0.93684523080999        0.95605178704482
C           -5.10742982930483        1.81203665967920        1.86184949972410
C           -3.81804434778578        2.44454945454076        1.56009324649461
C           -3.62944539411503        3.80542604919539        1.79665520924977
C           -2.43312660333895        4.41908385678533        1.49401040244428
C           -1.37848717629783        3.68254230060760        0.95445897862081
N           -0.16953896392565        4.31135562260692        0.63332094877257
C           -0.19534499315238        5.59091678029326        0.06562110908149
C           -1.18220601733941        5.92585695134394       -0.86152315978336
C           -1.21467457458246        7.18937337207886       -1.41820695797923
C           -0.26428918481530        8.13476846015361       -1.06909895830650
C            0.71893174118724        7.80676371155975       -0.15000204300877
C            0.75469036597809        6.54874869067589        0.41913354678628
C            1.04812045040551        3.69221041632829        0.92050326378662
C            1.19114455788117        2.88776430614566        2.05190541406266
C            2.41031172748244        2.32117157261913        2.35684936493423
C            3.52651961116944        2.52945652731066        1.54702287343071
C            4.83798644448672        1.98116626021251        1.90604992769464
C            5.26393361113445        1.97252690700316        3.23478475845165
C            6.51436837992103        1.50479272245725        3.57231894590310
C            7.39659489417328        1.01904839272683        2.60042066255244
C            8.70721822130174        0.57287868814308        3.01077445005676
C            9.69002065059231        0.11630826919238        2.21504187513316
C           10.96720463655452       -0.26608644825511        2.73336177296934
N           11.34913457248379       -0.14938250287763        3.98679000972758
C           12.63220790424827       -0.57990581685500        4.02842466950588
C           13.50420287146099       -0.62553921753850        5.15257942168134
C           13.07922257637896       -0.19796810123953        6.41459865051832
C           13.94117384134179       -0.22252347882139        7.48229624435826
C           15.24599322728742       -0.67489313353511        7.29724102409198
C           15.67326575328592       -1.10196682339314        6.06165132824305
C           14.82053660289193       -1.09878614003928        4.94719105288758
C           15.23616930178316       -1.56778990461161        3.63613948307748
C           16.51560579227188       -2.09566318498051        3.41332248500099
C           16.90447938426980       -2.57278782404610        2.18388234743367
C           16.01483904141195       -2.55649802402215        1.11428813252173
C           14.75397802415299       -2.04228065107433        1.28796232956499
C           14.34633315714962       -1.52795673911519        2.52746945429341
C           13.05485079098487       -0.97980882250635        2.75799769396696
N           11.97595924162925       -0.77140222758635        1.93530355092290
C           11.88454828386837       -0.92838587840921        0.53901763386373
C           12.62372416716987       -0.10656473721034       -0.30766283913642
C           12.51390190019111       -0.24284202771656       -1.67460228744915
C           11.65884455934304       -1.20068324762502       -2.22647861886051
N           11.55159921802023       -1.34193949841299       -3.60839322422727
C           10.31826271526506       -1.67385516228913       -4.18606324658497
C           10.25840789782060       -2.54537612627959       -5.27228955829787
C            9.04033818019409       -2.86411151116985       -5.84078577977565
C            7.86743262629293       -2.32931242927686       -5.33376919842289
C            7.92166054645339       -1.46458139667694       -4.25296612129273
C            9.13554403470992       -1.13276585145832       -3.68355068613763
C           12.67674064301692       -1.16112029706635       -4.42432516106813
C           13.93309679858196       -1.59537946337679       -4.00331635051953
C           15.03836070384097       -1.41382722899007       -4.81164115287574
C           14.90948533267071       -0.80858333384475       -6.05092859536166
C           13.66239588526880       -0.38089294134348       -6.47594114460887
C           12.55255409988423       -0.54949764166504       -5.67087536074656
C           10.91281147042477       -2.01325952486116       -1.36988471726150
C           11.02154904837595       -1.87575135361020       -0.00177844205728
C            6.95620956222957        1.00915258332039        1.27240963185921
C            5.70756681767585        1.48333298504840        0.93467303874460
C            3.36800567153180        3.30693192477396        0.39981629481270
C            2.15331298194325        3.87864715014977        0.08862857073658
C           -1.55450153516454        2.31714905241818        0.73185398036008
C           -2.75986553465862        1.71303184529480        1.02392344501198
C           -5.77158721189265        2.08330813908140        3.05750620521680
C           -6.98893316516121        1.50080621415755        3.33459947422931
H           -9.21486500284074        0.14184079675241        3.76763218354233
H           -9.55484839281378       -0.46885968035653        0.79456483924921
H          -12.36156050444112       -1.04835855193192        5.98234258588178
H          -13.99693069392674       -1.44426352657109        7.81949073979010
H          -16.21573468374397       -2.37968278493450        7.27432616944692
H          -16.80807018493696       -2.92531065074838        4.99646467728163
H          -17.20142114494635       -3.44465364761336        3.15496108959271
H          -17.69902861720038       -4.05964887859934        0.86704805032393
H          -16.03076349259520       -3.69196228051662       -0.92157427515237
H          -13.87557818173951       -2.66229459819383       -0.38179439101398
H          -13.30754768180434        0.12172728701839       -0.32157287987592
H          -12.98295368338002        0.26794917137990       -2.75910356125596
H           -9.00680343543885       -0.20945462130978       -3.14267260695607
H           -6.75157136913786       -0.45861319438781       -4.08775350780161
H           -6.42467457030612       -1.65365627349968       -6.22418885913255
H           -8.37500182760877       -2.60424242806708       -7.40337200515290
H          -10.63031208734551       -2.37388713544497       -6.45054429786010
H          -11.25104486282248        0.36724671517790       -6.36755467147541
H          -13.16314045011088        0.76523203469278       -7.86114694765638
H          -15.35294034639121       -0.26974967721566       -7.37957181023722
H          -15.61071259418698       -1.71581439768858       -5.39450670981747
H          -13.69662768807533       -2.13172803529021       -3.91009771104806
H           -9.95164511693210       -2.74053531753398       -2.52902362271685
H          -10.28025224466596       -2.88102458646487       -0.09101466966068
H           -7.37748665651695       -0.29582904442642        0.49863306332676
H           -5.20398498218503        0.71644031804478        0.02437286155104
H           -4.43977194078895        4.39081633692124        2.20587998267346
H           -2.30377231149291        5.47652634914061        1.67332796122325
H           -1.91969931757258        5.18774004305657       -1.14133848949162
H           -1.98344881648719        7.43450018524737       -2.13629420341781
H           -0.29035056357421        9.12009335739062       -1.50902297546564
H            1.45976197544763        8.53966620368895        0.13410327092281
H            1.51561060351606        6.30074899131446        1.14458880429070
H            0.34129976072335        2.72393628830212        2.69838026144046
H            2.49855275476403        1.70046039870230        3.23636207691232
H            4.61431016556942        2.36557227288163        4.00332224526351
H            6.83098673086950        1.52074992764980        4.60547195085237
H            8.92019784153874        0.62624476708689        4.06999424040310
H            9.56608900522927        0.02904129562841        1.14493261520531
H           12.06306988307982        0.15124595546474        6.51176328386973
H           13.61743340786903        0.10810911984279        8.45823087759939
H           15.93069029726554       -0.69087100569749        8.13310784215598
H           16.69258765471226       -1.44142517339007        5.96671138641091
H           17.22553457689712       -2.14178604463357        4.22330517477969
H           17.89964390838899       -2.97126079621974        2.05112077017662
H           16.31329733522497       -2.94938907785807        0.15338170163226
H           14.05981997863370       -2.04445578052459        0.46225606420319
H           13.28316044614828        0.63632406155295        0.11607993935929
H           13.08498683090647        0.39934370555034       -2.32795874121767
H           11.17126567631364       -2.97035738899819       -5.66316093538424
H            9.00685153035945       -3.54226194462430       -6.68062220366284
H            6.91748179714261       -2.58410232689321       -5.77820201063682
H            7.01270223913051       -1.03799687800485       -3.85513850900423
H            9.17715188677924       -0.44827144030129       -2.84875583523988
H           14.03498344304846       -2.07890074672494       -3.04266389101429
H           16.00575535115305       -1.75576820664190       -4.47453880951854
H           15.77481144140647       -0.67178046967034       -6.68126506378425
H           13.55320526186349        0.09572402158960       -7.43890002271404
H           11.58243293554021       -0.20729541603813       -6.00030322356179
H           10.25264996015421       -2.75965725925166       -1.78542043492859
H           10.44950423409545       -2.51188920787472        0.65750039039841
H            7.60097682097702        0.62722044701980        0.49513197975088
H            5.38810879675066        1.45498617805679       -0.09737473116350
H            4.21650507778088        3.48637921430233       -0.24395553037993
H            2.05228535897851        4.48476520717439       -0.79991085479217
H           -0.74025218357905        1.73788657350885        0.32104124699474
H           -2.88135569203315        0.65421460475253        0.84708349845440
H           -5.31149604951351        2.73988250640071        3.78195714748260
H           -7.48553808597706        1.71312263034617        4.27056391580996

          :  Hamiltonian                  GFN2-xTB          :
         :: gradient norm              0.000072056329 Eh/a0 ::
         :: HOMO-LUMO gap              1.975723296696 eV    ::
         :: SCC energy              -274.983161033404 Eh    ::
         :: -> dispersion             -0.251931866088 Eh    ::
         :: repulsion energy           5.098204999801 Eh    ::

    * Orbital Energies and Occupations

         #    Occupation            Energy/Eh            Energy/eV
      -------------------------------------------------------------
         1        2.0000           -0.6814871             -18.5442
       ...           ...                  ...                  ...
       240        2.0000           -0.3954920             -10.7619
       241        2.0000           -0.3943396             -10.7305
       242        2.0000           -0.3849190             -10.4742
       243        2.0000           -0.3818411             -10.3904
       244        2.0000           -0.3769790             -10.2581
       245        2.0000           -0.3764987             -10.2451
       246        2.0000           -0.3719886             -10.1223
       247        2.0000           -0.3712558             -10.1024
       248        2.0000           -0.3582878              -9.7495
       249        2.0000           -0.3578629              -9.7379
       250        2.0000           -0.3553916              -9.6707
       251        2.0000           -0.3531401              -9.6094
       252        2.0000           -0.3460136              -9.4155 (HOMO)
       253                         -0.2734071              -7.4398 (LUMO)
       254                         -0.2718538              -7.3975
       255                         -0.2481575              -6.7527
       256                         -0.2476588              -6.7391
       257                         -0.2437115              -6.6317
       258                         -0.2428023              -6.6070
       259                         -0.2407546              -6.5513
       260                         -0.2404409              -6.5427
       261                         -0.2403116              -6.5392
       262                         -0.2398721              -6.5273
       263                         -0.2371940              -6.4544
       ...                                ...                  ...
       497                          0.7336999              19.9650
      -------------------------------------------------------------
                  HL-Gap            0.0726065 Eh            1.9757 eV

     #   Z          covCN         q      C6AA      α(0)
     1   6 C        2.908    -0.032    28.806     8.801
     2   6 C        2.896    -0.051    29.268     8.870
     3   6 C        3.188     0.129    24.750     8.116
     4   7 N        1.892    -0.291    28.400     7.900
     5   6 C        3.206     0.058    26.115     8.323
     6   6 C        2.985     0.002    27.966     8.675
     7   6 C        2.922    -0.031    28.774     8.797
     8   6 C        2.917    -0.030    28.761     8.794
     9   6 C        2.917    -0.033    28.825     8.804
    10   6 C        2.922    -0.035    28.870     8.811
    11   6 C        2.979    -0.002    28.062     8.689
    12   6 C        2.980     0.002    27.978     8.677
    13   6 C        2.922    -0.034    28.841     8.807
    14   6 C        2.917    -0.034    28.840     8.806
    15   6 C        2.917    -0.032    28.798     8.800
    16   6 C        2.919    -0.039    28.979     8.828
    17   6 C        2.978    -0.002    28.076     8.692
    18   6 C        3.072     0.021    27.464     8.593
    19   7 N        2.841    -0.046    22.134     6.988
    20   6 C        2.912     0.057    26.726     8.477
    21   6 C        2.920    -0.037    28.916     8.818
    22   6 C        2.922    -0.047    29.172     8.857
    23   6 C        2.924     0.066    26.524     8.446
    24   7 N        2.753    -0.074    22.674     7.072
    25   6 C        2.925     0.064    26.561     8.452
    26   6 C        2.922    -0.047    29.170     8.857
    27   6 C        2.920    -0.029    28.716     8.788
    28   6 C        2.919    -0.037    28.923     8.819
    29   6 C        2.920    -0.028    28.712     8.787
    30   6 C        2.922    -0.047    29.157     8.855
    31   6 C        2.924     0.064    26.565     8.452
    32   6 C        2.922    -0.047    29.163     8.856
    33   6 C        2.920    -0.029    28.713     8.787
    34   6 C        2.919    -0.037    28.923     8.819
    35   6 C        2.920    -0.029    28.714     8.787
    36   6 C        2.922    -0.047    29.169     8.857
    37   6 C        2.922    -0.048    29.195     8.861
    38   6 C        2.920    -0.040    28.988     8.829
    39   6 C        2.971     0.014    27.701     8.633
    40   6 C        2.922    -0.034    28.842     8.807
    41   6 C        2.922    -0.035    28.874     8.812
    42   6 C        2.977     0.009    27.805     8.649
    43   6 C        2.976     0.003    27.960     8.674
    44   6 C        2.925    -0.034    28.847     8.808
    45   6 C        2.921    -0.047    29.176     8.858
    46   6 C        2.925     0.063    26.583     8.455
    47   7 N        2.752    -0.074    22.683     7.074
    48   6 C        2.925     0.065    26.543     8.449
    49   6 C        2.923    -0.048    29.181     8.859
    50   6 C        2.919    -0.029    28.731     8.790
    51   6 C        2.919    -0.038    28.952     8.824
    52   6 C        2.920    -0.029    28.730     8.790
    53   6 C        2.922    -0.047    29.178     8.858
    54   6 C        2.923     0.063    26.583     8.455
    55   6 C        2.920    -0.049    29.226     8.865
    56   6 C        2.924    -0.034    28.849     8.808
    57   6 C        2.975     0.001    27.997     8.679
    58   6 C        2.976     0.010    27.800     8.649
    59   6 C        2.922    -0.035    28.871     8.811
    60   6 C        2.927    -0.034    28.849     8.808
    61   6 C        2.970     0.013    27.714     8.635
    62   6 C        2.909    -0.033    28.812     8.802
    63   6 C        2.895    -0.051    29.263     8.869
    64   6 C        3.188     0.129    24.748     8.116
    65   7 N        1.892    -0.292    28.414     7.902
    66   6 C        3.206     0.058    26.108     8.321
    67   6 C        2.985     0.002    27.966     8.675
    68   6 C        2.922    -0.031    28.774     8.797
    69   6 C        2.917    -0.031    28.762     8.794
    70   6 C        2.917    -0.033    28.826     8.804
    71   6 C        2.922    -0.035    28.871     8.811
    72   6 C        2.979    -0.002    28.062     8.689
    73   6 C        2.980     0.002    27.980     8.677
    74   6 C        2.922    -0.034    28.842     8.807
    75   6 C        2.917    -0.034    28.842     8.807
    76   6 C        2.917    -0.032    28.799     8.800
    77   6 C        2.919    -0.040    28.983     8.828
    78   6 C        2.978    -0.002    28.076     8.692
    79   6 C        3.071     0.021    27.469     8.594
    80   7 N        2.841    -0.046    22.129     6.987
    81   6 C        2.912     0.057    26.727     8.477
    82   6 C        2.920    -0.037    28.919     8.819
    83   6 C        2.922    -0.047    29.178     8.858
    84   6 C        2.923     0.066    26.527     8.446
    85   7 N        2.752    -0.074    22.673     7.072
    86   6 C        2.925     0.064    26.562     8.452
    87   6 C        2.922    -0.047    29.156     8.855
    88   6 C        2.920    -0.028    28.711     8.787
    89   6 C        2.919    -0.037    28.921     8.819
    90   6 C        2.920    -0.029    28.715     8.787
    91   6 C        2.922    -0.047    29.164     8.856
    92   6 C        2.924     0.064    26.564     8.452
    93   6 C        2.922    -0.047    29.169     8.857
    94   6 C        2.920    -0.029    28.713     8.787
    95   6 C        2.919    -0.037    28.923     8.819
    96   6 C        2.920    -0.029    28.713     8.787
    97   6 C        2.922    -0.047    29.163     8.856
    98   6 C        2.922    -0.048    29.194     8.861
    99   6 C        2.920    -0.039    28.981     8.828
   100   6 C        2.921    -0.033    28.832     8.805
   101   6 C        2.922    -0.036    28.885     8.814
   102   6 C        2.924    -0.034    28.856     8.809
   103   6 C        2.920    -0.049    29.227     8.866
   104   6 C        2.920    -0.048    29.180     8.858
   105   6 C        2.924    -0.034    28.850     8.808
   106   6 C        2.922    -0.035    28.861     8.810
   107   6 C        2.926    -0.034    28.848     8.808
   108   1 H        0.925     0.061     2.193     2.316
   109   1 H        0.926     0.033     2.550     2.497
   110   1 H        0.926     0.050     2.320     2.382
   111   1 H        0.926     0.029     2.596     2.520
   112   1 H        0.926     0.027     2.628     2.535
   113   1 H        0.926     0.030     2.590     2.517
   114   1 H        0.926     0.033     2.537     2.491
   115   1 H        0.926     0.028     2.620     2.531
   116   1 H        0.926     0.025     2.656     2.548
   117   1 H        0.926     0.024     2.674     2.557
   118   1 H        0.926     0.043     2.407     2.426
   119   1 H        0.926     0.041     2.439     2.442
   120   1 H        0.926     0.030     2.580     2.512
   121   1 H        0.926     0.033     2.539     2.492
   122   1 H        0.926     0.032     2.552     2.498
   123   1 H        0.926     0.034     2.535     2.490
   124   1 H        0.926     0.033     2.541     2.493
   125   1 H        0.926     0.033     2.547     2.496
   126   1 H        0.926     0.033     2.537     2.491
   127   1 H        0.926     0.033     2.551     2.497
   128   1 H        0.926     0.034     2.534     2.490
   129   1 H        0.926     0.031     2.572     2.508
   130   1 H        0.926     0.040     2.450     2.448
   131   1 H        0.926     0.043     2.409     2.427
   132   1 H        0.926     0.030     2.591     2.517
   133   1 H        0.926     0.030     2.592     2.517
   134   1 H        0.926     0.034     2.525     2.485
   135   1 H        0.926     0.032     2.552     2.498
   136   1 H        0.926     0.031     2.576     2.510
   137   1 H        0.926     0.031     2.569     2.506
   138   1 H        0.926     0.030     2.583     2.513
   139   1 H        0.926     0.032     2.561     2.503
   140   1 H        0.926     0.032     2.553     2.498
   141   1 H        0.926     0.031     2.567     2.505
   142   1 H        0.926     0.034     2.527     2.486
   143   1 H        0.926     0.032     2.557     2.501
   144   1 H        0.926     0.035     2.512     2.479
   145   1 H        0.925     0.060     2.200     2.320
   146   1 H        0.926     0.031     2.568     2.506
   147   1 H        0.926     0.050     2.320     2.382
   148   1 H        0.926     0.029     2.597     2.520
   149   1 H        0.926     0.027     2.630     2.536
   150   1 H        0.926     0.030     2.591     2.517
   151   1 H        0.926     0.033     2.538     2.491
   152   1 H        0.926     0.027     2.623     2.532
   153   1 H        0.926     0.025     2.658     2.550
   154   1 H        0.926     0.024     2.674     2.557
   155   1 H        0.926     0.043     2.405     2.425
   156   1 H        0.926     0.041     2.441     2.443
   157   1 H        0.926     0.033     2.542     2.493
   158   1 H        0.926     0.034     2.535     2.490
   159   1 H        0.926     0.032     2.551     2.498
   160   1 H        0.926     0.034     2.537     2.491
   161   1 H        0.926     0.030     2.585     2.514
   162   1 H        0.926     0.031     2.572     2.508
   163   1 H        0.926     0.034     2.535     2.490
   164   1 H        0.926     0.032     2.551     2.498
   165   1 H        0.926     0.033     2.538     2.491
   166   1 H        0.926     0.033     2.548     2.496
   167   1 H        0.926     0.040     2.448     2.447
   168   1 H        0.926     0.043     2.406     2.425
   169   1 H        0.926     0.028     2.610     2.526
   170   1 H        0.926     0.030     2.592     2.518
   171   1 H        0.926     0.033     2.546     2.495
   172   1 H        0.926     0.031     2.566     2.505
   173   1 H        0.926     0.033     2.549     2.496
   174   1 H        0.926     0.034     2.533     2.489
   175   1 H        0.926     0.032     2.557     2.500
   176   1 H        0.926     0.035     2.510     2.478

molecular dipole:
                 x           y           z       tot (Debye)
 q only:       -0.093       0.203      -2.435
   full:       -0.060      -0.061      -3.242       8.244

 projected vibrational frequencies (cm⁻¹)
eigval :       -0.00    -0.00    -0.00    -0.00     0.00     0.00
eigval :        1.67     1.91     3.33     5.43     5.78     6.92
eigval :        8.05    11.47    13.22    17.85    18.06    18.51
eigval :       19.28    25.50    28.18    33.45    34.74    36.73
eigval :       41.02    41.87    44.06    48.59    49.29    53.76
eigval :       56.35    57.54    58.80    61.49    65.18    69.20
eigval :       72.44    73.59    76.94    78.29    80.94    84.43
eigval :       85.71    89.93    94.78   102.84   103.91   106.33
eigval :      108.74   111.44   122.00   130.02   141.37   146.00
eigval :      157.58   160.94   169.57   170.75   173.19   174.57
eigval :      179.07   198.24   209.33   211.50   217.63   220.65
eigval :      223.00   225.28   233.53   233.77   241.29   243.30
eigval :      250.25   255.92   264.63   266.79   269.60   295.22
eigval :      302.11   305.61   305.97   313.71   317.51   322.15
eigval :      342.50   345.26   349.48   349.97   350.75   363.83
eigval :      369.96   370.82   372.31   376.25   377.57   378.26
eigval :      378.47   380.04   380.49   380.87   386.77   388.72
eigval :      389.29   389.87   391.30   395.04   398.87   399.28
eigval :      403.40   410.74   412.53   416.66   418.57   429.26
eigval :      432.45   443.36   446.37   450.74   455.95   459.34
eigval :      467.95   473.60   475.68   479.56   491.09   492.48
eigval :      494.70   500.81   501.45   508.19   511.71   517.85
eigval :      519.03   524.10   525.60   535.00   535.09   535.83
eigval :      537.93   575.12   581.12   581.47   582.29   585.56
eigval :      585.82   586.73   586.86   590.00   592.52   592.55
eigval :      604.13   607.33   608.77   610.52   611.30   611.92
eigval :      621.64   621.98   637.06   639.53   647.36   648.95
eigval :      649.59   659.40   659.97   660.01   663.45   663.54
eigval :      668.01   669.13   670.32   673.16   676.53   676.75
eigval :      677.20   680.34   682.10   683.16   694.21   699.79
eigval :      700.93   703.82   723.45   731.00   732.49   735.38
eigval :      735.50   751.39   756.64   757.31   757.47   760.43
eigval :      761.61   761.92   764.70   765.68   766.28   778.74
eigval :      778.87   782.17   782.25   807.31   808.57   819.18
eigval :      819.50   829.30   830.50   849.82   851.55   861.60
eigval :      862.00   862.25   864.81   869.89   870.32   870.65
eigval :      872.79   873.18   874.34   874.46   874.59   874.84
eigval :      874.99   876.09   876.35   876.53   892.79   893.30
eigval :      893.38   894.05   894.22   906.50   906.68   910.13
eigval :      910.17   911.55   912.53   913.72   913.82   914.07
eigval :      915.36   915.53   918.24   919.25   919.32   920.05
eigval :      922.46   922.91   923.07   923.30   924.21   925.79
eigval :      925.97   926.91   926.96   927.91   928.01   928.08
eigval :      929.32   929.39   929.40   929.52   929.79   930.14
eigval :      930.17   930.74   931.48   941.62   941.65   981.57
eigval :      983.09   983.19   989.16   989.89   996.17  1000.53
eigval :     1005.32  1005.37  1010.17  1010.23  1017.25  1017.32
eigval :     1019.41  1025.06  1063.77  1064.12  1080.49  1081.01
eigval :     1082.95  1082.97  1083.26  1083.64  1084.07  1084.11
eigval :     1084.12  1088.23  1088.43  1107.67  1107.82  1121.71
eigval :     1121.78  1123.38  1123.89  1123.92  1134.75  1134.88
eigval :     1137.05  1138.22  1142.27  1146.22  1147.48  1148.98
eigval :     1167.12  1167.17  1180.52  1180.57  1180.66  1180.67
eigval :     1180.77  1182.74  1182.95  1183.29  1184.39  1185.05
eigval :     1185.13  1186.20  1186.53  1187.31  1190.52  1190.59
eigval :     1195.35  1195.39  1195.52  1197.52  1204.24  1205.25
eigval :     1212.78  1215.57  1216.94  1218.60  1221.08  1227.34
eigval :     1228.63  1253.96  1253.98  1257.65  1257.77  1264.87
eigval :     1264.91  1269.03  1271.25  1273.01  1275.83  1277.90
eigval :     1277.91  1279.70  1281.42  1281.43  1284.38  1284.48
eigval :     1288.37  1292.96  1301.09  1305.44  1309.11  1309.75
eigval :     1311.31  1311.38  1313.77  1318.16  1318.39  1321.96
eigval :     1323.40  1323.89  1324.67  1324.93  1326.85  1326.97
eigval :     1327.09  1328.07  1329.63  1331.79  1337.41  1339.45
eigval :     1340.67  1340.74  1342.94  1353.27  1354.03  1385.30
eigval :     1385.45  1399.07  1401.64  1405.92  1405.98  1414.06
eigval :     1415.38  1415.51  1420.44  1422.95  1423.04  1434.02
eigval :     1434.04  1436.55  1436.56  1438.50  1438.57  1440.39
eigval :     1444.11  1444.14  1470.11  1472.20  1472.53  1472.57
eigval :     1474.71  1476.19  1476.29  1485.71  1485.81  1498.36
eigval :     1498.68  1508.81  1509.18  1514.98  1515.26  1540.95
eigval :     1541.10  1546.71  1549.76  1555.74  1555.88  1558.90
eigval :     1561.75  1561.84  1563.27  1565.65  1565.89  1578.30
eigval :     1578.33  1578.79  1579.71  1582.28  1582.32  1583.10
eigval :     1594.29  1594.33  1595.09  1595.16  1595.54  1595.64
eigval :     1596.13  1598.96  1600.97  1601.00  1603.00  1604.02
eigval :     1604.05  1627.87  1629.34  3068.41  3068.64  3070.65
eigval :     3070.95  3071.15  3071.42  3072.59  3072.93  3073.66
eigval :     3073.82  3075.94  3076.21  3076.59  3076.89  3077.00
eigval :     3077.44  3077.45  3077.58  3078.29  3078.29  3078.49
eigval :     3079.12  3079.13  3079.25  3081.76  3081.88  3082.69
eigval :     3082.85  3084.35  3084.43  3084.57  3085.23  3085.38
eigval :     3085.76  3086.39  3086.56  3086.68  3086.83  3086.87
eigval :     3087.29  3088.11  3088.14  3088.30  3088.83  3089.58
eigval :     3089.91  3089.98  3090.24  3090.60  3091.05  3091.06
eigval :     3091.10  3096.09  3096.18  3096.96  3097.77  3097.90
eigval :     3099.04  3099.07  3099.14  3099.18  3099.75  3099.76
eigval :     3105.39  3105.49  3107.63  3109.29  3110.12  3110.16

   temp. (K)  partition function   enthalpy   heat capacity  entropy
                                   cal/mol     cal/K/mol   cal/K/mol   J/K/mol
 298.15  VIB  0.521E+49            53041.878    321.847    345.052
         ROT  0.224E+10              888.752      2.981     45.769
         INT  0.117E+59            53930.630    324.828    390.821
         TR   0.490E+29             1481.254      4.968     47.495
         TOT                       55411.8838   329.7962   438.3168  1833.9177

       T/K    H(0)-H(T)+PV         H(T)/Eh          T*S/Eh         G(T)/Eh
   ------------------------------------------------------------------------
    298.15    0.883045E-01    0.145154E+01    0.208258E+00    0.124328E+01
   ------------------------------------------------------------------------

         :::::::::::::::::::::::::::::::::::::::::::::::::::::
         ::                  THERMODYNAMIC                  ::
         :::::::::::::::::::::::::::::::::::::::::::::::::::::
         :: total free energy        -268.641675195988 Eh   ::
         ::.................................................::
         :: total energy             -269.884956033598 Eh   ::
         :: zero point energy           1.363234858591 Eh   ::
         :: G(RRHO) w/o ZPVE           -0.119954020981 Eh   ::
         :: G(RRHO) contrib.            1.243280837610 Eh   ::
         :::::::::::::::::::::::::::::::::::::::::::::::::::::

           -------------------------------------------------
          | TOTAL ENERGY             -269.884956033598 Eh   |
          | TOTAL ENTHALPY           -268.433416717365 Eh   |
          | TOTAL FREE ENERGY        -268.641675195988 Eh   |
          | GRADIENT NORM               0.000072053589 Eh/α |
          | HOMO-LUMO GAP               1.975723385531 eV   |
           -------------------------------------------------

 * finished run on 2025/09/07 at 10:32:42.825
