   * xtb version 6.7.1 (edcfbbe) compiled by 'albert@albert-system' on 2024-07-22

   ID    Z sym.   atoms
    1    6 C      1-3, 5-18, 20-23, 25-46, 48-64, 66-79, 81-84, 86-107
    2    7 N      4, 19, 24, 47, 65, 80, 85
    3    1 H      108-176

          program call               : xtb data2507/gas/TPA–2SPPITPA/TPA–2SPPITPA_gas_S0_crest.xyz --gfn 2 --ohess vtight --parallel 40 --molden --ceasefiles --namespace data2507/gas/TPA–2SPPITPA/TPA–2SPPITPA_gas_S0_finalOpt
          :  Hamiltonian                  GFN2-xTB          :
 * total energy  :  -269.8941992 Eh     change       -0.6225832E-08 Eh
 * total energy  :  -269.8942013 Eh     change       -0.2048260E-05 Eh
 * total energy  :  -269.8942038 Eh     change       -0.2555904E-05 Eh
 * total energy  :  -269.8942068 Eh     change       -0.2980540E-05 Eh
 * total energy  :  -269.8942087 Eh     change       -0.1877677E-05 Eh
 * total energy  :  -269.8942119 Eh     change       -0.3229527E-05 Eh
 * total energy  :  -269.8942179 Eh     change       -0.6002912E-05 Eh
 * total energy  :  -269.8942246 Eh     change       -0.6625897E-05 Eh
 * total energy  :  -269.8942295 Eh     change       -0.4971905E-05 Eh
 * total energy  :  -269.8942333 Eh     change       -0.3747702E-05 Eh
 * total energy  :  -269.8943173 Eh     change       -0.6358390E-06 Eh
 * total energy  :  -269.8943180 Eh     change       -0.7647524E-06 Eh
 * total energy  :  -269.8943188 Eh     change       -0.7835039E-06 Eh
 * total energy  :  -269.8943194 Eh     change       -0.6057898E-06 Eh
 * total energy  :  -269.8943199 Eh     change       -0.5219106E-06 Eh
 * total energy  :  -269.8943206 Eh     change       -0.7039809E-06 Eh
 * total energy  :  -269.8943217 Eh     change       -0.1092171E-05 Eh
 * total energy  :  -269.8943235 Eh     change       -0.1734907E-05 Eh
 * total energy  :  -269.8943235 Eh     change       -0.8571874E-08 Eh
   *** GEOMETRY OPTIMIZATION CONVERGED AFTER 68 ITERATIONS ***

 final structure:
================
176
 xtb: 6.7.1 (edcfbbe)
C           -6.39522914955638       -2.30293502152374       -0.83130171492274
C           -6.16527946761549       -0.97922953576585       -0.78692388533398
C           -7.20526981611449        0.00038290749351       -0.78333795157962
N           -8.49884881102072       -0.23560955277080       -0.78214970987788
C           -9.09869040241695        0.97801979757528       -0.74766462851406
C          -10.49236193351878        1.26646082365753       -0.71996645320774
C          -11.44262698436629        0.24028504288009       -0.72523450559320
C          -12.78240149186523        0.53478436252292       -0.68241446651593
C          -13.18824460862912        1.86672488398907       -0.63151143839307
C          -12.26255492687012        2.88396504706881       -0.62884938355635
C          -10.88436263372857        2.62427227561039       -0.67647034720014
C           -9.88493500891622        3.67914652011361       -0.69404607051251
C          -10.24177126880789        5.03483496153856       -0.69031969321266
C           -9.30133807043145        6.03707723376234       -0.73169397549087
C           -7.94692303644541        5.72412446698750       -0.79033689129920
C           -7.55404315292655        4.40882238604213       -0.79169109576034
C           -8.49702109918764        3.37252634173914       -0.73194950695588
C           -8.14142936890625        1.99633699312875       -0.72731303250677
N           -6.92959421307773        1.35444516124897       -0.74947764123494
C           -5.63084658740070        1.89989330872491       -0.69096854612677
C           -5.14941484852266        2.44169071340211        0.49748874567094
C           -3.86960580974411        2.95000439804909        0.55848812897993
C           -3.03807563781575        2.92763848923704       -0.56537438241592
N           -1.75448002977119        3.46593096709937       -0.50192116518605
C           -0.71540029389153        2.92322909456478       -1.26867435498092
C           -0.62903149580512        1.54560895915634       -1.46876278055759
C            0.39041453832442        1.01497504832075       -2.23528758055800
C            1.34146532336816        1.84293211507233       -2.81020099754499
C            1.26652611082191        3.21136073373298       -2.60624912273290
C            0.24710183606414        3.75149860148659       -1.84577214208431
C           -1.52134852910489        4.60657721897146        0.28195651286327
C           -0.32659092762519        4.75186173018146        0.98483044123766
C           -0.10695360050998        5.87917100952538        1.75289420353865
C           -1.07015198279220        6.87018602524143        1.84041252115315
C           -2.25753717609359        6.73222808735819        1.14097650593321
C           -2.48231946350333        5.61407050329415        0.36214580288230
C           -3.52606586295270        2.37085707215744       -1.74953117546058
C           -4.80531160370047        1.85801247279587       -1.80972257422938
C           -5.37696437548728       -3.32830251395262       -0.81966452381378
C           -4.01490797532735       -3.03704557685044       -0.94929168952833
C           -3.06916915775083       -4.03419904650240       -0.89784622083701
C           -3.43510409766603       -5.37057832265445       -0.71979094593874
C           -2.38370936574975       -6.38559417139992       -0.61400969878382
C           -1.22350265376952       -6.26874863969772       -1.38209208662437
C           -0.14714450768456       -7.09645560286804       -1.16421612847238
C           -0.19108965872263       -8.06671431129373       -0.16150422367320
N            0.99744799363456       -8.73580978215155        0.17473153796224
C            1.03555192010968      -10.10385748946613        0.41177054528022
C            0.11350104433506      -10.94938424154289       -0.20755964006040
C            0.14618292503057      -12.30887577203576        0.03091133643713
C            1.09814236400410      -12.85180672091551        0.87834188618028
C            2.01710592321808      -12.01740264031201        1.49336699842996
C            1.98771873229980      -10.65497941587146        1.27057674448967
C            2.11699695250032       -7.90407223618761        0.31577088136242
C            3.37653737791187       -8.24413077783019       -0.17411447731907
C            4.40482864444135       -7.32097498446227       -0.15026028562852
C            4.21300278696943       -6.03855674936056        0.36179012610481
C            5.20395795510707       -4.96455389440394        0.24732207238124
C            5.99514543599687       -4.82779556599632       -0.89355199598988
C            6.74769446080445       -3.68991004633243       -1.10085457627754
C            6.71426520239193       -2.63361636827580       -0.18810299010354
C            7.30307955332968       -1.35105937246955       -0.52290154430140
C            6.75355033835417       -0.19617509053785       -0.11656360530571
C            7.20681002106029        1.10835897533472       -0.48687017195211
N            8.30726724874344        1.41525567485740       -1.13601298294302
C            8.29478612414566        2.76394502964752       -1.27049067841456
C            9.26884695811772        3.59654598909073       -1.89060170084715
C           10.42536022407662        3.05452376212532       -2.46059304336508
C           11.35793454861303        3.87144333404023       -3.04923515558939
C           11.14278271151483        5.24786982545034       -3.07404717306860
C           10.00875542259631        5.79193206444599       -2.51765582371540
C            9.03138279012612        4.99086251296184       -1.90761037431755
C            7.82322751771926        5.54023506481020       -1.31542106853411
C            7.54964656766388        6.91517541014827       -1.32710695823451
C            6.40385234000458        7.43515673315875       -0.77231697638477
C            5.46926355697118        6.59492864505270       -0.17461029499803
C            5.69939597637579        5.24210435157388       -0.13896381677984
C            6.86231855954302        4.69390380014451       -0.69845740933617
C            7.14259391094719        3.30153614987236       -0.69048468990014
N            6.45585395474672        2.22873641954863       -0.18678443878600
C            5.21486227442914        2.18801034625409        0.48618129599860
C            5.17451951604465        2.22834514244685        1.87662743614709
C            3.96918975264281        2.12305537992210        2.53838682347742
C            2.77772072051322        1.97707214143044        1.82333895950340
N            1.55393320360061        1.87332849746459        2.48618098847670
C            1.33859148992681        2.59345393249866        3.66946729518467
C            0.58957487669223        2.04782283563019        4.71086442141119
C            0.37501488699101        2.77196291894414        5.86755270073250
C            0.90811542499501        4.04207954212128        6.01150392112762
C            1.66304589064495        4.58426989504256        4.98486170025815
C            1.87657662779901        3.87097377108935        3.82173345213618
C            0.56804888836573        0.99675804002428        2.00925388536273
C            0.92276956581359       -0.22938338529980        1.44786700029060
C           -0.05335925281159       -1.10794194736205        1.01952254060771
C           -1.39430657490497       -0.78557933990686        1.14907182650883
C           -1.75173595674078        0.43757820570116        1.69349152661919
C           -0.78247547063662        1.32836508135500        2.11288674882859
C            2.82778754643701        1.93642917930035        0.42858162734580
C            4.03392845810726        2.03376629179135       -0.23273632053893
C            6.01440225825463       -2.82292131811990        1.00686952511845
C            5.28227683442373       -3.96770680695954        1.22254984948398
C            2.96777075451580       -5.73411804162331        0.91539985482787
C            1.94213180966895       -6.64869161578369        0.90133891911999
C           -1.38216053521832       -8.26345519239721        0.53312785578007
C           -2.46094158357361       -7.43096585012274        0.30566264596361
C           -4.79206770444103       -5.66977936055101       -0.60873489479448
C           -5.74092441821012       -4.67030266065300       -0.66382092786666
H           -7.42389081906155       -2.63456790128616       -0.85687114738428
H           -5.16037009116830       -0.58354614180633       -0.73721850272611
H          -11.08462883809772       -0.77683454864083       -0.76113656262916
H          -13.51942426936475       -0.25470021911034       -0.68579964383683
H          -14.24170924164415        2.10434481601594       -0.59416848400476
H          -12.62446392169411        3.89911129445054       -0.58767037945000
H          -11.28199415223047        5.31602466440359       -0.65905587941708
H           -9.61564680809355        7.07046282303337       -0.72673317501909
H           -7.20894190578142        6.51150087346792       -0.83728404246624
H           -6.50456731252609        4.16556820058138       -0.84925062765374
H           -5.78794636275894        2.46293850624867        1.36841035010942
H           -3.50260299545583        3.37014319267225        1.48277417087098
H           -1.35943954275586        0.89477154543157       -1.01316764892821
H            0.44643658355267       -0.05429576006501       -2.37554686916486
H            2.13442161903236        1.42367712477920       -3.41061869049060
H            2.00223388751161        3.86633287537012       -3.04905427624632
H            0.18634234154731        4.81999131294239       -1.70110323140522
H            0.42507108669948        3.97936328891259        0.92192679521455
H            0.81949067816810        5.98122357034144        2.29638285377266
H           -0.89497504418219        7.74567002923161        2.44662748671903
H           -3.01076354835326        7.50427318092804        1.19378368819567
H           -3.40353338702062        5.51644385424016       -0.19357331159617
H           -2.89962713179397        2.35401400215181       -2.62849941924553
H           -5.18014635544554        1.43575912557033       -2.73047209019941
H           -3.69344737429500       -2.01705363626478       -1.09809534105021
H           -2.02224288520224       -3.77675330715853       -0.97096042841129
H           -1.16848736921500       -5.51891188407239       -2.15718980405530
H            0.75759717182125       -6.97726407440277       -1.74241539492118
H           -0.62158078409764      -10.53145553072739       -0.87984561817499
H           -0.57322174259299      -12.95094508419750       -0.45606780986999
H            1.12298806259059      -13.91565943774963        1.05868427996922
H            2.75929814304518      -12.42994154823396        2.16118132965928
H            2.69524501311587      -10.00729780750027        1.76712898591316
H            3.53497160401146       -9.22217286788369       -0.60462519608655
H            5.36999592745768       -7.59790988103760       -0.54846980442091
H            5.97692667669109       -5.59929660932134       -1.64948015510854
H            7.32152151158811       -3.58311798568860       -2.01023485846496
H            8.14967189779929       -1.32944243874916       -1.19331142394734
H            5.86442761909323       -0.21080793592681        0.50080624824812
H           10.55316268623857        1.98406755440613       -2.41754643963360
H           12.25260558878264        3.45658837663359       -3.48963471955981
H           11.87441143620455        5.89590526544127       -3.53492360981818
H            9.88606943682178        6.86264982373951       -2.56001861603323
H            8.24827814577594        7.59816637365697       -1.78279059550929
H            6.22794546836313        8.50051952078328       -0.80186847231467
H            4.56800629158130        7.00489731676726        0.25729876268231
H            4.97651898094505        4.58642654947743        0.32215005245430
H            6.09488772050799        2.33244491894474        2.43202309254203
H            3.94420579755578        2.14229774486584        3.61760388522633
H            0.18213942952150        1.05271176224712        4.60992328360405
H           -0.20570814096799        2.33549568186991        6.66668499967431
H            0.74015331801605        4.60312872825338        6.91790350474728
H            2.08518074771552        5.57314823555219        5.08838693361902
H            2.46649408979954        4.29708324432782        3.02319357911080
H            1.96641029413183       -0.49528493785341        1.36306853555346
H            0.23641242337126       -2.05898222893652        0.59705821871338
H           -2.15487983441811       -1.48415047396450        0.83423506349816
H           -2.79489226120097        0.70248032538078        1.78632334259724
H           -1.06399422443578        2.28284313386905        2.53331852098176
H            1.91466699328159        1.82173609837538       -0.13421947822923
H            4.06465834906174        2.00098216537250       -1.31126951008660
H            6.04642071472982       -2.05823033131315        1.76912750560531
H            4.75160694984030       -4.09142402827659        2.15544039455435
H            2.78947573694894       -4.75188120930181        1.32629645245439
H            0.98011773789506       -6.38676266059701        1.31696466205590
H           -1.43878256314436       -9.03660435292198        1.28555456788553
H           -3.35625588910981       -7.55419869242731        0.89714925345316
H           -5.10329895109588       -6.69815886993462       -0.49536166771314
H           -6.78831749334196       -4.92147697727279       -0.57601092929732

          :  Hamiltonian                  GFN2-xTB          :
         :: gradient norm              0.000071020122 Eh/a0 ::
         :: HOMO-LUMO gap              1.934699906902 eV    ::
         :: SCC energy              -274.992701494090 Eh    ::
         :: -> dispersion             -0.274369700623 Eh    ::
         :: repulsion energy           5.098378025451 Eh    ::

    * Orbital Energies and Occupations

         #    Occupation            Energy/Eh            Energy/eV
      -------------------------------------------------------------
         1        2.0000           -0.6835967             -18.6016
       ...           ...                  ...                  ...
       240        2.0000           -0.3970703             -10.8048
       241        2.0000           -0.3964983             -10.7893
       242        2.0000           -0.3863314             -10.5126
       243        2.0000           -0.3839052             -10.4466
       244        2.0000           -0.3787644             -10.3067
       245        2.0000           -0.3785938             -10.3021
       246        2.0000           -0.3742911             -10.1850
       247        2.0000           -0.3742048             -10.1826
       248        2.0000           -0.3613786              -9.8336
       249        2.0000           -0.3607497              -9.8165
       250        2.0000           -0.3580134              -9.7420
       251        2.0000           -0.3559753              -9.6866
       252        2.0000           -0.3475609              -9.4576 (HOMO)
       253                         -0.2764620              -7.5229 (LUMO)
       254                         -0.2720611              -7.4032
       255                         -0.2503963              -6.8136
       256                         -0.2486143              -6.7651
       257                         -0.2466873              -6.7127
       258                         -0.2460637              -6.6957
       259                         -0.2450525              -6.6682
       260                         -0.2442453              -6.6463
       261                         -0.2438257              -6.6348
       262                         -0.2435816              -6.6282
       263                         -0.2405037              -6.5444
       ...                                ...                  ...
       497                          0.7317100              19.9108
      -------------------------------------------------------------
                  HL-Gap            0.0710989 Eh            1.9347 eV

     #   Z          covCN         q      C6AA      α(0)
     1   6 C        2.906    -0.033    28.812     8.801
     2   6 C        2.897    -0.050    29.252     8.868
     3   6 C        3.189     0.129    24.742     8.114
     4   7 N        1.891    -0.291    28.382     7.898
     5   6 C        3.208     0.058    26.092     8.317
     6   6 C        2.985     0.002    27.965     8.675
     7   6 C        2.922    -0.031    28.773     8.797
     8   6 C        2.917    -0.030    28.757     8.794
     9   6 C        2.917    -0.033    28.822     8.804
    10   6 C        2.922    -0.035    28.868     8.811
    11   6 C        2.978    -0.002    28.061     8.689
    12   6 C        2.980     0.002    27.972     8.676
    13   6 C        2.922    -0.034    28.839     8.806
    14   6 C        2.917    -0.034    28.835     8.806
    15   6 C        2.917    -0.032    28.796     8.800
    16   6 C        2.920    -0.039    28.978     8.828
    17   6 C        2.978    -0.002    28.080     8.692
    18   6 C        3.072     0.022    27.449     8.590
    19   7 N        2.842    -0.047    22.151     6.990
    20   6 C        2.911     0.057    26.726     8.477
    21   6 C        2.920    -0.037    28.932     8.821
    22   6 C        2.923    -0.046    29.144     8.853
    23   6 C        2.923     0.067    26.506     8.443
    24   7 N        2.752    -0.073    22.658     7.070
    25   6 C        2.923     0.064    26.566     8.452
    26   6 C        2.922    -0.048    29.204     8.862
    27   6 C        2.919    -0.029    28.716     8.788
    28   6 C        2.919    -0.037    28.913     8.818
    29   6 C        2.919    -0.028    28.698     8.785
    30   6 C        2.922    -0.047    29.169     8.857
    31   6 C        2.925     0.064    26.564     8.452
    32   6 C        2.922    -0.046    29.134     8.851
    33   6 C        2.920    -0.029    28.731     8.790
    34   6 C        2.919    -0.037    28.913     8.818
    35   6 C        2.919    -0.029    28.713     8.787
    36   6 C        2.923    -0.047    29.162     8.856
    37   6 C        2.922    -0.048    29.191     8.860
    38   6 C        2.920    -0.039    28.966     8.826
    39   6 C        2.971     0.014    27.706     8.634
    40   6 C        2.922    -0.034    28.850     8.808
    41   6 C        2.925    -0.036    28.891     8.815
    42   6 C        2.977     0.009    27.812     8.651
    43   6 C        2.976     0.003    27.945     8.671
    44   6 C        2.925    -0.035    28.860     8.810
    45   6 C        2.923    -0.046    29.142     8.853
    46   6 C        2.936     0.064    26.567     8.453
    47   7 N        2.754    -0.075    22.699     7.076
    48   6 C        2.917     0.065    26.545     8.449
    49   6 C        2.923    -0.051    29.276     8.873
    50   6 C        2.920    -0.029    28.733     8.790
    51   6 C        2.919    -0.041    29.013     8.833
    52   6 C        2.920    -0.029    28.734     8.790
    53   6 C        2.922    -0.052    29.284     8.874
    54   6 C        2.935     0.064    26.574     8.454
    55   6 C        2.918    -0.047    29.171     8.857
    56   6 C        2.923    -0.034    28.849     8.808
    57   6 C        2.975     0.003    27.960     8.674
    58   6 C        2.977     0.008    27.825     8.653
    59   6 C        2.923    -0.035    28.870     8.811
    60   6 C        2.924    -0.034    28.857     8.809
    61   6 C        2.977     0.014    27.699     8.633
    62   6 C        2.903    -0.031    28.779     8.796
    63   6 C        2.901    -0.051    29.260     8.869
    64   6 C        3.190     0.129    24.727     8.111
    65   7 N        1.891    -0.289    28.354     7.894
    66   6 C        3.210     0.057    26.100     8.316
    67   6 C        2.985     0.003    27.962     8.674
    68   6 C        2.922    -0.031    28.777     8.797
    69   6 C        2.917    -0.030    28.757     8.794
    70   6 C        2.917    -0.033    28.826     8.804
    71   6 C        2.922    -0.035    28.869     8.811
    72   6 C        2.978    -0.002    28.067     8.690
    73   6 C        2.980     0.002    27.972     8.676
    74   6 C        2.922    -0.034    28.839     8.807
    75   6 C        2.917    -0.034    28.840     8.806
    76   6 C        2.917    -0.032    28.800     8.800
    77   6 C        2.920    -0.039    28.969     8.826
    78   6 C        2.979    -0.003    28.085     8.693
    79   6 C        3.075     0.022    27.436     8.588
    80   7 N        2.843    -0.049    22.175     6.994
    81   6 C        2.912     0.058    26.697     8.473
    82   6 C        2.920    -0.038    28.950     8.823
    83   6 C        2.922    -0.047    29.175     8.858
    84   6 C        2.923     0.066    26.518     8.445
    85   7 N        2.752    -0.075    22.702     7.077
    86   6 C        2.924     0.064    26.558     8.451
    87   6 C        2.922    -0.047    29.179     8.858
    88   6 C        2.920    -0.028    28.711     8.787
    89   6 C        2.919    -0.037    28.929     8.820
    90   6 C        2.920    -0.028    28.709     8.787
    91   6 C        2.923    -0.047    29.158     8.855
    92   6 C        2.923     0.064    26.556     8.451
    93   6 C        2.922    -0.047    29.158     8.855
    94   6 C        2.920    -0.027    28.674     8.781
    95   6 C        2.919    -0.037    28.931     8.820
    96   6 C        2.920    -0.028    28.700     8.785
    97   6 C        2.922    -0.044    29.101     8.846
    98   6 C        2.923    -0.048    29.202     8.862
    99   6 C        2.920    -0.037    28.928     8.820
   100   6 C        2.923    -0.035    28.882     8.813
   101   6 C        2.924    -0.036    28.895     8.815
   102   6 C        2.928    -0.035    28.871     8.812
   103   6 C        2.923    -0.048    29.190     8.860
   104   6 C        2.918    -0.046    29.142     8.852
   105   6 C        2.924    -0.034    28.845     8.808
   106   6 C        2.920    -0.034    28.853     8.809
   107   6 C        2.926    -0.034    28.844     8.807
   108   1 H        0.926     0.059     2.215     2.327
   109   1 H        0.926     0.032     2.563     2.504
   110   1 H        0.926     0.050     2.317     2.380
   111   1 H        0.926     0.030     2.591     2.517
   112   1 H        0.926     0.027     2.623     2.533
   113   1 H        0.926     0.030     2.587     2.515
   114   1 H        0.926     0.034     2.532     2.488
   115   1 H        0.926     0.028     2.615     2.529
   116   1 H        0.926     0.025     2.656     2.549
   117   1 H        0.926     0.023     2.684     2.562
   118   1 H        0.926     0.043     2.415     2.430
   119   1 H        0.926     0.040     2.449     2.447
   120   1 H        0.926     0.030     2.580     2.512
   121   1 H        0.926     0.032     2.557     2.500
   122   1 H        0.926     0.032     2.562     2.503
   123   1 H        0.926     0.034     2.528     2.486
   124   1 H        0.926     0.033     2.544     2.494
   125   1 H        0.926     0.032     2.554     2.499
   126   1 H        0.926     0.035     2.520     2.482
   127   1 H        0.926     0.033     2.543     2.494
   128   1 H        0.926     0.034     2.523     2.484
   129   1 H        0.926     0.031     2.568     2.506
   130   1 H        0.926     0.040     2.442     2.444
   131   1 H        0.926     0.043     2.405     2.425
   132   1 H        0.926     0.028     2.609     2.526
   133   1 H        0.926     0.030     2.590     2.517
   134   1 H        0.926     0.035     2.521     2.483
   135   1 H        0.926     0.032     2.557     2.500
   136   1 H        0.926     0.029     2.603     2.523
   137   1 H        0.926     0.030     2.593     2.518
   138   1 H        0.926     0.028     2.614     2.528
   139   1 H        0.926     0.029     2.594     2.519
   140   1 H        0.926     0.029     2.595     2.519
   141   1 H        0.926     0.035     2.511     2.478
   142   1 H        0.926     0.035     2.512     2.479
   143   1 H        0.926     0.033     2.549     2.497
   144   1 H        0.926     0.035     2.523     2.484
   145   1 H        0.926     0.058     2.220     2.330
   146   1 H        0.925     0.032     2.558     2.501
   147   1 H        0.926     0.050     2.315     2.379
   148   1 H        0.926     0.030     2.592     2.518
   149   1 H        0.926     0.027     2.625     2.534
   150   1 H        0.926     0.030     2.589     2.516
   151   1 H        0.926     0.034     2.534     2.489
   152   1 H        0.926     0.028     2.618     2.530
   153   1 H        0.926     0.025     2.661     2.551
   154   1 H        0.926     0.023     2.695     2.567
   155   1 H        0.926     0.044     2.401     2.423
   156   1 H        0.926     0.042     2.429     2.437
   157   1 H        0.926     0.033     2.549     2.496
   158   1 H        0.926     0.034     2.533     2.489
   159   1 H        0.926     0.033     2.546     2.495
   160   1 H        0.926     0.033     2.547     2.495
   161   1 H        0.926     0.030     2.583     2.513
   162   1 H        0.926     0.030     2.588     2.516
   163   1 H        0.926     0.032     2.551     2.498
   164   1 H        0.926     0.034     2.531     2.488
   165   1 H        0.926     0.030     2.586     2.515
   166   1 H        0.926     0.032     2.561     2.503
   167   1 H        0.926     0.041     2.439     2.442
   168   1 H        0.926     0.043     2.411     2.428
   169   1 H        0.926     0.030     2.588     2.516
   170   1 H        0.926     0.031     2.569     2.506
   171   1 H        0.926     0.033     2.544     2.494
   172   1 H        0.926     0.030     2.586     2.515
   173   1 H        0.926     0.035     2.513     2.479
   174   1 H        0.926     0.036     2.503     2.474
   175   1 H        0.926     0.033     2.550     2.497
   176   1 H        0.926     0.036     2.507     2.476

molecular dipole:
                 x           y           z       tot (Debye)
 q only:        0.033       0.081       0.617
   full:       -0.105       0.762       0.782       2.789

 projected vibrational frequencies (cm⁻¹)
eigval :       -0.00    -0.00    -0.00     0.00     0.00     0.00
eigval :        4.23     5.98     8.22     8.61    13.33    14.94
eigval :       15.71    17.52    19.35    20.24    24.66    27.35
eigval :       28.73    32.45    34.65    40.43    41.88    44.10
eigval :       46.59    49.87    52.59    54.56    55.58    59.63
eigval :       61.07    64.63    68.81    69.46    72.49    77.47
eigval :       79.49    80.90    81.06    82.60    85.75    89.56
eigval :       91.97    94.16    96.86   102.18   108.36   111.61
eigval :      118.19   120.72   126.58   131.10   139.94   154.66
eigval :      159.35   162.22   170.12   173.18   175.75   178.05
eigval :      182.75   192.07   209.25   212.10   217.24   218.83
eigval :      225.85   230.52   236.52   238.55   241.89   243.89
eigval :      251.81   255.79   265.38   267.92   274.42   298.18
eigval :      304.59   306.60   309.37   310.36   317.75   321.18
eigval :      339.79   340.80   348.27   349.69   356.65   365.44
eigval :      367.71   370.79   373.78   378.91   380.02   381.40
eigval :      381.68   381.81   383.75   384.44   386.82   391.53
eigval :      392.55   393.20   394.48   397.50   398.84   401.25
eigval :      403.79   407.35   415.20   416.06   426.02   430.91
eigval :      431.59   439.80   446.77   449.16   459.40   462.75
eigval :      468.11   471.47   472.92   477.51   487.10   493.48
eigval :      494.73   499.91   501.25   506.77   509.44   517.99
eigval :      518.45   525.79   526.23   534.87   534.97   540.01
eigval :      541.77   577.04   578.65   581.95   583.01   585.49
eigval :      585.75   586.80   587.22   589.80   592.76   592.86
eigval :      602.84   605.35   606.81   610.93   611.62   612.68
eigval :      620.78   621.86   637.74   639.32   648.77   649.67
eigval :      650.98   655.93   660.83   661.34   664.03   664.76
eigval :      665.80   669.42   670.81   672.84   675.67   676.72
eigval :      677.24   680.85   681.84   683.68   697.45   697.84
eigval :      701.34   706.42   724.41   730.91   732.85   735.38
eigval :      735.50   751.17   756.20   757.05   758.72   759.79
eigval :      762.55   762.84   765.30   765.64   765.85   774.71
eigval :      778.61   782.25   782.45   807.52   809.03   819.71
eigval :      820.58   829.56   830.25   849.66   851.95   861.26
eigval :      861.42   861.84   862.29   867.24   868.79   869.70
eigval :      870.90   873.84   874.18   874.41   874.87   874.91
eigval :      876.77   876.93   877.55   880.20   887.25   895.10
eigval :      896.76   897.07   900.28   906.55   906.68   909.26
eigval :      910.03   911.18   913.47   913.91   914.01   915.72
eigval :      916.68   916.98   917.85   918.90   919.42   919.65
eigval :      920.92   923.01   923.20   923.33   924.36   926.25
eigval :      926.59   927.00   927.09   927.24   927.30   929.05
eigval :      929.40   929.90   930.93   931.16   931.94   931.99
eigval :      932.44   933.54   936.04   941.82   942.04   980.86
eigval :      982.62   983.84   986.05   987.54   994.98  1001.13
eigval :     1004.91  1005.36  1009.99  1011.11  1017.55  1017.90
eigval :     1020.42  1023.57  1063.98  1064.76  1079.39  1079.99
eigval :     1082.64  1083.39  1083.50  1084.42  1084.57  1085.50
eigval :     1086.76  1088.13  1088.90  1106.62  1107.57  1121.87
eigval :     1123.45  1124.11  1124.42  1126.19  1132.77  1135.61
eigval :     1136.03  1136.80  1144.90  1146.36  1148.47  1148.93
eigval :     1166.81  1167.19  1177.33  1179.70  1181.00  1181.05
eigval :     1181.51  1181.77  1182.86  1182.98  1183.25  1185.03
eigval :     1185.50  1186.05  1186.36  1187.53  1191.02  1191.45
eigval :     1196.28  1196.56  1197.62  1198.26  1204.42  1206.06
eigval :     1209.32  1216.83  1217.07  1219.75  1224.05  1229.21
eigval :     1231.10  1253.98  1254.19  1256.98  1257.70  1263.62
eigval :     1264.89  1268.63  1270.19  1274.25  1277.43  1277.83
eigval :     1278.38  1279.62  1281.56  1283.00  1284.12  1284.39
eigval :     1284.95  1290.59  1297.07  1304.37  1307.84  1308.06
eigval :     1308.26  1309.01  1310.46  1315.52  1318.03  1321.12
eigval :     1322.79  1323.34  1323.78  1324.53  1326.60  1326.65
eigval :     1327.88  1328.53  1330.38  1333.78  1338.68  1340.49
eigval :     1340.76  1340.97  1346.55  1351.87  1354.01  1384.37
eigval :     1384.78  1397.32  1400.65  1405.46  1405.83  1412.99
eigval :     1413.90  1414.37  1419.18  1423.28  1423.30  1434.10
eigval :     1434.11  1436.07  1436.76  1439.14  1439.88  1442.24
eigval :     1444.00  1444.92  1469.59  1470.56  1471.56  1473.44
eigval :     1474.96  1476.96  1480.61  1485.16  1485.87  1499.38
eigval :     1500.97  1509.00  1509.34  1515.62  1517.71  1542.74
eigval :     1543.49  1547.36  1549.39  1554.74  1554.75  1558.22
eigval :     1562.00  1562.32  1562.82  1566.01  1566.46  1577.15
eigval :     1577.74  1578.10  1579.36  1581.92  1582.33  1582.99
eigval :     1593.37  1593.98  1594.36  1594.42  1595.20  1595.96
eigval :     1597.00  1599.22  1600.39  1600.97  1603.53  1604.09
eigval :     1604.17  1628.93  1634.07  3058.80  3067.50  3071.76
eigval :     3071.80  3071.91  3072.20  3073.23  3073.57  3073.92
eigval :     3073.96  3074.88  3075.01  3075.45  3075.84  3077.25
eigval :     3078.02  3078.08  3078.38  3079.26  3079.48  3079.53
eigval :     3080.84  3082.27  3082.81  3083.11  3083.41  3084.08
eigval :     3084.64  3084.85  3085.07  3085.38  3085.85  3086.04
eigval :     3086.31  3086.41  3086.64  3086.85  3087.24  3088.48
eigval :     3088.79  3089.00  3090.11  3090.22  3090.52  3090.72
eigval :     3091.05  3091.48  3091.77  3093.73  3095.82  3095.97
eigval :     3096.24  3096.69  3096.80  3097.55  3097.65  3097.77
eigval :     3098.18  3099.05  3100.14  3102.10  3103.22  3105.24
eigval :     3105.44  3106.23  3108.44  3109.97  3110.41  3115.18

   temp. (K)  partition function   enthalpy   heat capacity  entropy
                                   cal/mol     cal/K/mol   cal/K/mol   J/K/mol
 298.15  VIB  0.126E+45            52608.862    323.978    334.839
         ROT  0.964E+09              888.752      2.981     44.091
         INT  0.121E+54            53497.615    326.959    378.930
         TR   0.490E+29             1481.254      4.968     47.495
         TOT                       54978.8687   331.9273   426.4254  1784.1638

       T/K    H(0)-H(T)+PV         H(T)/Eh          T*S/Eh         G(T)/Eh
   ------------------------------------------------------------------------
    298.15    0.876144E-01    0.145190E+01    0.202608E+00    0.124930E+01
   ------------------------------------------------------------------------

         :::::::::::::::::::::::::::::::::::::::::::::::::::::
         ::                  THERMODYNAMIC                  ::
         :::::::::::::::::::::::::::::::::::::::::::::::::::::
         :: total free energy        -268.645026998181 Eh   ::
         ::.................................................::
         :: total energy             -269.894323468636 Eh   ::
         :: zero point energy           1.364290521693 Eh   ::
         :: G(RRHO) w/o ZPVE           -0.114994051238 Eh   ::
         :: G(RRHO) contrib.            1.249296470456 Eh   ::
         :::::::::::::::::::::::::::::::::::::::::::::::::::::

           -------------------------------------------------
          | TOTAL ENERGY             -269.894323468636 Eh   |
          | TOTAL ENTHALPY           -268.442418542725 Eh   |
          | TOTAL FREE ENERGY        -268.645026998181 Eh   |
          | GRADIENT NORM               0.000071014565 Eh/α |
          | HOMO-LUMO GAP               1.934700139915 eV   |
           -------------------------------------------------

 * finished run on 2025/09/07 at 11:44:52.412
