   * xtb version 6.7.1 (edcfbbe) compiled by 'albert@albert-system' on 2024-07-22

   ID    Z sym.   atoms
    1    6 C      1-3, 5-18, 20-23, 25-46, 48-64, 66-79, 81-84, 86-107
    2    7 N      4, 19, 24, 47, 65, 80, 85
    3    1 H      108-176

          program call               : xtb data2507/gas/TPA–2SPPITPA/TPA–2SPPITPA_gas_T1_crest.xyz --gfn 2 --spinpol --tblite --uhf 2 --ohess vtight --parallel 40 --molden --ceasefiles --namespace data2507/gas/TPA–2SPPITPA/TPA–2SPPITPA_gas_T1_finalOpt
 * total energy  :  -269.8312552 Eh     change       -0.2308929E-07 Eh
 * total energy  :  -269.8313028 Eh     change       -0.4768711E-04 Eh
 * total energy  :  -269.8313255 Eh     change       -0.2264838E-04 Eh
 * total energy  :  -269.8313288 Eh     change       -0.3359060E-05 Eh
 * total energy  :  -269.8313325 Eh     change       -0.3625791E-05 Eh
 * total energy  :  -269.8313366 Eh     change       -0.4121781E-05 Eh
 * total energy  :  -269.8313420 Eh     change       -0.5444453E-05 Eh
 * total energy  :  -269.8313462 Eh     change       -0.4127236E-05 Eh
 * total energy  :  -269.8313489 Eh     change       -0.2718466E-05 Eh
 * total energy  :  -269.8313518 Eh     change       -0.2940059E-05 Eh
 * total energy  :  -269.8313820 Eh     change       -0.1487390E-06 Eh
 * total energy  :  -269.8313823 Eh     change       -0.3074666E-06 Eh
 * total energy  :  -269.8313825 Eh     change       -0.2002022E-06 Eh
 * total energy  :  -269.8313829 Eh     change       -0.4129067E-06 Eh
 * total energy  :  -269.8313832 Eh     change       -0.2718439E-06 Eh
 * total energy  :  -269.8313834 Eh     change       -0.2212777E-06 Eh
 * total energy  :  -269.8313832 Eh     change        0.2258087E-06 Eh
 * total energy  :  -269.8313834 Eh     change       -0.2874309E-06 Eh
 * total energy  :  -269.8313835 Eh     change       -0.9550160E-07 Eh
   *** GEOMETRY OPTIMIZATION CONVERGED AFTER 46 ITERATIONS ***

 final structure:
================
176
 xtb: 6.7.1 (edcfbbe)
C           -5.72293875877599       -2.91188135992069       -0.12534231561508
C           -5.64406611079668       -1.56767597222677       -0.54780281668583
C           -6.60961647940140       -0.62359491323440       -0.27311163937316
N           -7.78036643737977       -0.83979972721196        0.34991538267428
C           -8.37793142959615        0.34560784305699        0.45141305298510
C           -9.63569270099806        0.64023385999648        1.05557348558563
C          -10.39548922401568       -0.37053400197706        1.65053440695277
C          -11.59223956463095       -0.07522061187002        2.25852987852133
C          -12.03740417072594        1.24342861460273        2.28012210868323
C          -11.29897918537164        2.24639601019533        1.69180821288610
C          -10.07910482150246        1.98314340003793        1.05312948541430
C           -9.29609088483082        3.01528269146068        0.39362674611219
C           -9.74546980499318        4.33692482866621        0.30301369091155
C           -9.02958522776014        5.31031968670766       -0.35761897785690
C           -7.82468425851437        4.99188779181746       -0.98015385117553
C           -7.34203246295650        3.71069523533390       -0.91001140560728
C           -8.04289211897370        2.70618414841501       -0.21619078448411
C           -7.58630387121287        1.37271062302901       -0.12164925215297
N           -6.46229943106050        0.74862562663530       -0.58942578771350
C           -5.25642946860327        1.31245582891390       -1.02587101201181
C           -4.57404672961668        2.22772569193403       -0.22420247318446
C           -3.34649594697974        2.71768428080750       -0.61438273427711
C           -2.75848192033606        2.29142434185415       -1.80809516358159
N           -1.49110744230140        2.74050068272768       -2.18731281019474
C           -0.60388835546314        1.84211520675479       -2.79834794495584
C           -0.54758210364916        0.51453478907066       -2.37425095344965
C            0.34462683677764       -0.36613983802038       -2.95509840378819
C            1.19173993136642        0.05814819398063       -3.96574792264911
C            1.12917417162743        1.37214530543450       -4.40102420154090
C            0.23771019099061        2.25925739362525       -3.82901430091833
C           -1.10412917726599        4.06273137155312       -1.95362428241807
C            0.23157223633526        4.37859524145603       -1.70033953187388
C            0.61128140191897        5.68962004317467       -1.48806359282999
C           -0.32991609060088        6.70560982226488       -1.50247906382590
C           -1.65834146004445        6.39785400953909       -1.74538066161950
C           -2.04495796257431        5.09265750258008       -1.97835408689927
C           -3.45602766892456        1.39341031797833       -2.61836039503226
C           -4.68961467769683        0.91202527643831       -2.23458147002768
C           -4.74446606758302       -3.86900980268332       -0.37410302891365
C           -3.65829650282389       -3.66081531103892       -1.27674215822161
C           -2.63057830322843       -4.54620935313757       -1.36715489443606
C           -2.57750578569451       -5.71899757827085       -0.57502975070233
C           -1.38212025687568       -6.52413055582722       -0.52589770140448
C           -0.13790858366288       -5.94777526372414       -0.84199996273159
C            1.03195078484888       -6.64579790287082       -0.70587495716974
C            1.03345824369268       -7.97065415381046       -0.25034586281735
N            2.26131618181785       -8.59760523606102       -0.02188940373566
C            2.53364472478911       -9.91636643272886       -0.34714297584715
C            1.77978850655680      -10.59804659281013       -1.30504006091209
C            2.07062397020575      -11.91290500664793       -1.60869634890763
C            3.11676647827872      -12.56775245161276       -0.97855148896625
C            3.87620516061595      -11.89172456494000       -0.03696644833640
C            3.58995291135030      -10.57987378841444        0.28216581682443
C            3.26100908089342       -7.72562816424190        0.45469751338321
C            4.44398483143060       -7.49753512961987       -0.24401385622300
C            5.22845854198004       -6.40639968907633        0.07430299504394
C            4.86664935027838       -5.53205099948595        1.10118422839448
C            5.47505286694869       -4.20566529435564        1.22026524000030
C            6.80022818039252       -3.92306293382713        0.88731271152157
C            7.25663365683092       -2.62129548455626        0.84261966665475
C            6.40812390362138       -1.54228533783263        1.11409844993412
C            6.85617272504400       -0.18002529310145        0.92127192113355
C            6.00908288126753        0.85984324494883        0.82379241125870
C            6.37104244243675        2.22061862445028        0.59303359341091
N            7.58453852613382        2.71324098905789        0.49004420479605
C            7.43216804981616        4.04876084332103        0.32337605253429
C            8.44984496252102        5.03283475936111        0.17537971071864
C            9.80290582635551        4.67872024432329        0.18125125889507
C           10.77263900214488        5.64099644804002        0.05020320063988
C           10.39718773087447        6.97569708077238       -0.08812377881603
C            9.06967776182218        7.33515767800167       -0.09675667275031
C            8.04878887763934        6.38108809963631        0.03230162019562
C            6.63850969399811        6.73030831425273        0.01603252016255
C            6.20757637616663        8.05535913273782       -0.13849745256074
C            4.87447988958633        8.39058356755187       -0.16528521061285
C            3.90163185545123        7.40259484885587       -0.05003173020756
C            4.28055200585944        6.09161171909298        0.10020744864334
C            5.63508444065084        5.73182559047013        0.15004854129468
C            6.07676144814195        4.39223964746119        0.32634552385410
N            5.40289811998470        3.20950344630175        0.49049426921780
C            4.02624410311235        2.95562709758641        0.65347242232680
C            3.36088450228979        3.38722311680614        1.79797205609992
C            2.05422365186013        3.00982262683667        2.02366199828296
C            1.38852196628016        2.17531521225720        1.12270733642409
N            0.09295559420489        1.72770689247828        1.39848174780911
C           -0.82046560855065        2.61448948181281        1.98432175637677
C           -1.73349565431532        2.18521822146460        2.94672459283988
C           -2.64584241117024        3.07251016315698        3.48455950672738
C           -2.65652384013729        4.39991764760787        3.08781631049795
C           -1.73489813458950        4.83782039351686        2.15092658938938
C           -0.82413461795554        3.95620932758361        1.60108915869517
C           -0.24315475465802        0.38541770379773        1.18302731232356
C            0.72904127119512       -0.61235760531671        1.26026069160550
C            0.39294121894825       -1.93657551694050        1.05333706359059
C           -0.91757157804882       -2.29706623890617        0.78989422625155
C           -1.88955648135682       -1.31317454866871        0.71729721288491
C           -1.55910181019918        0.01644929595207        0.89778319861327
C            2.04751750796702        1.77805223870317       -0.04242251642557
C            3.35152998873171        2.16617842670653       -0.27474129857812
C            5.10278124685645       -1.83778494013856        1.52333874951577
C            4.64906905422895       -3.13288041615966        1.56885168138289
C            3.77711793426874       -5.88133928765413        1.90546240925934
C            2.97899011416359       -6.95308495090609        1.58142231081329
C           -0.19666131999412       -8.57748176084404        0.02022668377905
C           -1.36907357859281       -7.86812810480616       -0.11047441811392
C           -3.71793777725037       -6.00068214287935        0.21448220200866
C           -4.75732798244454       -5.12449619219713        0.30500679598752
H           -6.57363371980825       -3.17583335180778        0.48536874277711
H           -4.75758408100785       -1.23073674951577       -1.06204055331211
H          -10.00760282716893       -1.37666788686150        1.61692555721777
H          -12.18183909035280       -0.85364921381691        2.71936179679229
H          -12.97340446197082        1.48533130865545        2.76281326118963
H          -11.68429886555171        3.25270563276529        1.73694371297898
H          -10.68538670275980        4.61643146081141        0.75117045662289
H           -9.41045720424652        6.31974775151919       -0.40462152055266
H           -7.27601685633226        5.75012938417948       -1.51913986126148
H           -6.41865450293967        3.45942378314749       -1.40806300377546
H           -5.00632695294478        2.54024193732354        0.71522922600951
H           -2.82219728990473        3.41559113492090        0.02050868570543
H           -1.19616712368216        0.17918217722149       -1.57907364310267
H            0.38355163790247       -1.38642838226153       -2.60263910201474
H            1.89273398872402       -0.62993329567209       -4.41299605504014
H            1.77596865419834        1.70896690295326       -5.19762960909496
H            0.18749166571916        3.28038543668612       -4.17736153776557
H            0.97109600754770        3.59211814185188       -1.66634182355707
H            1.65132004349732        5.91479463694958       -1.30605053346959
H           -0.03068934793344        7.72849995081880       -1.33136886177472
H           -2.39997903110859        7.18275943818296       -1.76721202969979
H           -3.07932252830665        4.86484463333918       -2.18937818305980
H           -3.02229351159473        1.07745440965100       -3.55552131217362
H           -5.23181861497809        0.23474724307062       -2.87772076149496
H           -3.65939522280578       -2.79045765984538       -1.91503688399219
H           -1.84404755232667       -4.35726704649774       -2.08288001458124
H           -0.08557646380964       -4.91961188404746       -1.16379297525681
H            1.96960560423739       -6.16660557006948       -0.94650565121993
H            0.97960528131603      -10.08529347972157       -1.81758257360878
H            1.48071455042045      -12.42838081918750       -2.35233716187339
H            3.34039167768524      -13.59515108685738       -1.22174820030470
H            4.69439903685824      -12.39310407018514        0.45880103597308
H            4.17507725527840      -10.05779480347807        1.02528144551753
H            4.69776390101790       -8.12890417848829       -1.08320686830707
H            6.09088701433205       -6.18333994075212       -0.53593351280131
H            7.47878982571782       -4.73283311908080        0.66094477738640
H            8.28139818477188       -2.42415920423552        0.56156282574113
H            7.91566023186404       -0.00969481650530        0.79620052105478
H            4.94539287875547        0.69241866845367        0.91137029399805
H           10.04909352601609        3.63433318522679        0.29361403525253
H           11.81858444866271        5.37187051573042        0.05477931412593
H           11.15657365370096        7.73766386673048       -0.18993632654096
H            8.82783762622184        8.38051172483675       -0.20603057539164
H            6.93206237046406        8.84703428623576       -0.24041270176009
H            4.58139405583450        9.42372659372935       -0.28087393281160
H            2.85484500705011        7.66839126308660       -0.07534724931716
H            3.52849258938450        5.32156411874240        0.18081937149935
H            3.88345054247112        4.00050187474711        2.51720192190590
H            1.54891345123453        3.33177991928497        2.92182626125857
H           -1.72269831602688        1.15558164393931        3.27204702988796
H           -3.34978130782383        2.72453336718730        4.22606902800673
H           -3.37381763027615        5.08777798414672        3.50867078470789
H           -1.72963413421287        5.86972401841663        1.83185284484618
H           -0.11844429889781        4.30174777830254        0.86057933586417
H            1.74963613141155       -0.34739703278043        1.49364912488122
H            1.16000341771064       -2.69521233961988        1.11165068033743
H           -1.18514934575355       -3.33244898432812        0.64693916630158
H           -2.91431397132761       -1.58519726083138        0.51455046056874
H           -2.32283357661925        0.77619059613066        0.81926846692280
H            1.53661623230658        1.14765740918642       -0.75560522423212
H            3.86000368953012        1.84725887467821       -1.17299468511529
H            4.42874585438378       -1.04252551714373        1.80212174428395
H            3.61995681694353       -3.31763801840361        1.83837540023194
H            3.53923973087387       -5.28840992509237        2.77559191538379
H            2.09664579754041       -7.17547469427216        2.16358723654612
H           -0.21972381718890       -9.60216076064517        0.36227691383398
H           -2.30131377184486       -8.36597792803906        0.10933557759989
H           -3.74227945329016       -6.90822542407818        0.79936428142111
H           -5.59910590433953       -5.34673229597290        0.94507378691700

 projected vibrational frequencies (cm⁻¹)
eigval :       -0.00    -0.00    -0.00    -0.00    -0.00     0.00
eigval :        8.29     8.49    11.13    12.89    14.96    16.51
eigval :       18.09    22.50    24.09    27.05    28.93    29.70
eigval :       31.01    33.11    36.36    40.15    41.17    46.86
eigval :       49.02    51.50    55.18    57.50    57.93    60.02
eigval :       61.79    64.90    67.69    70.84    73.77    76.90
eigval :       80.95    81.58    84.53    85.70    90.14    93.86
eigval :       95.64    96.85   100.38   106.14   112.19   115.00
eigval :      115.60   129.07   133.04   136.13   144.52   152.88
eigval :      158.63   167.30   171.31   175.36   181.83   183.86
eigval :      190.73   194.84   209.37   212.05   219.52   220.96
eigval :      224.71   232.74   238.47   242.87   247.84   251.13
eigval :      257.62   260.48   264.53   265.74   275.26   293.66
eigval :      300.68   305.58   306.40   308.08   317.69   322.22
eigval :      335.81   338.49   347.50   350.16   353.04   363.89
eigval :      365.95   370.28   371.37   375.11   378.54   379.17
eigval :      380.54   382.37   384.53   385.47   386.12   388.91
eigval :      389.40   393.83   395.15   395.85   398.99   400.12
eigval :      402.52   410.01   412.83   416.43   419.20   425.90
eigval :      430.98   441.09   444.32   447.11   450.84   457.13
eigval :      465.00   473.12   475.19   480.09   483.76   489.31
eigval :      494.69   495.83   500.31   505.22   507.80   509.64
eigval :      516.68   518.13   526.34   530.03   530.23   535.56
eigval :      538.57   573.49   575.27   581.14   581.85   584.52
eigval :      585.74   587.28   587.71   588.55   592.15   592.36
eigval :      595.51   604.17   604.83   606.31   610.47   612.41
eigval :      617.40   622.33   627.80   640.18   642.62   648.43
eigval :      650.00   654.75   657.71   659.54   660.30   662.58
eigval :      663.29   664.45   668.19   670.06   672.78   673.95
eigval :      675.81   676.75   678.92   682.02   685.96   696.91
eigval :      700.58   704.35   723.34   727.87   731.82   732.16
eigval :      735.60   750.37   755.39   757.36   757.81   758.60
eigval :      760.12   761.49   761.95   763.35   766.16   766.55
eigval :      775.62   778.86   782.77   796.56   804.75   805.84
eigval :      816.52   823.48   823.93   827.74   845.76   848.72
eigval :      849.74   853.50   854.54   859.46   861.69   863.72
eigval :      867.21   870.50   872.15   873.46   874.81   874.98
eigval :      875.95   876.85   877.81   880.23   881.77   886.85
eigval :      893.64   896.00   898.37   903.03   903.67   906.95
eigval :      907.56   907.82   908.74   909.50   910.05   913.03
eigval :      914.27   914.41   914.80   917.54   918.12   918.31
eigval :      918.77   918.98   920.41   921.58   923.08   924.77
eigval :      925.04   925.12   926.17   927.28   927.69   928.56
eigval :      929.14   929.64   930.65   931.37   931.65   932.05
eigval :      932.86   933.56   935.13   936.95   941.28   945.07
eigval :      964.91   979.88   981.06   982.77   983.07   996.36
eigval :      997.55  1003.96  1004.77  1008.13  1010.08  1010.51
eigval :     1016.82  1020.59  1038.82  1054.22  1061.66  1076.76
eigval :     1080.71  1082.86  1083.25  1083.32  1084.33  1086.77
eigval :     1087.32  1087.77  1088.78  1105.00  1108.54  1123.25
eigval :     1123.45  1124.22  1126.80  1127.86  1131.23  1133.40
eigval :     1133.68  1135.62  1139.58  1146.11  1147.93  1149.42
eigval :     1158.64  1161.08  1167.08  1175.35  1177.22  1179.29
eigval :     1179.58  1179.91  1180.52  1181.86  1182.18  1182.46
eigval :     1183.27  1184.05  1184.85  1185.82  1187.83  1190.93
eigval :     1192.64  1193.77  1197.13  1198.27  1198.76  1204.76
eigval :     1205.52  1212.40  1216.06  1218.37  1219.92  1223.50
eigval :     1225.63  1233.53  1247.74  1252.52  1255.20  1258.59
eigval :     1264.57  1265.36  1266.32  1271.45  1272.83  1278.13
eigval :     1278.81  1279.77  1281.63  1282.55  1284.45  1284.55
eigval :     1285.49  1287.37  1287.94  1294.08  1305.66  1307.41
eigval :     1309.15  1310.63  1311.93  1317.15  1319.18  1320.08
eigval :     1321.23  1321.63  1322.72  1323.78  1325.08  1326.76
eigval :     1327.97  1328.26  1334.11  1334.81  1337.27  1339.93
eigval :     1340.75  1341.68  1342.09  1349.28  1353.52  1367.55
eigval :     1380.64  1396.51  1398.27  1398.72  1405.94  1412.13
eigval :     1414.53  1414.85  1418.44  1423.07  1425.76  1433.63
eigval :     1434.54  1434.90  1436.06  1438.39  1439.44  1441.87
eigval :     1443.06  1444.17  1447.25  1457.75  1462.50  1468.38
eigval :     1471.50  1472.56  1474.36  1474.88  1477.52  1479.35
eigval :     1480.17  1482.73  1492.44  1496.66  1503.99  1508.46
eigval :     1514.97  1518.28  1531.32  1541.51  1544.38  1546.84
eigval :     1547.33  1550.32  1553.01  1553.45  1558.88  1562.99
eigval :     1565.95  1572.68  1574.55  1576.13  1576.40  1580.34
eigval :     1580.55  1580.81  1588.82  1590.65  1591.11  1592.00
eigval :     1592.28  1592.94  1593.88  1594.42  1595.63  1598.88
eigval :     1599.31  1603.80  1625.26  3070.70  3071.62  3072.15
eigval :     3073.24  3073.40  3073.76  3074.36  3076.15  3076.42
eigval :     3076.94  3077.68  3077.69  3078.63  3078.66  3079.10
eigval :     3079.21  3080.16  3080.53  3081.02  3082.40  3083.12
eigval :     3083.39  3083.42  3083.63  3084.05  3084.55  3084.63
eigval :     3084.88  3085.19  3085.40  3086.09  3086.63  3086.76
eigval :     3086.91  3087.66  3088.30  3088.81  3089.26  3090.14
eigval :     3091.01  3091.65  3091.82  3092.21  3093.42  3093.87
eigval :     3094.47  3094.60  3095.32  3096.34  3096.75  3096.85
eigval :     3096.97  3097.17  3097.92  3098.08  3099.09  3100.01
eigval :     3100.86  3101.91  3102.15  3102.63  3103.54  3104.53
eigval :     3105.71  3106.38  3106.83  3107.02  3109.47  3110.90

   temp. (K)  partition function   enthalpy   heat capacity  entropy
                                   cal/mol     cal/K/mol   cal/K/mol   J/K/mol
 298.15  VIB  0.270E+43            52562.885    325.841    331.306
         ROT  0.849E+09              888.752      2.981     43.839
         INT  0.229E+52            53451.637    328.822    375.144
         TR   0.490E+29             1481.254      4.968     47.495
         TOT                       54932.8912   333.7901   422.6398  1768.3250

       T/K    H(0)-H(T)+PV         H(T)/Eh          T*S/Eh         G(T)/Eh
   ------------------------------------------------------------------------
    298.15    0.875411E-01    0.144916E+01    0.200810E+00    0.124835E+01
   ------------------------------------------------------------------------

         :::::::::::::::::::::::::::::::::::::::::::::::::::::
         ::                  THERMODYNAMIC                  ::
         :::::::::::::::::::::::::::::::::::::::::::::::::::::
         :: total free energy        -268.583028705311 Eh   ::
         ::.................................................::
         :: total energy             -269.831383606394 Eh   ::
         :: zero point energy           1.361623585063 Eh   ::
         :: G(RRHO) w/o ZPVE           -0.113268683980 Eh   ::
         :: G(RRHO) contrib.            1.248354901082 Eh   ::
         :::::::::::::::::::::::::::::::::::::::::::::::::::::

           -------------------------------------------------
          | TOTAL ENERGY             -269.831383606394 Eh   |
          | TOTAL ENTHALPY           -268.382218886903 Eh   |
          | TOTAL FREE ENERGY        -268.583028705311 Eh   |
          | GRADIENT NORM               0.000114438254 Eh/α |
           -------------------------------------------------

 * finished run on 2025/09/07 at 12:55:08.735
