   * xtb version 6.7.1 (edcfbbe) compiled by 'albert@albert-system' on 2024-07-22

   ID    Z sym.   atoms
    1   35 Br     1, 12
    2    6 C      2-5, 7-11, 13-21, 23, 24
    3    7 N      6, 22
    4    1 H      25-34

          program call               : xtb data2507/toluene/phenazasiline/phenazasiline_toluene_T1_crest.xyz --gfn 2 --uhf 2 --gbsa toluene --ohess vtight --parallel 40 --molden --ceasefiles --namespace data2507/toluene/phenazasiline/phenazasiline_toluene_T1_finalOpt
      * Solvation model:               GBSA
        Solvent                        toluene
        Solvent mass                       9.2140E+01 g/mol
          :  Hamiltonian                  GFN2-xTB          :
 * total energy  :   -61.9485816 Eh     change       -0.3951612E-09 Eh
 * total energy  :   -61.9485963 Eh     change       -0.1469886E-04 Eh
 * total energy  :   -61.9485988 Eh     change       -0.2431729E-05 Eh
 * total energy  :   -61.9485994 Eh     change       -0.6494971E-06 Eh
 * total energy  :   -61.9485997 Eh     change       -0.2456155E-06 Eh
 * total energy  :   -61.9485999 Eh     change       -0.2052935E-06 Eh
 * total energy  :   -61.9486001 Eh     change       -0.1944311E-06 Eh
 * total energy  :   -61.9486002 Eh     change       -0.1208081E-06 Eh
 * total energy  :   -61.9486002 Eh     change       -0.4100542E-07 Eh
   *** GEOMETRY OPTIMIZATION CONVERGED AFTER 9 ITERATIONS ***

 final structure:
================
34
 xtb: 6.7.1 (edcfbbe)
Br           6.64335136855752        0.41969568659064        0.00705588405654
C            4.75553812702215        0.70745640458417       -0.00060654481397
C            4.26597183922823        2.00251903081580       -0.00755244748645
C            2.89727845756455        2.20995870713691       -0.01194367641281
C            2.00172721139636        1.14263637064708       -0.00942108050406
N            0.68594611218473        1.28943811404606       -0.01193336433961
C           -0.16533426770322        0.27673839793012       -0.00902575962119
C           -1.57668607552186        0.47632228678790       -0.00942990249404
C           -2.07702859353340        1.79157028325638       -0.01288998745499
C           -3.42415977150135        2.03630110133893       -0.01186357466751
C           -4.29813191123209        0.94830266472043       -0.00708908123148
Br          -6.18467824495542        1.27596428563272       -0.00436387378223
C           -3.84448532150037       -0.34830719308293       -0.00417052643135
C           -2.46955169859493       -0.62282578490808       -0.00553019743183
C           -1.94391646249659       -1.96817261675036       -0.00307385098091
C           -2.76081587928216       -3.10922084227306       -0.00120940256101
C           -2.22471934171228       -4.37506512263768        0.00076118511860
C           -0.84105569452275       -4.55690007247377        0.00101946741372
C           -0.01257677658499       -3.46501552914923       -0.00061327315014
C           -0.54284577863403       -2.16251589623632       -0.00269897770129
C            0.35771953230355       -1.05397154391309       -0.00446300490219
N            1.66757473254115       -1.21719037292227       -0.00184528753204
C            2.53384263211799       -0.21284846774702       -0.00320399300279
C            3.91226061924336       -0.39313265448956        0.00136602360954
H            4.94235886030058        2.84218570970638       -0.00937369900715
H            2.49614788723708        3.21091393269162       -0.01703933411180
H           -1.36800741893463        2.60493712101568       -0.01621369940494
H           -3.80727597799614        3.04461823775224       -0.01448484347206
H           -4.56308623638768       -1.15064826371900       -0.00051198224722
H           -3.83329264357145       -3.00486374877754       -0.00150600644894
H           -2.87877215599489       -5.23398491272292        0.00207620872023
H           -0.42588394506972       -5.55330363149549        0.00242112781279
H            1.06132902216701       -3.57351354177780       -0.00051309187399
H            4.30384101066572       -1.39788226637695        0.00647342633655

          :  Hamiltonian                  GFN2-xTB          :
         :: gradient norm              0.000030477304 Eh/a0 ::
         :: HOMO-LUMO gap              1.014854251519 eV    ::
         :: SCC energy               -62.949658187555 Eh    ::
         :: -> dispersion             -0.047966718540 Eh    ::
         :: -> Gsolv                  -0.029429121786 Eh    ::
         :: repulsion energy           1.001057950605 Eh    ::

    * Orbital Energies and Occupations

         #    Occupation            Energy/Eh            Energy/eV
      -------------------------------------------------------------
         1        2.0000           -0.8451453             -22.9976
       ...           ...                  ...                  ...
        46        2.0000           -0.4514008             -12.2832
        47        2.0000           -0.4434234             -12.0662
        48        2.0000           -0.4415508             -12.0152
        49        2.0000           -0.4339356             -11.8080
        50        2.0000           -0.4329385             -11.7809
        51        2.0000           -0.4190487             -11.4029
        52        2.0000           -0.4175263             -11.3615
        53        2.0000           -0.4152254             -11.2989
        54        2.0000           -0.4127808             -11.2323
        55        2.0000           -0.4072974             -11.0831
        56        2.0000           -0.3996993             -10.8764
        57        1.0000           -0.3797931             -10.3347
        58        1.0000           -0.3263650              -8.8808 (HOMO)
        59                         -0.2890698              -7.8660 (LUMO)
        60                         -0.2709129              -7.3719
        61                         -0.2455140              -6.6808
        62                         -0.2378711              -6.4728
        63                         -0.2200197              -5.9870
        64                         -0.2125611              -5.7841
        65                         -0.2124132              -5.7801
        66                         -0.2119532              -5.7675
        67                         -0.1745032              -4.7485
        68                         -0.1275472              -3.4707
        69                         -0.1078928              -2.9359
       ...                                ...                  ...
       116                          0.6924009              18.8412
      -------------------------------------------------------------
                  HL-Gap            0.0372952 Eh            1.0149 eV

     #   Z          covCN         q      C6AA      α(0)
     1  35 Br       1.066    -0.180   190.028    22.227
     2   6 C        2.912     0.079    26.241     8.400
     3   6 C        2.984    -0.038    28.940     8.824
     4   6 C        2.920    -0.055    29.360     8.886
     5   6 C        2.936     0.088    26.047     8.370
     6   7 N        1.851    -0.194    26.042     7.563
     7   6 C        2.940     0.081    26.190     8.393
     8   6 C        2.985    -0.004    28.122     8.699
     9   6 C        2.927    -0.026    28.648     8.778
    10   6 C        2.980    -0.034    28.841     8.809
    11   6 C        2.914     0.084    26.131     8.382
    12  35 Br       1.062    -0.186   190.200    22.237
    13   6 C        2.994    -0.038    28.927     8.823
    14   6 C        2.979     0.007    27.854     8.657
    15   6 C        2.976     0.007    27.869     8.659
    16   6 C        2.920    -0.030    28.751     8.793
    17   6 C        2.917    -0.025    28.624     8.773
    18   6 C        2.916    -0.026    28.642     8.776
    19   6 C        2.924    -0.025    28.636     8.775
    20   6 C        2.987    -0.001    28.041     8.686
    21   6 C        2.940     0.085    26.110     8.380
    22   7 N        1.851    -0.194    26.030     7.562
    23   6 C        2.939     0.090    26.005     8.364
    24   6 C        2.990    -0.063    29.546     8.916
    25   1 H        0.926     0.064     2.148     2.292
    26   1 H        0.926     0.068     2.102     2.267
    27   1 H        0.926     0.063     2.169     2.303
    28   1 H        0.926     0.063     2.168     2.302
    29   1 H        0.926     0.066     2.133     2.284
    30   1 H        0.926     0.051     2.310     2.377
    31   1 H        0.926     0.050     2.323     2.383
    32   1 H        0.926     0.051     2.306     2.375
    33   1 H        0.926     0.053     2.289     2.366
    34   1 H        0.926     0.070     2.087     2.259

molecular dipole:
                 x           y           z       tot (Debye)
 q only:       -0.604      -0.690      -0.004
   full:       -0.580      -0.623      -0.006       2.164

 projected vibrational frequencies (cm⁻¹)
eigval :       -0.00    -0.00    -0.00    -0.00     0.00     0.00
eigval :       17.69    46.57    57.64    66.58    80.41   119.25
eigval :      120.44   140.37   147.23   193.87   215.59   229.70
eigval :      246.25   272.30   300.49   324.98   346.01   368.03
eigval :      384.20   403.53   413.33   414.54   446.04   475.34
eigval :      513.67   528.03   540.58   542.95   570.78   590.35
eigval :      604.75   609.75   610.29   661.51   666.08   676.19
eigval :      707.31   717.80   768.16   776.97   786.02   788.50
eigval :      811.58   827.51   853.59   862.14   868.57   869.61
eigval :      908.32   910.79   911.20   919.93  1009.29  1054.67
eigval :     1080.61  1081.40  1103.97  1128.23  1141.20  1149.35
eigval :     1176.40  1211.39  1216.93  1226.19  1235.48  1245.95
eigval :     1266.30  1287.32  1293.66  1318.37  1334.91  1351.70
eigval :     1359.15  1383.24  1401.69  1405.52  1412.34  1456.32
eigval :     1466.31  1485.52  1518.44  1522.07  1526.75  1543.48
eigval :     1559.67  1583.45  3084.07  3090.07  3096.45  3098.71
eigval :     3098.79  3103.80  3106.74  3110.47  3111.59  3123.68

   temp. (K)  partition function   enthalpy   heat capacity  entropy
                                   cal/mol     cal/K/mol   cal/K/mol   J/K/mol
 298.15  VIB  0.768E+07            10202.199     66.932     61.908
         ROT  0.264E+08              888.752      2.981     36.939
         INT  0.203E+15            11090.951     69.913     98.847
         TR   0.887E+28             1481.254      4.968     44.102
         TOT                       12572.2053    74.8815   142.9489   598.0980

       T/K    H(0)-H(T)+PV         H(T)/Eh          T*S/Eh         G(T)/Eh
   ------------------------------------------------------------------------
    298.15    0.200351E-01    0.251941E+00    0.679196E-01    0.184021E+00
   ------------------------------------------------------------------------

         :::::::::::::::::::::::::::::::::::::::::::::::::::::
         ::                  THERMODYNAMIC                  ::
         :::::::::::::::::::::::::::::::::::::::::::::::::::::
         :: total free energy         -61.764578768165 Eh   ::
         ::.................................................::
         :: total energy              -61.948600235476 Eh   ::
         :: zero point energy           0.231906000372 Eh   ::
         :: G(RRHO) w/o ZPVE           -0.047884533061 Eh   ::
         :: G(RRHO) contrib.            0.184021467311 Eh   ::
         :::::::::::::::::::::::::::::::::::::::::::::::::::::

           -------------------------------------------------
          | TOTAL ENERGY              -61.948600235476 Eh   |
          | TOTAL ENTHALPY            -61.696659150634 Eh   |
          | TOTAL FREE ENERGY         -61.764578768165 Eh   |
          | GRADIENT NORM               0.000030280821 Eh/α |
          | HOMO-LUMO GAP               1.014853872426 eV   |
           -------------------------------------------------

 * finished run on 2025/09/02 at 18:27:34.888
