   * xtb version 6.7.1 (edcfbbe) compiled by 'albert@albert-system' on 2024-07-22

   ID    Z sym.   atoms
    1   35 Br     1, 12
    2    6 C      2-5, 7-11, 13-21, 23, 24
    3    7 N      6, 22
    4    1 H      25-34

          program call               : xtb data2507/toluene/phenazasiline/phenazasiline.xyz --gfn 2 --gbsa toluene --ohess vtight --parallel 40 --molden --ceasefiles --namespace data2507/toluene/phenazasiline/phenazasiline_toluene_S0_preOpt
      * Solvation model:               GBSA
        Solvent                        toluene
        Solvent mass                       9.2140E+01 g/mol
          :  Hamiltonian                  GFN2-xTB          :
 * total energy  :   -61.9875736 Eh     change       -0.1388990E-08 Eh
 * total energy  :   -61.9978618 Eh     change       -0.1028821E-01 Eh
 * total energy  :   -61.9998587 Eh     change       -0.1996931E-02 Eh
 * total energy  :   -61.9999539 Eh     change       -0.9515087E-04 Eh
 * total energy  :   -61.9999795 Eh     change       -0.2562444E-04 Eh
 * total energy  :   -61.9999807 Eh     change       -0.1216457E-05 Eh
 * total energy  :   -61.9999808 Eh     change       -0.1211170E-06 Eh
 * total energy  :   -61.9999807 Eh     change        0.1264700E-06 Eh
 * total energy  :   -61.9999809 Eh     change       -0.1306285E-06 Eh
 * total energy  :   -61.9999807 Eh     change        0.1238075E-06 Eh
 * total energy  :   -61.9999809 Eh     change       -0.1252856E-06 Eh
 * total energy  :   -61.9999808 Eh     change        0.3366200E-07 Eh
 * total energy  :   -61.9999809 Eh     change       -0.3495813E-07 Eh
   *** GEOMETRY OPTIMIZATION CONVERGED AFTER 13 ITERATIONS ***

 final structure:
================
34
 xtb: 6.7.1 (edcfbbe)
Br           6.75011284195046       -1.32331159116823        0.00000175735371
C            5.03911390766739       -0.47513456482555        0.00000026862269
C            4.99598230336665        0.93222422725491        0.00000022154570
C            3.79159828874013        1.57373941233588       -0.00000009629003
C            2.59148946675356        0.82854828031652       -0.00000047927319
N            1.40964775309447        1.46094338737621       -0.00000071530393
C            0.31167639049853        0.72789191123331       -0.00000061285018
C           -0.97362468510187        1.39013527718740       -0.00000102755287
C           -1.02478052213826        2.78800478854725       -0.00000207607407
C           -2.22676950161160        3.45523267283848       -0.00000018830041
C           -3.39536107232995        2.70300418580867        0.00000341441193
Br          -5.08293190579674        3.60653572422677       -0.00000090094335
C           -3.37699130993795        1.32581429466340        0.00000135116600
C           -2.16185202915894        0.63132898093807       -0.00000076100344
C           -2.10159774063454       -0.82448391269717       -0.00000047354034
C           -3.24897925385598       -1.62625576085209        0.00000127174011
C           -3.16371040088242       -3.00237587619362        0.00000174366444
C           -1.92428392635868       -3.63248366162418       -0.00000009189063
C           -0.77861899545619       -2.87031869005527       -0.00000118624165
C           -0.84981564491207       -1.47371412182083       -0.00000095367540
C            0.37266092712768       -0.70106677627650       -0.00000064704641
N            1.53149666536817       -1.33321303688358       -0.00000042569964
C            2.65241633765719       -0.59698235490549       -0.00000032279405
C            3.90852025193917       -1.24033066958458        0.00000005130079
H            5.92023084959587        1.48921656429513        0.00000112956181
H            3.72720485197329        2.65045156741523       -0.00000031781400
H           -0.09207663091048        3.32919850592183       -0.00000005308425
H           -2.26723159552822        4.53310455723252        0.00000060114217
H           -4.31491921193218        0.79641157550912        0.00000127052841
H           -4.22773648581248       -1.17564922906530        0.00000078418332
H           -4.06809856696987       -3.59236421731340        0.00000060655762
H           -1.86229887928058       -4.71002447676941       -0.00000044878887
H            0.19933786732909       -3.32555971635414       -0.00000114500660
H            3.94018865554738       -2.31851625671139        0.00000045139464

          :  Hamiltonian                  GFN2-xTB          :
         :: gradient norm              0.000019525443 Eh/a0 ::
         :: HOMO-LUMO gap              1.311066097646 eV    ::
         :: SCC energy               -62.993038515122 Eh    ::
         :: -> dispersion             -0.048091550202 Eh    ::
         :: -> Gsolv                  -0.029986156315 Eh    ::
         :: repulsion energy           0.993057658113 Eh    ::

    * Orbital Energies and Occupations

         #    Occupation            Energy/Eh            Energy/eV
      -------------------------------------------------------------
         1        2.0000           -0.8491462             -23.1064
       ...           ...                  ...                  ...
        45        2.0000           -0.4514268             -12.2839
        46        2.0000           -0.4432581             -12.0617
        47        2.0000           -0.4414461             -12.0124
        48        2.0000           -0.4370173             -11.8918
        49        2.0000           -0.4357240             -11.8567
        50        2.0000           -0.4294690             -11.6864
        51        2.0000           -0.4233539             -11.5200
        52        2.0000           -0.4193107             -11.4100
        53        2.0000           -0.4162695             -11.3273
        54        2.0000           -0.4151061             -11.2956
        55        2.0000           -0.4085324             -11.1167
        56        2.0000           -0.4018590             -10.9351
        57        2.0000           -0.3701933             -10.0735 (HOMO)
        58                         -0.3220125              -8.7624 (LUMO)
        59                         -0.2861933              -7.7877
        60                         -0.2721624              -7.4059
        61                         -0.2481197              -6.7517
        62                         -0.2390212              -6.5041
        63                         -0.2238014              -6.0899
        64                         -0.2180131              -5.9324
        65                         -0.2144430              -5.8353
        66                         -0.2141867              -5.8283
        67                         -0.1751089              -4.7650
        68                         -0.1277629              -3.4766
       ...                                ...                  ...
       116                          0.6942798              18.8923
      -------------------------------------------------------------
                  HL-Gap            0.0481808 Eh            1.3111 eV

     #   Z          covCN         q      C6AA      α(0)
     1  35 Br       1.069    -0.165   189.618    22.203
     2   6 C        2.913     0.086    26.093     8.376
     3   6 C        2.984    -0.031    28.764     8.798
     4   6 C        2.919    -0.039    28.969     8.826
     5   6 C        2.965     0.080    26.206     8.397
     6   7 N        1.848    -0.248    27.309     7.745
     7   6 C        2.960     0.086    26.079     8.376
     8   6 C        2.986    -0.005    28.144     8.702
     9   6 C        2.928    -0.025    28.621     8.774
    10   6 C        2.983    -0.032    28.790     8.802
    11   6 C        2.916     0.088    26.038     8.368
    12  35 Br       1.064    -0.179   190.014    22.226
    13   6 C        2.996    -0.038    28.945     8.825
    14   6 C        2.978     0.012    27.748     8.641
    15   6 C        2.976     0.009    27.823     8.652
    16   6 C        2.922    -0.031    28.765     8.795
    17   6 C        2.918    -0.022    28.556     8.763
    18   6 C        2.916    -0.024    28.599     8.769
    19   6 C        2.923    -0.025    28.622     8.773
    20   6 C        2.987    -0.003    28.102     8.696
    21   6 C        2.960     0.088    26.039     8.370
    22   7 N        1.848    -0.250    27.357     7.752
    23   6 C        2.969     0.083    26.139     8.386
    24   6 C        2.994    -0.048    29.185     8.862
    25   1 H        0.926     0.071     2.071     2.251
    26   1 H        0.926     0.071     2.073     2.251
    27   1 H        0.926     0.072     2.061     2.245
    28   1 H        0.926     0.064     2.151     2.293
    29   1 H        0.926     0.068     2.112     2.273
    30   1 H        0.926     0.052     2.299     2.371
    31   1 H        0.926     0.051     2.302     2.373
    32   1 H        0.926     0.051     2.312     2.378
    33   1 H        0.926     0.061     2.189     2.314
    34   1 H        0.926     0.072     2.064     2.246

molecular dipole:
                 x           y           z       tot (Debye)
 q only:       -0.685      -0.384       0.000
   full:       -0.668      -0.352       0.000       1.920

 projected vibrational frequencies (cm⁻¹)
eigval :       -0.00    -0.00     0.00     0.00     0.00     0.00
eigval :       16.61    42.51    67.77    68.60    72.54   109.92
eigval :      120.72   142.47   148.75   193.15   218.37   238.44
eigval :      247.44   279.96   301.39   340.15   351.08   371.03
eigval :      383.43   403.60   413.27   421.98   441.07   474.62
eigval :      515.31   549.26   551.05   556.50   574.11   592.28
eigval :      602.40   616.67   662.23   680.04   697.03   706.78
eigval :      730.07   766.31   777.44   779.76   809.44   818.82
eigval :      837.22   859.79   866.83   872.12   876.96   913.45
eigval :      920.06   920.60   930.12   938.32  1024.44  1057.78
eigval :     1064.39  1084.17  1107.27  1139.76  1146.31  1149.76
eigval :     1177.09  1203.44  1224.38  1234.25  1250.75  1278.85
eigval :     1284.96  1295.53  1315.27  1331.24  1337.14  1360.65
eigval :     1391.71  1406.01  1417.69  1425.36  1453.41  1466.53
eigval :     1479.94  1498.96  1529.92  1545.42  1562.03  1568.98
eigval :     1583.23  1590.36  3083.75  3093.61  3096.53  3101.04
eigval :     3105.81  3107.50  3107.98  3111.18  3112.27  3123.28

   temp. (K)  partition function   enthalpy   heat capacity  entropy
                                   cal/mol     cal/K/mol   cal/K/mol   J/K/mol
 298.15  VIB  0.733E+07            10049.780     65.780     61.204
         ROT  0.262E+08              888.752      2.981     36.927
         INT  0.192E+15            10938.533     68.761     98.132
         TR   0.887E+28             1481.254      4.968     44.102
         TOT                       12419.7866    73.7287   142.2332   595.1036

       T/K    H(0)-H(T)+PV         H(T)/Eh          T*S/Eh         G(T)/Eh
   ------------------------------------------------------------------------
    298.15    0.197922E-01    0.254033E+00    0.675796E-01    0.186453E+00
   ------------------------------------------------------------------------

         :::::::::::::::::::::::::::::::::::::::::::::::::::::
         ::                  THERMODYNAMIC                  ::
         :::::::::::::::::::::::::::::::::::::::::::::::::::::
         :: total free energy         -61.813527542338 Eh   ::
         ::.................................................::
         :: total energy              -61.999980856260 Eh   ::
         :: zero point energy           0.234240699177 Eh   ::
         :: G(RRHO) w/o ZPVE           -0.047787385255 Eh   ::
         :: G(RRHO) contrib.            0.186453313922 Eh   ::
         :::::::::::::::::::::::::::::::::::::::::::::::::::::

           -------------------------------------------------
          | TOTAL ENERGY              -61.999980856260 Eh   |
          | TOTAL ENTHALPY            -61.745947967248 Eh   |
          | TOTAL FREE ENERGY         -61.813527542338 Eh   |
          | GRADIENT NORM               0.000019600956 Eh/α |
          | HOMO-LUMO GAP               1.311066236073 eV   |
           -------------------------------------------------

 * finished run on 2025/09/02 at 18:24:51.124
