   * xtb version 6.7.1 (edcfbbe) compiled by 'albert@albert-system' on 2024-07-22

   ID    Z sym.   atoms
    1   35 Br     1, 12
    2    6 C      2-5, 7-11, 13-21, 23, 24
    3    7 N      6, 22
    4    1 H      25-34

          program call               : xtb data2507/toluene/phenazasiline/phenazasiline_toluene_S0_finalOpt.xtbopt.xyz --gfn 2 --uhf 2 --gbsa toluene --ohess vtight --parallel 40 --molden --ceasefiles --namespace data2507/toluene/phenazasiline/phenazasiline_toluene_T1_preOpt
      * Solvation model:               GBSA
        Solvent                        toluene
        Solvent mass                       9.2140E+01 g/mol
          :  Hamiltonian                  GFN2-xTB          :
 * total energy  :   -61.9425418 Eh     change       -0.1001268E-08 Eh
 * total energy  :   -61.9468714 Eh     change       -0.4329600E-02 Eh
 * total energy  :   -61.9483980 Eh     change       -0.1526559E-02 Eh
 * total energy  :   -61.9485545 Eh     change       -0.1564819E-03 Eh
 * total energy  :   -61.9485987 Eh     change       -0.4420835E-04 Eh
 * total energy  :   -61.9486000 Eh     change       -0.1335818E-05 Eh
 * total energy  :   -61.9486002 Eh     change       -0.2157097E-06 Eh
 * total energy  :   -61.9486003 Eh     change       -0.3073623E-07 Eh
   *** GEOMETRY OPTIMIZATION CONVERGED AFTER 8 ITERATIONS ***

 final structure:
================
34
 xtb: 6.7.1 (edcfbbe)
Br           6.64553767814582        0.41714540663093        0.00110340403827
C            4.75780794299034        0.70561863746163       -0.00151051197279
C            4.26874238310886        2.00088797546693       -0.00311792396621
C            2.90013354399918        2.20884299653211       -0.00481837464480
C            2.00420847128016        1.14183153466383       -0.00476835348018
N            0.68848438394555        1.28915913321101       -0.00592206304681
C           -0.16319875669966        0.27681094839930       -0.00498715429839
C           -1.57446014474356        0.47700060768073       -0.00533626948569
C           -2.07423113637099        1.79246696694389       -0.00811515366117
C           -3.42125541509049        2.03777437215303       -0.00809482922734
C           -4.29567897257872        0.95013686243765       -0.00498040715520
Br          -6.18210163171263        1.27859799007094       -0.00443748059667
C           -3.84260262351121       -0.34666164477190       -0.00238904729100
C           -2.46777957307044       -0.62176238560885       -0.00267910122718
C           -1.94270827017676       -1.96731830558367       -0.00061972433579
C           -2.76011615217057       -3.10799939916664        0.00218763264496
C           -2.22459535176842       -4.37407727550017        0.00349766696750
C           -0.84100977901217       -4.55652442180954        0.00193347026064
C           -0.01204436767741       -3.46501451873317       -0.00047329090997
C           -0.54172397722913       -2.16227085028300       -0.00158201293520
C            0.35931821013076       -1.05411025983775       -0.00323611329398
N            1.66911442002926       -1.21786539712307       -0.00272995627018
C            2.53578581106425       -0.21383736470557       -0.00308369249914
C            3.91413622944548       -0.39466006155462       -0.00156755034161
H            4.94546137945696        2.84028873730923       -0.00300665747589
H            2.49935103737764        3.20994848810768       -0.00604704628163
H           -1.36484517682134        2.60552104013150       -0.01032906763180
H           -3.80395944369846        3.04624485119151       -0.01036497937950
H           -4.56154043619921       -1.14870136126093       -0.00016700485201
H           -3.83254658671832       -3.00315033830086        0.00340428629950
H           -2.87902755582703       -5.23270614154018        0.00570360030754
H           -0.42630925462938       -5.55312355462331        0.00272455002814
H            1.06181425544038       -3.57398977625208       -0.00152275247519
H            4.30537337419223       -1.39955368850301       -0.00028917661826

          :  Hamiltonian                  GFN2-xTB          :
         :: gradient norm              0.000038986558 Eh/a0 ::
         :: HOMO-LUMO gap              1.014911886011 eV    ::
         :: SCC energy               -62.949676286529 Eh    ::
         :: -> dispersion             -0.047966865511 Eh    ::
         :: -> Gsolv                  -0.029429012742 Eh    ::
         :: repulsion energy           1.001076029307 Eh    ::

    * Orbital Energies and Occupations

         #    Occupation            Energy/Eh            Energy/eV
      -------------------------------------------------------------
         1        2.0000           -0.8451449             -22.9976
       ...           ...                  ...                  ...
        46        2.0000           -0.4514019             -12.2833
        47        2.0000           -0.4434241             -12.0662
        48        2.0000           -0.4415510             -12.0152
        49        2.0000           -0.4339349             -11.8080
        50        2.0000           -0.4329397             -11.7809
        51        2.0000           -0.4190485             -11.4029
        52        2.0000           -0.4175260             -11.3615
        53        2.0000           -0.4152262             -11.2989
        54        2.0000           -0.4127814             -11.2324
        55        2.0000           -0.4072983             -11.0831
        56        2.0000           -0.3997004             -10.8764
        57        1.0000           -0.3797954             -10.3348
        58        1.0000           -0.3263654              -8.8809 (HOMO)
        59                         -0.2890681              -7.8659 (LUMO)
        60                         -0.2709132              -7.3719
        61                         -0.2455137              -6.6808
        62                         -0.2378711              -6.4728
        63                         -0.2200208              -5.9871
        64                         -0.2125632              -5.7841
        65                         -0.2124131              -5.7801
        66                         -0.2119556              -5.7676
        67                         -0.1745017              -4.7484
        68                         -0.1275459              -3.4707
        69                         -0.1078893              -2.9358
       ...                                ...                  ...
       116                          0.6924082              18.8414
      -------------------------------------------------------------
                  HL-Gap            0.0372974 Eh            1.0149 eV

     #   Z          covCN         q      C6AA      α(0)
     1  35 Br       1.066    -0.180   190.028    22.227
     2   6 C        2.912     0.079    26.241     8.400
     3   6 C        2.984    -0.038    28.940     8.824
     4   6 C        2.920    -0.055    29.360     8.886
     5   6 C        2.936     0.088    26.047     8.370
     6   7 N        1.851    -0.194    26.042     7.563
     7   6 C        2.940     0.081    26.190     8.393
     8   6 C        2.985    -0.004    28.122     8.699
     9   6 C        2.928    -0.026    28.647     8.778
    10   6 C        2.980    -0.034    28.841     8.809
    11   6 C        2.914     0.084    26.131     8.382
    12  35 Br       1.062    -0.186   190.201    22.237
    13   6 C        2.994    -0.038    28.927     8.823
    14   6 C        2.979     0.007    27.854     8.657
    15   6 C        2.976     0.007    27.869     8.659
    16   6 C        2.920    -0.030    28.751     8.793
    17   6 C        2.917    -0.025    28.624     8.773
    18   6 C        2.916    -0.026    28.642     8.776
    19   6 C        2.924    -0.025    28.635     8.775
    20   6 C        2.987    -0.001    28.041     8.686
    21   6 C        2.940     0.085    26.110     8.380
    22   7 N        1.851    -0.194    26.030     7.562
    23   6 C        2.939     0.090    26.005     8.364
    24   6 C        2.990    -0.063    29.546     8.916
    25   1 H        0.926     0.064     2.148     2.292
    26   1 H        0.926     0.068     2.102     2.267
    27   1 H        0.926     0.063     2.169     2.303
    28   1 H        0.926     0.063     2.168     2.302
    29   1 H        0.926     0.066     2.133     2.284
    30   1 H        0.926     0.051     2.310     2.377
    31   1 H        0.926     0.050     2.323     2.383
    32   1 H        0.926     0.051     2.306     2.375
    33   1 H        0.926     0.053     2.289     2.366
    34   1 H        0.926     0.070     2.087     2.259

molecular dipole:
                 x           y           z       tot (Debye)
 q only:       -0.604      -0.690      -0.000
   full:       -0.580      -0.623      -0.001       2.164

 projected vibrational frequencies (cm⁻¹)
eigval :       -0.00     0.00     0.00     0.00     0.00     0.00
eigval :       17.49    46.48    57.55    66.59    80.38   119.25
eigval :      120.37   140.29   147.23   193.87   215.60   229.64
eigval :      246.23   272.24   300.48   324.78   346.01   368.00
eigval :      384.20   403.56   413.34   414.59   446.11   475.35
eigval :      513.65   527.98   540.58   542.97   570.77   590.35
eigval :      604.75   609.75   610.31   661.57   666.12   676.19
eigval :      707.33   717.84   768.18   776.98   786.06   788.53
eigval :      811.59   827.54   853.68   862.13   868.49   869.62
eigval :      908.24   910.79   911.19   919.93  1009.29  1054.69
eigval :     1080.61  1081.41  1103.99  1128.23  1141.21  1149.35
eigval :     1176.51  1211.39  1216.95  1226.23  1235.51  1245.99
eigval :     1266.34  1287.33  1293.69  1318.38  1334.91  1351.72
eigval :     1359.17  1383.25  1401.71  1405.53  1412.35  1456.32
eigval :     1466.34  1485.53  1518.46  1522.09  1526.75  1543.50
eigval :     1559.69  1583.48  3084.07  3090.06  3096.47  3098.72
eigval :     3098.78  3103.82  3106.76  3110.51  3111.57  3123.73

   temp. (K)  partition function   enthalpy   heat capacity  entropy
                                   cal/mol     cal/K/mol   cal/K/mol   J/K/mol
 298.15  VIB  0.780E+07            10203.047     66.928     61.923
         ROT  0.264E+08              888.752      2.981     36.939
         INT  0.206E+15            11091.800     69.909     98.862
         TR   0.887E+28             1481.254      4.968     44.102
         TOT                       12573.0535    74.8772   142.9637   598.1600

       T/K    H(0)-H(T)+PV         H(T)/Eh          T*S/Eh         G(T)/Eh
   ------------------------------------------------------------------------
    298.15    0.200364E-01    0.251943E+00    0.679266E-01    0.184016E+00
   ------------------------------------------------------------------------

         :::::::::::::::::::::::::::::::::::::::::::::::::::::
         ::                  THERMODYNAMIC                  ::
         :::::::::::::::::::::::::::::::::::::::::::::::::::::
         :: total free energy         -61.764584073327 Eh   ::
         ::.................................................::
         :: total energy              -61.948600255737 Eh   ::
         :: zero point energy           0.231906396202 Eh   ::
         :: G(RRHO) w/o ZPVE           -0.047890213792 Eh   ::
         :: G(RRHO) contrib.            0.184016182411 Eh   ::
         :::::::::::::::::::::::::::::::::::::::::::::::::::::

           -------------------------------------------------
          | TOTAL ENERGY              -61.948600255737 Eh   |
          | TOTAL ENTHALPY            -61.696657423431 Eh   |
          | TOTAL FREE ENERGY         -61.764584073327 Eh   |
          | GRADIENT NORM               0.000039236028 Eh/α |
          | HOMO-LUMO GAP               1.014913191847 eV   |
           -------------------------------------------------

 * finished run on 2025/09/02 at 18:26:11.402
