   * xtb version 6.7.1 (edcfbbe) compiled by 'albert@albert-system' on 2024-07-22

   ID    Z sym.   atoms
    1   35 Br     1, 12
    2    6 C      2-5, 7-11, 13-21, 23, 24
    3    7 N      6, 22
    4    1 H      25-34

          program call               : xtb data2507/toluene/phenazasiline/phenazasiline_toluene_S0_crest.xyz --gfn 2 --gbsa toluene --ohess vtight --parallel 40 --molden --ceasefiles --namespace data2507/toluene/phenazasiline/phenazasiline_toluene_S0_finalOpt
      * Solvation model:               GBSA
        Solvent                        toluene
        Solvent mass                       9.2140E+01 g/mol
          :  Hamiltonian                  GFN2-xTB          :
 * total energy  :   -62.0000168 Eh     change       -0.1591097E-08 Eh
 * total energy  :   -62.0000318 Eh     change       -0.1498762E-04 Eh
 * total energy  :   -62.0000341 Eh     change       -0.2289827E-05 Eh
 * total energy  :   -62.0000348 Eh     change       -0.6829232E-06 Eh
 * total energy  :   -62.0000351 Eh     change       -0.2980881E-06 Eh
 * total energy  :   -62.0000353 Eh     change       -0.2376911E-06 Eh
 * total energy  :   -62.0000355 Eh     change       -0.2045983E-06 Eh
 * total energy  :   -62.0000356 Eh     change       -0.8849674E-07 Eh
   *** GEOMETRY OPTIMIZATION CONVERGED AFTER 8 ITERATIONS ***

 final structure:
================
34
 xtb: 6.7.1 (edcfbbe)
Br           6.61851082167195        0.43113914587399        0.00154538905767
C            4.72526873478815        0.67913531731762       -0.00116360413949
C            4.22874616190123        1.99664963985058       -0.00236807043766
C            2.88154544704527        2.21355192097236       -0.00416130009860
C            1.98764694359037        1.11968241459033       -0.00459927601077
N            0.66467417712829        1.33505106520741       -0.00589572086237
C           -0.13671437585659        0.28599607762098       -0.00531943458973
C           -1.56718112128951        0.49649526886007       -0.00576302818304
C           -2.06802841722051        1.80254507950634       -0.00934565597645
C           -3.42129581088719        2.04480795320248       -0.00915842679973
C           -4.28316323964987        0.95464008987955       -0.00482830494558
Br          -6.17208330553406        1.26291055686736       -0.00371218319094
C           -3.82004390494716       -0.34247886548310       -0.00148418792309
C           -2.44559930289982       -0.60628813966501       -0.00218795235016
C           -1.91716995539553       -1.96411035911861       -0.00004687794048
C           -2.74295383914958       -3.09430098490534        0.00338603390834
C           -2.21664729897148       -4.36869850435289        0.00402367455959
C           -0.83998823356839       -4.56356340977011        0.00111567938313
C           -0.00305089131095       -3.47130976012545       -0.00166087786044
C           -0.52260983548967       -2.17304393685654       -0.00201050304824
C            0.38378215926537       -1.04615360320498       -0.00369555540773
N            1.68489833444606       -1.26882063367947       -0.00298465024406
C            2.50705250687349       -0.20932989887937       -0.00325906803861
C            3.90381262681474       -0.41124417373670       -0.00165560879562
H            4.92317009633427        2.82263807448173       -0.00188453405081
H            2.47203664369302        3.21140084545386       -0.00509665797819
H           -1.36076363312435        2.61657793443152       -0.01228977843819
H           -3.80868498143210        3.05146146523558       -0.01210653074735
H           -4.53640620021625       -1.14672725713629        0.00155556415702
H           -3.81491191339559       -2.98513924211456        0.00564705260936
H           -2.88136740680339       -5.21965093463798        0.00670427618379
H           -0.43210423592908       -5.56285778334796        0.00121599191366
H            1.06954592453804       -3.58525096807812       -0.00357515213200
H            4.28370175308079       -1.42079929445925       -0.00061491298323

          :  Hamiltonian                  GFN2-xTB          :
         :: gradient norm              0.000063506881 Eh/a0 ::
         :: HOMO-LUMO gap              1.310960293905 eV    ::
         :: SCC energy               -62.993186969281 Eh    ::
         :: -> dispersion             -0.048092941111 Eh    ::
         :: -> Gsolv                  -0.030038317725 Eh    ::
         :: repulsion energy           0.993151332506 Eh    ::

    * Orbital Energies and Occupations

         #    Occupation            Energy/Eh            Energy/eV
      -------------------------------------------------------------
         1        2.0000           -0.8491659             -23.1070
       ...           ...                  ...                  ...
        45        2.0000           -0.4514392             -12.2843
        46        2.0000           -0.4432661             -12.0619
        47        2.0000           -0.4414591             -12.0127
        48        2.0000           -0.4370303             -11.8922
        49        2.0000           -0.4357176             -11.8565
        50        2.0000           -0.4294631             -11.6863
        51        2.0000           -0.4233664             -11.5204
        52        2.0000           -0.4193214             -11.4103
        53        2.0000           -0.4162734             -11.3274
        54        2.0000           -0.4151104             -11.2957
        55        2.0000           -0.4085403             -11.1169
        56        2.0000           -0.4018560             -10.9351
        57        2.0000           -0.3701818             -10.0732 (HOMO)
        58                         -0.3220050              -8.7622 (LUMO)
        59                         -0.2861937              -7.7877
        60                         -0.2721715              -7.4062
        61                         -0.2481205              -6.7517
        62                         -0.2390206              -6.5041
        63                         -0.2237958              -6.0898
        64                         -0.2179536              -5.9308
        65                         -0.2144451              -5.8353
        66                         -0.2141154              -5.8264
        67                         -0.1751003              -4.7647
        68                         -0.1277654              -3.4767
       ...                                ...                  ...
       116                          0.6943257              18.8936
      -------------------------------------------------------------
                  HL-Gap            0.0481769 Eh            1.3110 eV

     #   Z          covCN         q      C6AA      α(0)
     1  35 Br       1.070    -0.165   189.616    22.202
     2   6 C        2.914     0.086    26.094     8.376
     3   6 C        2.985    -0.031    28.764     8.798
     4   6 C        2.919    -0.039    28.969     8.826
     5   6 C        2.965     0.080    26.206     8.397
     6   7 N        1.848    -0.248    27.309     7.745
     7   6 C        2.960     0.086    26.079     8.376
     8   6 C        2.986    -0.005    28.144     8.702
     9   6 C        2.928    -0.025    28.621     8.774
    10   6 C        2.983    -0.032    28.791     8.802
    11   6 C        2.916     0.088    26.038     8.368
    12  35 Br       1.065    -0.179   190.012    22.226
    13   6 C        2.996    -0.038    28.945     8.825
    14   6 C        2.978     0.012    27.748     8.641
    15   6 C        2.976     0.009    27.823     8.652
    16   6 C        2.922    -0.031    28.765     8.795
    17   6 C        2.918    -0.022    28.556     8.763
    18   6 C        2.916    -0.024    28.599     8.769
    19   6 C        2.923    -0.025    28.622     8.773
    20   6 C        2.987    -0.003    28.102     8.696
    21   6 C        2.960     0.088    26.039     8.370
    22   7 N        1.848    -0.250    27.358     7.752
    23   6 C        2.969     0.083    26.139     8.386
    24   6 C        2.994    -0.048    29.185     8.862
    25   1 H        0.926     0.071     2.072     2.251
    26   1 H        0.926     0.071     2.073     2.251
    27   1 H        0.926     0.072     2.061     2.245
    28   1 H        0.926     0.064     2.151     2.293
    29   1 H        0.926     0.068     2.112     2.273
    30   1 H        0.926     0.052     2.300     2.371
    31   1 H        0.926     0.051     2.302     2.373
    32   1 H        0.926     0.051     2.312     2.378
    33   1 H        0.926     0.061     2.189     2.314
    34   1 H        0.926     0.072     2.064     2.246

molecular dipole:
                 x           y           z       tot (Debye)
 q only:       -0.524      -0.585      -0.000
   full:       -0.518      -0.550      -0.001       1.919

 projected vibrational frequencies (cm⁻¹)
eigval :       -0.00    -0.00    -0.00     0.00     0.00     0.00
eigval :       15.67    42.07    53.09    68.17    76.74   112.97
eigval :      120.66   147.09   149.12   198.93   218.06   246.60
eigval :      247.08   282.54   302.34   344.29   351.45   374.13
eigval :      383.57   406.37   413.62   423.61   440.15   474.73
eigval :      512.35   550.80   551.04   556.62   574.56   592.60
eigval :      602.93   617.38   663.05   680.22   697.44   706.71
eigval :      730.87   767.22   777.96   779.98   810.03   822.07
eigval :      837.42   858.45   867.16   872.58   875.86   912.88
eigval :      919.25   919.73   930.13   938.50  1024.82  1058.01
eigval :     1064.65  1085.00  1108.75  1140.82  1149.45  1151.95
eigval :     1177.56  1204.90  1225.74  1235.21  1251.77  1279.27
eigval :     1285.74  1296.67  1315.47  1331.63  1337.47  1360.92
eigval :     1391.73  1406.02  1418.18  1425.67  1453.69  1466.94
eigval :     1480.43  1499.45  1530.17  1545.59  1561.79  1569.36
eigval :     1583.47  1590.55  3084.15  3094.22  3097.12  3101.46
eigval :     3105.32  3107.94  3109.06  3111.76  3115.67  3123.30

   temp. (K)  partition function   enthalpy   heat capacity  entropy
                                   cal/mol     cal/K/mol   cal/K/mol   J/K/mol
 298.15  VIB  0.842E+07            10031.921     65.514     61.060
         ROT  0.262E+08              888.752      2.981     36.927
         INT  0.221E+15            10920.674     68.495     97.987
         TR   0.887E+28             1481.254      4.968     44.102
         TOT                       12401.9275    73.4628   142.0883   594.4975

       T/K    H(0)-H(T)+PV         H(T)/Eh          T*S/Eh         G(T)/Eh
   ------------------------------------------------------------------------
    298.15    0.197637E-01    0.254136E+00    0.675107E-01    0.186626E+00
   ------------------------------------------------------------------------

         :::::::::::::::::::::::::::::::::::::::::::::::::::::
         ::                  THERMODYNAMIC                  ::
         :::::::::::::::::::::::::::::::::::::::::::::::::::::
         :: total free energy         -61.813410012993 Eh   ::
         ::.................................................::
         :: total energy              -62.000035636171 Eh   ::
         :: zero point energy           0.234372637497 Eh   ::
         :: G(RRHO) w/o ZPVE           -0.047747014319 Eh   ::
         :: G(RRHO) contrib.            0.186625623178 Eh   ::
         :::::::::::::::::::::::::::::::::::::::::::::::::::::

           -------------------------------------------------
          | TOTAL ENERGY              -62.000035636171 Eh   |
          | TOTAL ENTHALPY            -61.745899269235 Eh   |
          | TOTAL FREE ENERGY         -61.813410012993 Eh   |
          | GRADIENT NORM               0.000063323338 Eh/α |
          | HOMO-LUMO GAP               1.310959470636 eV   |
           -------------------------------------------------

 * finished run on 2025/09/02 at 18:26:10.041
