   * xtb version 6.7.1 (edcfbbe) compiled by 'albert@albert-system' on 2024-07-22

   ID    Z sym.   atoms
    1    6 C      1-5, 7-10, 12-17, 19-26, 28-36
    2    7 N      6, 11, 27
    3    8 O      18
    4    1 H      37-57

          program call               : xtb data2507/toluene/SBDBQ-PXZ/SBDBQ-PXZ_toluene_S0_finalOpt.xtbopt.xyz --gfn 2 --uhf 2 --gbsa toluene --ohess vtight --parallel 40 --molden --ceasefiles --namespace data2507/toluene/SBDBQ-PXZ/SBDBQ-PXZ_toluene_T1_preOpt
      * Solvation model:               GBSA
        Solvent                        toluene
        Solvent mass                       9.2140E+01 g/mol
          :  Hamiltonian                  GFN2-xTB          :
 * total energy  :   -92.0612853 Eh     change       -0.3486574E-07 Eh
 * total energy  :   -92.0644362 Eh     change       -0.3150809E-02 Eh
 * total energy  :   -92.0653643 Eh     change       -0.9281144E-03 Eh
 * total energy  :   -92.0654862 Eh     change       -0.1219056E-03 Eh
 * total energy  :   -92.0655556 Eh     change       -0.6943656E-04 Eh
 * total energy  :   -92.0655775 Eh     change       -0.2186450E-04 Eh
 * total energy  :   -92.0656066 Eh     change       -0.2912996E-04 Eh
 * total energy  :   -92.0656365 Eh     change       -0.2988498E-04 Eh
 * total energy  :   -92.0656604 Eh     change       -0.2392073E-04 Eh
 * total energy  :   -92.0656734 Eh     change       -0.1295065E-04 Eh
 * total energy  :   -92.0657269 Eh     change       -0.2875603E-06 Eh
 * total energy  :   -92.0657273 Eh     change       -0.3889100E-06 Eh
 * total energy  :   -92.0657278 Eh     change       -0.4394556E-06 Eh
 * total energy  :   -92.0657281 Eh     change       -0.3170170E-06 Eh
 * total energy  :   -92.0657283 Eh     change       -0.2050115E-06 Eh
 * total energy  :   -92.0657285 Eh     change       -0.2000521E-06 Eh
 * total energy  :   -92.0657287 Eh     change       -0.2591192E-06 Eh
 * total energy  :   -92.0657290 Eh     change       -0.2153194E-06 Eh
 * total energy  :   -92.0657290 Eh     change       -0.8705628E-07 Eh
   *** GEOMETRY OPTIMIZATION CONVERGED AFTER 40 ITERATIONS ***

 final structure:
================
57
 xtb: 6.7.1 (edcfbbe)
C           -6.93982778995729        1.72985281705685        1.64349349326645
C           -6.03077969571384        2.72161648826446        1.31098063660509
C           -4.75001833359750        2.38683679909131        0.91560159875912
C           -4.36217828343732        1.04863802060866        0.83407984699293
C           -2.99228839029191        0.72373288093914        0.43674136513401
N           -2.01916055937340        1.49812130287463        0.91900773255216
C           -0.73275281050130        1.21866481972791        0.71505633192510
C            0.29640555675880        2.02189820934834        1.20689810656341
C            1.62560939951081        1.67206155928709        1.02323049151316
C            1.95137454278703        0.51385661765168        0.33302885591209
N            3.31320448985238        0.15589755312451        0.15454508671701
C            3.83314621486386       -0.96051501909011        0.79439324510856
C            3.06388654423503       -1.76068369904320        1.63659579580199
C            3.61569498992432       -2.86946791942527        2.25352527844340
C            4.94562918595907       -3.19755234998297        2.05113350543334
C            5.73299537055997       -2.40093055851908        1.23574321705783
C            5.18836806411003       -1.28900655182703        0.61560457561110
O            6.02513444800846       -0.53147579256994       -0.15897364411496
C            5.49768234659755        0.56842899477744       -0.78035520473022
C            6.35224778256471        1.32198027699683       -1.56750731062543
C            5.87616299582403        2.43406735885306       -2.24261015459933
C            4.53899617843679        2.77940989312423       -2.13960039957902
C            3.67947256761038        2.03262366067841       -1.35372630985819
C            4.14445948871456        0.92535487655649       -0.64729146319394
C            0.94878442928568       -0.30566703266890       -0.19168077132179
C           -0.39109756648344        0.02153396386295       -0.01894916168410
N           -1.37944974105967       -0.70958508589764       -0.54232226161744
C           -2.65937676839828       -0.37568864880100       -0.37834818117900
C           -3.65566943166477       -1.17677474319329       -1.09015771814150
C           -4.74851811327407       -0.58583340090117       -1.72543952490211
C           -5.65854864882816       -1.36442221733212       -2.41378913271380
C           -5.49133300144927       -2.73898028982039       -2.48646587358486
C           -4.39572497817027       -3.33080395561411       -1.87820001611148
C           -3.48033221492163       -2.55770341425521       -1.19027453524979
C           -5.27582131024225        0.05748406227387        1.19436090557511
C           -6.55389870473202        0.39914540134048        1.59170258849111
H           -7.94165303034808        1.99212793494838        1.94995577185085
H           -6.32098235132402        3.76119401585668        1.36071255993692
H           -4.03468743789738        3.15372293374746        0.65717443669417
H            0.03198928699415        2.91085917517746        1.75718919568643
H            2.40932997968506        2.29666685890319        1.42446519063036
H            2.02997236807541       -1.50567398505090        1.80549474272078
H            2.99850377965199       -3.47559145231273        2.89831708470812
H            5.37482146352372       -4.06342917371738        2.52949597992694
H            6.77552148934562       -2.62045531735001        1.06892952345293
H            7.38417187109091        1.01705478513435       -1.63898466762373
H            6.54718779569119        3.01859582285504       -2.85158993224103
H            4.15603003176884        3.63466857323518       -2.67426553429015
H            2.63721263513249        2.30066886504691       -1.28476829598157
H            1.20199292835822       -1.18768935401493       -0.75867564462638
H           -4.87517500565344        0.48636388484084       -1.68668524164426
H           -6.50046757111228       -0.89510857558267       -2.90167517820432
H           -6.20768848913741       -3.34449763167476       -3.02173559407878
H           -4.25346408482429       -4.40004413062912       -1.94101168306192
H           -2.62272794599601       -3.01048049012351       -0.71487183525663
H           -4.97709424452608       -0.98040178922823        1.17279514021080
H           -7.25152493755211       -0.37796890479059        1.86832309980696

          :  Hamiltonian                  GFN2-xTB          :
         :: gradient norm              0.000088560091 Eh/a0 ::
         :: HOMO-LUMO gap              0.884784595344 eV    ::
         :: SCC energy               -93.701383258468 Eh    ::
         :: -> dispersion             -0.077180895944 Eh    ::
         :: -> Gsolv                  -0.040124333269 Eh    ::
         :: repulsion energy           1.635654210132 Eh    ::

    * Orbital Energies and Occupations

         #    Occupation            Energy/Eh            Energy/eV
      -------------------------------------------------------------
         1        2.0000           -0.7469081             -20.3244
       ...           ...                  ...                  ...
        74        2.0000           -0.4259053             -11.5895
        75        2.0000           -0.4252040             -11.5704
        76        2.0000           -0.4193640             -11.4115
        77        2.0000           -0.4174240             -11.3587
        78        2.0000           -0.4127919             -11.2326
        79        2.0000           -0.4077350             -11.0950
        80        2.0000           -0.4049164             -11.0183
        81        2.0000           -0.4033213             -10.9749
        82        2.0000           -0.3923210             -10.6756
        83        2.0000           -0.3873227             -10.5396
        84        1.7958           -0.3555838              -9.6759
        85        1.2042           -0.3529997              -9.6056
        86        1.0000           -0.2931018              -7.9757 (HOMO)
        87                         -0.2605865              -7.0909 (LUMO)
        88                         -0.2524046              -6.8683
        89                         -0.2412774              -6.5655
        90                         -0.2283984              -6.2150
        91                         -0.2276946              -6.1959
        92                         -0.2220960              -6.0435
        93                         -0.2210216              -6.0143
        94                         -0.2173510              -5.9144
        95                         -0.2074352              -5.6446
        96                         -0.2025646              -5.5121
        97                         -0.1568720              -4.2687
       ...                                ...                  ...
       165                          0.6927527              18.8508
      -------------------------------------------------------------
                  HL-Gap            0.0325153 Eh            0.8848 eV

     #   Z          covCN         q      C6AA      α(0)
     1   6 C        2.919    -0.032    28.790     8.799
     2   6 C        2.918    -0.030    28.740     8.791
     3   6 C        2.925    -0.030    28.755     8.794
     4   6 C        2.978     0.006    27.879     8.661
     5   6 C        2.931     0.073    26.365     8.421
     6   7 N        1.852    -0.250    27.368     7.754
     7   6 C        2.938     0.086    26.090     8.377
     8   6 C        2.918    -0.068    29.691     8.935
     9   6 C        2.916    -0.051    29.268     8.871
    10   6 C        2.918     0.045    26.985     8.519
    11   7 N        2.752    -0.039    22.001     6.966
    12   6 C        2.924     0.047    26.956     8.514
    13   6 C        2.922    -0.053    29.307     8.878
    14   6 C        2.918    -0.032    28.810     8.802
    15   6 C        2.919    -0.033    28.823     8.804
    16   6 C        2.917    -0.054    29.336     8.882
    17   6 C        2.884     0.128    25.201     8.230
    18   8 O        1.709    -0.241    17.991     5.727
    19   6 C        2.884     0.128    25.203     8.230
    20   6 C        2.917    -0.054    29.331     8.881
    21   6 C        2.919    -0.033    28.826     8.804
    22   6 C        2.918    -0.032    28.809     8.802
    23   6 C        2.922    -0.053    29.313     8.879
    24   6 C        2.924     0.046    26.963     8.515
    25   6 C        2.919    -0.077    29.933     8.972
    26   6 C        2.938     0.087    26.061     8.372
    27   7 N        1.852    -0.253    27.446     7.765
    28   6 C        2.931     0.074    26.336     8.416
    29   6 C        2.979     0.006    27.875     8.660
    30   6 C        2.922    -0.034    28.835     8.806
    31   6 C        2.918    -0.029    28.729     8.789
    32   6 C        2.919    -0.031    28.784     8.798
    33   6 C        2.918    -0.030    28.737     8.791
    34   6 C        2.925    -0.030    28.753     8.794
    35   6 C        2.922    -0.034    28.844     8.807
    36   6 C        2.918    -0.029    28.732     8.790
    37   1 H        0.926     0.037     2.487     2.466
    38   1 H        0.926     0.037     2.484     2.465
    39   1 H        0.926     0.037     2.490     2.468
    40   1 H        0.926     0.045     2.382     2.413
    41   1 H        0.926     0.040     2.449     2.447
    42   1 H        0.926     0.048     2.350     2.397
    43   1 H        0.926     0.051     2.302     2.372
    44   1 H        0.926     0.055     2.263     2.352
    45   1 H        0.926     0.060     2.194     2.316
    46   1 H        0.926     0.060     2.195     2.317
    47   1 H        0.926     0.055     2.264     2.353
    48   1 H        0.926     0.052     2.295     2.369
    49   1 H        0.926     0.048     2.343     2.394
    50   1 H        0.926     0.044     2.392     2.418
    51   1 H        0.926     0.026     2.643     2.542
    52   1 H        0.926     0.036     2.506     2.475
    53   1 H        0.926     0.037     2.483     2.464
    54   1 H        0.926     0.038     2.478     2.462
    55   1 H        0.926     0.038     2.480     2.463
    56   1 H        0.926     0.026     2.646     2.544
    57   1 H        0.926     0.036     2.509     2.477

molecular dipole:
                 x           y           z       tot (Debye)
 q only:        1.328      -0.205      -0.096
   full:        1.288      -0.162      -0.077       3.306

 projected vibrational frequencies (cm⁻¹)
eigval :       -0.00    -0.00    -0.00    -0.00    -0.00     0.00
eigval :       17.98    20.08    25.60    43.36    46.96    51.74
eigval :       62.34    64.41    81.50    85.89   112.53   139.72
eigval :      144.24   169.20   180.66   215.69   234.91   245.97
eigval :      254.30   256.44   268.19   288.10   299.75   339.06
eigval :      356.29   372.31   379.84   381.19   395.00   404.34
eigval :      427.02   431.06   442.75   456.80   463.85   501.65
eigval :      509.53   510.59   524.45   542.23   547.94   552.85
eigval :      573.61   581.42   586.79   589.54   615.38   617.36
eigval :      629.36   660.88   666.11   667.40   668.93   669.43
eigval :      683.86   689.90   711.08   755.08   758.42   776.28
eigval :      777.53   786.02   786.80   792.54   828.49   848.60
eigval :      854.79   864.46   865.70   869.91   870.89   872.51
eigval :      896.77   900.27   900.68   901.55   913.67   915.28
eigval :      917.73   922.51   925.24   926.06   928.09   932.54
eigval :      971.51   990.66  1006.39  1078.47  1080.34  1083.76
eigval :     1086.00  1101.49  1111.03  1114.69  1117.36  1117.76
eigval :     1128.02  1161.67  1171.24  1177.52  1177.60  1178.07
eigval :     1189.00  1194.62  1197.25  1204.28  1218.53  1229.72
eigval :     1237.31  1252.87  1259.58  1265.89  1275.42  1279.17
eigval :     1280.75  1295.97  1307.17  1309.82  1317.04  1319.17
eigval :     1322.12  1339.44  1352.84  1390.96  1410.06  1417.62
eigval :     1427.26  1427.80  1439.55  1446.33  1457.93  1468.54
eigval :     1471.42  1483.37  1503.64  1521.35  1557.12  1564.48
eigval :     1569.46  1569.73  1574.09  1585.99  1586.52  1588.27
eigval :     3070.86  3071.10  3072.54  3072.99  3080.98  3081.30
eigval :     3084.84  3086.46  3086.47  3092.11  3092.41  3093.40
eigval :     3093.73  3097.17  3100.27  3101.65  3101.93  3108.07
eigval :     3110.52  3113.17  3114.20

   temp. (K)  partition function   enthalpy   heat capacity  entropy
                                   cal/mol     cal/K/mol   cal/K/mol   J/K/mol
 298.15  VIB  0.351E+12            15800.165    103.209     96.633
         ROT  0.372E+08              888.752      2.981     37.622
         INT  0.131E+20            16688.918    106.190    134.255
         TR   0.966E+28             1481.254      4.968     44.270
         TOT                       18170.1716   111.1577   178.5247   746.9473

       T/K    H(0)-H(T)+PV         H(T)/Eh          T*S/Eh         G(T)/Eh
   ------------------------------------------------------------------------
    298.15    0.289560E-01    0.456424E+00    0.848228E-01    0.371602E+00
   ------------------------------------------------------------------------

         :::::::::::::::::::::::::::::::::::::::::::::::::::::
         ::                  THERMODYNAMIC                  ::
         :::::::::::::::::::::::::::::::::::::::::::::::::::::
         :: total free energy         -91.694127416478 Eh   ::
         ::.................................................::
         :: total energy              -92.065729048327 Eh   ::
         :: zero point energy           0.427468464574 Eh   ::
         :: G(RRHO) w/o ZPVE           -0.055866832726 Eh   ::
         :: G(RRHO) contrib.            0.371601631848 Eh   ::
         :::::::::::::::::::::::::::::::::::::::::::::::::::::

           -------------------------------------------------
          | TOTAL ENERGY              -92.065729048327 Eh   |
          | TOTAL ENTHALPY            -91.609304572132 Eh   |
          | TOTAL FREE ENERGY         -91.694127416478 Eh   |
          | GRADIENT NORM               0.000083354182 Eh/α |
          | HOMO-LUMO GAP               0.884786589078 eV   |
           -------------------------------------------------

 * finished run on 2025/08/30 at 12:44:39.499
