   * xtb version 6.7.1 (edcfbbe) compiled by 'albert@albert-system' on 2024-07-22

   ID    Z sym.   atoms
    1    6 C      1-5, 7-10, 12-17, 19-26, 28-36
    2    7 N      6, 11, 27
    3    8 O      18
    4    1 H      37-57

          program call               : xtb data2507/toluene/SBDBQ-PXZ/SBDBQ-PXZ.xyz --gfn 2 --gbsa toluene --ohess vtight --parallel 40 --molden --ceasefiles --namespace data2507/toluene/SBDBQ-PXZ/SBDBQ-PXZ_toluene_S0_preOpt
      * Solvation model:               GBSA
        Solvent                        toluene
        Solvent mass                       9.2140E+01 g/mol
          :  Hamiltonian                  GFN2-xTB          :
 * total energy  :   -92.1033402 Eh     change       -0.1709310E-08 Eh
 * total energy  :   -92.1145479 Eh     change       -0.1120764E-01 Eh
 * total energy  :   -92.1183409 Eh     change       -0.3792990E-02 Eh
 * total energy  :   -92.1192368 Eh     change       -0.8959098E-03 Eh
 * total energy  :   -92.1198996 Eh     change       -0.6628323E-03 Eh
 * total energy  :   -92.1200749 Eh     change       -0.1752958E-03 Eh
 * total energy  :   -92.1202001 Eh     change       -0.1252243E-03 Eh
 * total energy  :   -92.1203174 Eh     change       -0.1172870E-03 Eh
 * total energy  :   -92.1204251 Eh     change       -0.1076657E-03 Eh
 * total energy  :   -92.1205140 Eh     change       -0.8895815E-04 Eh
 * total energy  :   -92.1217068 Eh     change       -0.3174843E-06 Eh
 * total energy  :   -92.1217071 Eh     change       -0.2794172E-06 Eh
 * total energy  :   -92.1217073 Eh     change       -0.2561505E-06 Eh
 * total energy  :   -92.1217076 Eh     change       -0.2527140E-06 Eh
 * total energy  :   -92.1217079 Eh     change       -0.2757991E-06 Eh
 * total energy  :   -92.1217082 Eh     change       -0.3031770E-06 Eh
 * total energy  :   -92.1217085 Eh     change       -0.3177021E-06 Eh
 * total energy  :   -92.1217088 Eh     change       -0.3146957E-06 Eh
 * total energy  :   -92.1217088 Eh     change       -0.1791179E-08 Eh
   *** GEOMETRY OPTIMIZATION CONVERGED AFTER 122 ITERATIONS ***

 final structure:
================
57
 xtb: 6.7.1 (edcfbbe)
C           -6.68864283230155       -1.99964334142945        1.23504052092223
C           -5.82178367631028       -1.85017922063944        2.30568130996865
C           -4.53024021933210       -1.40515034548003        2.09487668152756
C           -4.09649178020104       -1.08789081999211        0.80927674642819
C           -2.71760894053851       -0.62717296332891        0.60518043420393
N           -1.78440779690603       -1.24048291881530        1.29617273096048
C           -0.49485219068612       -0.93538548697739        1.06044880071620
C            0.53233646457842       -1.56895928778675        1.78898150441507
C            1.83843742510366       -1.31137963392370        1.48540385787377
C            2.17932232889495       -0.41287969611374        0.44864207086855
N            3.54278094930490       -0.17486147928329        0.17272352643408
C            4.35663438769087       -1.21283467695461       -0.28894932232076
C            3.85435691132464       -2.47679065533054       -0.57455444972854
C            4.68742293974414       -3.48502347818224       -1.03624807592121
C            6.03228215883806       -3.24428690561224       -1.23314480674973
C            6.54391573284259       -1.97919062262205       -0.98169621535069
C            5.71715019856634       -0.97118369927972       -0.52125004493262
O            6.29072191667405        0.26271088511210       -0.32195028116677
C            5.47166425164080        1.27876689299314        0.11306580372392
C            6.06172068821848        2.51399768196428        0.30819159177280
C            5.31100071049273        3.58324019378619        0.77493186815824
C            3.97212223044966        3.40077180372421        1.05670539036703
C            3.37557127550187        2.16437842397791        0.85967449532364
C            4.10687125914918        1.08942025259770        0.36958270097022
C            1.19702227584355        0.22988674402373       -0.26687009017542
C           -0.15414789374511       -0.00665133404426        0.03960830431901
N           -1.12206520854774        0.67346431500519       -0.60757565341303
C           -2.37607619300910        0.41612043284372       -0.31972869462114
C           -3.38425146401130        1.26847553655805       -0.96279560588385
C           -4.46827347413206        1.77069944369986       -0.24548390803265
C           -5.39245602532015        2.58862472334353       -0.86818654165368
C           -5.24887186542255        2.91179841156330       -2.20823277481592
C           -4.16373559993628        2.42952981975094       -2.92233285085458
C           -3.23082903117995        1.61954619900425       -2.30233853457316
C           -4.96748608486631       -1.25776016382266       -0.26534043916670
C           -6.25521530901227       -1.71159860922538       -0.04946000917763
H           -7.69805637053242       -2.34633451092794        1.39981933003791
H           -6.15242758102593       -2.08309798818665        3.30723632914501
H           -3.84352873566127       -1.28776110500131        2.91975246864997
H            0.25732834982307       -2.25377718575436        2.57601812876860
H            2.63499088610661       -1.78663190535610        2.03871561065792
H            2.80205917060531       -2.67369632680969       -0.44126050718608
H            4.27032004815357       -4.45833795509726       -1.24441078656387
H            6.68538408262584       -4.02514475934003       -1.58962884854872
H            7.58609722853936       -1.75136595508460       -1.14146137463025
H            7.11390625768209        2.61586248823527        0.09339798061940
H            5.77967317043458        4.54341849146019        0.92225243315543
H            3.37641286296442        4.21727197501793        1.43503570851571
H            2.33125316660906        2.03396776069172        1.09578101717109
H            1.43772795104214        0.92459346100811       -1.05701144384013
H           -4.57620157605764        1.53355446089332        0.80300548948742
H           -6.22768617845083        2.97628525951452       -0.30379735610405
H           -5.97810278349724        3.54405105471662       -2.69272241331579
H           -4.04257770764437        2.68738040708745       -3.96419289038823
H           -2.37857092658765        1.24003108467424       -2.84606542248251
H           -4.62922881597577       -1.05001772409326       -1.27009919806221
H           -6.92267201857446       -1.84237744876784       -0.88841229550640

          :  Hamiltonian                  GFN2-xTB          :
         :: gradient norm              0.000046767301 Eh/a0 ::
         :: HOMO-LUMO gap              1.226231461738 eV    ::
         :: SCC energy               -93.759610957541 Eh    ::
         :: -> dispersion             -0.077238084809 Eh    ::
         :: -> Gsolv                  -0.039030518387 Eh    ::
         :: repulsion energy           1.637902144574 Eh    ::

    * Orbital Energies and Occupations

         #    Occupation            Energy/Eh            Energy/eV
      -------------------------------------------------------------
         1        2.0000           -0.7317674             -19.9124
       ...           ...                  ...                  ...
        73        2.0000           -0.4280768             -11.6486
        74        2.0000           -0.4253532             -11.5744
        75        2.0000           -0.4221899             -11.4884
        76        2.0000           -0.4204808             -11.4419
        77        2.0000           -0.4181038             -11.3772
        78        2.0000           -0.4156087             -11.3093
        79        2.0000           -0.4142732             -11.2729
        80        2.0000           -0.4106698             -11.1749
        81        2.0000           -0.4074031             -11.0860
        82        2.0000           -0.3963902             -10.7863
        83        2.0000           -0.3925157             -10.6809
        84        2.0000           -0.3600894              -9.7985
        85        2.0000           -0.3467141              -9.4346 (HOMO)
        86                         -0.3016509              -8.2083 (LUMO)
        87                         -0.2702196              -7.3530
        88                         -0.2408521              -6.5539
        89                         -0.2333494              -6.3498
        90                         -0.2328272              -6.3356
        91                         -0.2316321              -6.3030
        92                         -0.2282945              -6.2122
        93                         -0.2273448              -6.1864
        94                         -0.2178518              -5.9281
        95                         -0.2154449              -5.8626
        96                         -0.1983401              -5.3971
       ...                                ...                  ...
       165                          0.6864891              18.6803
      -------------------------------------------------------------
                  HL-Gap            0.0450632 Eh            1.2262 eV

     #   Z          covCN         q      C6AA      α(0)
     1   6 C        2.920    -0.027    28.665     8.780
     2   6 C        2.918    -0.027    28.683     8.782
     3   6 C        2.925    -0.026    28.661     8.779
     4   6 C        2.981     0.003    27.950     8.672
     5   6 C        2.949     0.088    26.034     8.369
     6   7 N        1.851    -0.252    27.424     7.762
     7   6 C        2.962     0.077    26.268     8.407
     8   6 C        2.915    -0.043    29.061     8.840
     9   6 C        2.919    -0.039    28.976     8.827
    10   6 C        2.918     0.067    26.492     8.440
    11   7 N        2.751    -0.072    22.645     7.068
    12   6 C        2.922     0.042    27.049     8.529
    13   6 C        2.924    -0.060    29.491     8.906
    14   6 C        2.919    -0.039    28.963     8.825
    15   6 C        2.919    -0.040    29.003     8.831
    16   6 C        2.919    -0.058    29.431     8.896
    17   6 C        2.882     0.123    25.303     8.247
    18   8 O        1.708    -0.270    18.469     5.802
    19   6 C        2.882     0.123    25.305     8.247
    20   6 C        2.920    -0.057    29.428     8.896
    21   6 C        2.919    -0.040    29.004     8.831
    22   6 C        2.919    -0.038    28.955     8.824
    23   6 C        2.924    -0.060    29.488     8.905
    24   6 C        2.920     0.042    27.051     8.529
    25   6 C        2.920    -0.057    29.410     8.893
    26   6 C        2.962     0.080    26.204     8.396
    27   7 N        1.851    -0.255    27.500     7.772
    28   6 C        2.949     0.091    25.986     8.361
    29   6 C        2.982     0.003    27.947     8.672
    30   6 C        2.922    -0.030    28.747     8.793
    31   6 C        2.919    -0.028    28.689     8.783
    32   6 C        2.920    -0.026    28.661     8.779
    33   6 C        2.918    -0.027    28.681     8.782
    34   6 C        2.925    -0.026    28.655     8.779
    35   6 C        2.923    -0.030    28.753     8.793
    36   6 C        2.919    -0.028    28.691     8.784
    37   1 H        0.926     0.043     2.413     2.429
    38   1 H        0.926     0.043     2.415     2.430
    39   1 H        0.926     0.044     2.402     2.424
    40   1 H        0.926     0.061     2.185     2.311
    41   1 H        0.926     0.056     2.251     2.346
    42   1 H        0.926     0.036     2.497     2.471
    43   1 H        0.926     0.042     2.417     2.431
    44   1 H        0.926     0.044     2.395     2.420
    45   1 H        0.926     0.050     2.322     2.383
    46   1 H        0.926     0.050     2.319     2.381
    47   1 H        0.926     0.044     2.393     2.419
    48   1 H        0.926     0.042     2.421     2.433
    49   1 H        0.926     0.036     2.508     2.476
    50   1 H        0.926     0.058     2.222     2.331
    51   1 H        0.926     0.029     2.601     2.522
    52   1 H        0.926     0.041     2.436     2.441
    53   1 H        0.926     0.043     2.409     2.427
    54   1 H        0.926     0.043     2.414     2.430
    55   1 H        0.926     0.043     2.410     2.428
    56   1 H        0.926     0.029     2.607     2.525
    57   1 H        0.926     0.041     2.441     2.443

molecular dipole:
                 x           y           z       tot (Debye)
 q only:       -1.201      -0.033       0.040
   full:       -1.206      -0.050       0.065       3.073

 projected vibrational frequencies (cm⁻¹)
eigval :       -0.00    -0.00     0.00     0.00     0.00     0.00
eigval :       10.06    16.61    21.89    38.94    41.84    43.74
eigval :       56.27    62.71    76.05    78.14   113.30   139.43
eigval :      143.84   167.46   174.53   223.44   233.95   247.05
eigval :      252.81   259.16   269.90   292.07   312.92   339.30
eigval :      365.68   369.85   374.43   381.78   395.95   402.92
eigval :      426.16   428.14   442.12   454.52   468.33   508.35
eigval :      509.29   517.13   521.98   545.64   554.33   559.13
eigval :      578.59   583.33   590.70   594.72   619.97   626.64
eigval :      658.45   660.21   660.24   664.84   672.68   695.38
eigval :      701.44   714.72   747.70   756.19   775.16   775.21
eigval :      777.53   789.81   823.12   839.13   852.99   855.14
eigval :      861.49   863.85   872.64   875.68   881.82   895.01
eigval :      897.22   898.68   903.12   912.06   913.61   915.67
eigval :      924.75   926.08   927.76   928.67   929.27   941.44
eigval :      972.45   988.18  1017.09  1077.98  1080.96  1089.13
eigval :     1090.83  1096.33  1105.87  1111.24  1118.78  1118.83
eigval :     1143.58  1163.12  1173.88  1178.16  1179.26  1182.32
eigval :     1191.10  1193.82  1194.85  1198.45  1215.61  1238.48
eigval :     1244.83  1260.73  1266.38  1274.01  1277.05  1282.58
eigval :     1293.67  1304.56  1317.21  1319.28  1328.95  1336.21
eigval :     1349.21  1375.83  1402.66  1419.75  1424.34  1427.92
eigval :     1435.97  1442.37  1467.99  1473.80  1478.08  1479.99
eigval :     1500.83  1509.69  1528.59  1566.21  1578.10  1578.45
eigval :     1578.86  1586.25  1592.51  1592.77  1594.83  1601.94
eigval :     3073.03  3074.40  3076.38  3076.68  3082.60  3083.00
eigval :     3087.41  3087.83  3088.18  3089.27  3090.17  3095.14
eigval :     3095.69  3095.82  3097.32  3098.34  3101.91  3102.94
eigval :     3103.87  3109.02  3109.95

   temp. (K)  partition function   enthalpy   heat capacity  entropy
                                   cal/mol     cal/K/mol   cal/K/mol   J/K/mol
 298.15  VIB  0.142E+13            15752.660    101.640     97.236
         ROT  0.370E+08              888.752      2.981     37.611
         INT  0.526E+20            16641.412    104.621    134.847
         TR   0.966E+28             1481.254      4.968     44.270
         TOT                       18122.6662   109.5892   179.1170   749.4254

       T/K    H(0)-H(T)+PV         H(T)/Eh          T*S/Eh         G(T)/Eh
   ------------------------------------------------------------------------
    298.15    0.288803E-01    0.458669E+00    0.851043E-01    0.373565E+00
   ------------------------------------------------------------------------

         :::::::::::::::::::::::::::::::::::::::::::::::::::::
         ::                  THERMODYNAMIC                  ::
         :::::::::::::::::::::::::::::::::::::::::::::::::::::
         :: total free energy         -91.748144036665 Eh   ::
         ::.................................................::
         :: total energy              -92.121708810807 Eh   ::
         :: zero point energy           0.429788723176 Eh   ::
         :: G(RRHO) w/o ZPVE           -0.056223949033 Eh   ::
         :: G(RRHO) contrib.            0.373564774143 Eh   ::
         :::::::::::::::::::::::::::::::::::::::::::::::::::::

           -------------------------------------------------
          | TOTAL ENERGY              -92.121708810807 Eh   |
          | TOTAL ENTHALPY            -91.663039780786 Eh   |
          | TOTAL FREE ENERGY         -91.748144036665 Eh   |
          | GRADIENT NORM               0.000046767849 Eh/α |
          | HOMO-LUMO GAP               1.226231233832 eV   |
           -------------------------------------------------

 * finished run on 2025/08/30 at 12:42:12.325
