   * xtb version 6.7.1 (edcfbbe) compiled by 'albert@albert-system' on 2024-07-22

   ID    Z sym.   atoms
    1    6 C      1-5, 7-10, 12-17, 19-26, 28-36
    2    7 N      6, 11, 27
    3    8 O      18
    4    1 H      37-57

          program call               : xtb data2507/toluene/SBDBQ-PXZ/SBDBQ-PXZ_toluene_S0_crest.xyz --gfn 2 --gbsa toluene --ohess vtight --parallel 40 --molden --ceasefiles --namespace data2507/toluene/SBDBQ-PXZ/SBDBQ-PXZ_toluene_S0_finalOpt
      * Solvation model:               GBSA
        Solvent                        toluene
        Solvent mass                       9.2140E+01 g/mol
          :  Hamiltonian                  GFN2-xTB          :
 * total energy  :   -92.1218605 Eh     change       -0.9638654E-09 Eh
 * total energy  :   -92.1218913 Eh     change       -0.3075157E-04 Eh
 * total energy  :   -92.1218993 Eh     change       -0.8082635E-05 Eh
 * total energy  :   -92.1219022 Eh     change       -0.2871004E-05 Eh
 * total energy  :   -92.1219049 Eh     change       -0.2651518E-05 Eh
 * total energy  :   -92.1219067 Eh     change       -0.1800785E-05 Eh
 * total energy  :   -92.1219082 Eh     change       -0.1582667E-05 Eh
 * total energy  :   -92.1219091 Eh     change       -0.8712211E-06 Eh
 * total energy  :   -92.1219095 Eh     change       -0.4339200E-06 Eh
 * total energy  :   -92.1219100 Eh     change       -0.4992558E-06 Eh
 * total energy  :   -92.1219129 Eh     change       -0.6041899E-06 Eh
 * total energy  :   -92.1219133 Eh     change       -0.4063464E-06 Eh
 * total energy  :   -92.1219137 Eh     change       -0.3319982E-06 Eh
 * total energy  :   -92.1219140 Eh     change       -0.3736739E-06 Eh
 * total energy  :   -92.1219144 Eh     change       -0.4208839E-06 Eh
 * total energy  :   -92.1219149 Eh     change       -0.4714077E-06 Eh
 * total energy  :   -92.1219154 Eh     change       -0.4401277E-06 Eh
 * total energy  :   -92.1219157 Eh     change       -0.3153436E-06 Eh
 * total energy  :   -92.1219157 Eh     change       -0.2854151E-08 Eh
   *** GEOMETRY OPTIMIZATION CONVERGED AFTER 22 ITERATIONS ***

 final structure:
================
57
 xtb: 6.7.1 (edcfbbe)
C           -6.92320013599474        1.69577877723502        1.63782142200009
C           -6.05375420792936        2.70044266940521        1.24446451151762
C           -4.76517199756141        2.38825949380726        0.85355307565994
C           -4.33747750725129        1.06237658034926        0.83473430694687
C           -2.96234438584079        0.75056846866396        0.42671023338342
N           -2.02151431212304        1.55738027678798        0.86132444212981
C           -0.73531386177651        1.24448847679711        0.61978749802199
C            0.30022563930446        2.09269541490243        1.06180874157525
C            1.60273256175737        1.72286142753958        0.88724811953095
C            1.93277303860375        0.49726320646711        0.26370229670841
N            3.29093462928074        0.14417448994211        0.12842811627159
C            3.80426146747698       -0.99758139755994        0.75321971459512
C            3.02344174101796       -1.83184511971997        1.54398692901730
C            3.56917578217897       -2.95013033841280        2.15609639476271
C            4.90702709278783       -3.25069986635505        1.99725165745370
C            5.70783870609409       -2.41234524248194        1.23579058917123
C            5.16841914876148       -1.29370432626453        0.62725905789225
O            6.03720699139797       -0.49439580742396       -0.07822346692265
C            5.51366204978825        0.61441986489204       -0.70009994645349
C            6.39042308800802        1.39407215237407       -1.43200145764990
C            5.93166238055221        2.51273941730634       -2.11244435853539
C            4.58846537300799        2.82879187170809       -2.07283134879073
C            3.70564202478144        2.04883441679867       -1.34107077505387
C            4.15483480731811        0.94725150610531       -0.62230994319137
C            0.94159668446766       -0.33817074154502       -0.19567848146900
C           -0.40593976985170        0.02597519001266       -0.03447219331707
N           -1.38085595059743       -0.74959325281005       -0.55054007115141
C           -2.63144027811533       -0.39109732704342       -0.37787603249238
C           -3.64678986082470       -1.19267768149984       -1.07211863869301
C           -4.72721943150759       -0.58949047422365       -1.71329905775818
C           -5.66016156585923       -1.36394534053848       -2.37701891633112
C           -5.52842155622662       -2.74326478238613       -2.40802785886222
C           -4.44682865519414       -3.34759909810274       -1.78755412586791
C           -3.50543806173182       -2.57761040116711       -1.13056093269178
C           -5.21105522203901        0.05844449190600        1.24875325783312
C           -6.49525268253504        0.37764321970698        1.64817206131501
H           -7.93026570701300        1.93949591181188        1.94235009836505
H           -6.37979366718807        3.73017303701441        1.24469266498813
H           -4.07689360305841        3.16213987142105        0.54846262259066
H            0.03386895033552        3.01551436923570        1.55322135228402
H            2.40423023862964        2.35456246243169        1.24084764452501
H            1.97966628811045       -1.60270432414548        1.68983112349857
H            2.93528529844773       -3.58045214507649        2.76073474337606
H            5.33594737473328       -4.12220051312630        2.46599942418112
H            6.76127653513816       -2.60478586919686        1.10608382792135
H            7.42945905817025        1.10553393092127       -1.45907447024266
H            6.62369084732167        3.11785727940885       -2.67650103961209
H            4.21171504154484        3.68274857462845       -2.61452737523685
H            2.65564625878352        2.29596164754887       -1.33470152487074
H            1.17321294146265       -1.26828445389212       -0.69175475088298
H           -4.82554547049805        0.48637527590908       -1.70490348871857
H           -6.49272223248088       -0.88781915094763       -2.87359135646960
H           -6.26409826932917       -3.34513451700907       -2.92064380977923
H           -4.33522187055494       -4.42151016803775       -1.81803488449590
H           -2.65587095753619       -3.03536603131999       -0.64618461032569
H           -4.87772044909166       -0.96889011500401        1.27258345013054
H           -7.16425401575312       -0.40690176884972        1.96969352531868

          :  Hamiltonian                  GFN2-xTB          :
         :: gradient norm              0.000044549998 Eh/a0 ::
         :: HOMO-LUMO gap              1.254886797837 eV    ::
         :: SCC energy               -93.759815473166 Eh    ::
         :: -> dispersion             -0.077289892725 Eh    ::
         :: -> Gsolv                  -0.039135600640 Eh    ::
         :: repulsion energy           1.637899795332 Eh    ::

    * Orbital Energies and Occupations

         #    Occupation            Energy/Eh            Energy/eV
      -------------------------------------------------------------
         1        2.0000           -0.7322685             -19.9260
       ...           ...                  ...                  ...
        73        2.0000           -0.4290933             -11.6762
        74        2.0000           -0.4243330             -11.5467
        75        2.0000           -0.4218716             -11.4797
        76        2.0000           -0.4205052             -11.4425
        77        2.0000           -0.4185075             -11.3882
        78        2.0000           -0.4158400             -11.3156
        79        2.0000           -0.4141800             -11.2704
        80        2.0000           -0.4104868             -11.1699
        81        2.0000           -0.4070724             -11.0770
        82        2.0000           -0.3959624             -10.7747
        83        2.0000           -0.3926900             -10.6856
        84        2.0000           -0.3597026              -9.7880
        85        2.0000           -0.3471529              -9.4465 (HOMO)
        86                         -0.3010367              -8.1916 (LUMO)
        87                         -0.2700052              -7.3472
        88                         -0.2413057              -6.5663
        89                         -0.2331525              -6.3444
        90                         -0.2330708              -6.3422
        91                         -0.2314946              -6.2993
        92                         -0.2280342              -6.2051
        93                         -0.2271583              -6.1813
        94                         -0.2176491              -5.9225
        95                         -0.2153767              -5.8607
        96                         -0.1986796              -5.4063
       ...                                ...                  ...
       165                          0.6867878              18.6884
      -------------------------------------------------------------
                  HL-Gap            0.0461162 Eh            1.2549 eV

     #   Z          covCN         q      C6AA      α(0)
     1   6 C        2.920    -0.027    28.668     8.780
     2   6 C        2.918    -0.027    28.685     8.783
     3   6 C        2.925    -0.027    28.664     8.780
     4   6 C        2.981     0.003    27.949     8.672
     5   6 C        2.949     0.088    26.042     8.370
     6   7 N        1.851    -0.253    27.439     7.764
     7   6 C        2.963     0.077    26.272     8.407
     8   6 C        2.915    -0.043    29.068     8.841
     9   6 C        2.919    -0.040    28.986     8.829
    10   6 C        2.917     0.067    26.503     8.442
    11   7 N        2.751    -0.071    22.613     7.063
    12   6 C        2.920     0.042    27.056     8.530
    13   6 C        2.924    -0.060    29.484     8.905
    14   6 C        2.919    -0.038    28.955     8.824
    15   6 C        2.919    -0.040    28.998     8.831
    16   6 C        2.920    -0.057    29.424     8.895
    17   6 C        2.883     0.123    25.299     8.246
    18   8 O        1.708    -0.269    18.457     5.800
    19   6 C        2.883     0.123    25.299     8.246
    20   6 C        2.919    -0.057    29.427     8.896
    21   6 C        2.919    -0.040    28.995     8.830
    22   6 C        2.919    -0.039    28.961     8.825
    23   6 C        2.924    -0.060    29.481     8.904
    24   6 C        2.922     0.042    27.054     8.530
    25   6 C        2.920    -0.057    29.428     8.896
    26   6 C        2.962     0.080    26.208     8.397
    27   7 N        1.851    -0.256    27.520     7.775
    28   6 C        2.949     0.090    25.990     8.362
    29   6 C        2.981     0.003    27.951     8.672
    30   6 C        2.923    -0.030    28.750     8.793
    31   6 C        2.919    -0.028    28.691     8.784
    32   6 C        2.920    -0.026    28.662     8.779
    33   6 C        2.918    -0.027    28.683     8.782
    34   6 C        2.925    -0.026    28.657     8.779
    35   6 C        2.923    -0.030    28.757     8.794
    36   6 C        2.919    -0.028    28.693     8.784
    37   1 H        0.926     0.043     2.416     2.430
    38   1 H        0.926     0.042     2.417     2.431
    39   1 H        0.926     0.043     2.404     2.425
    40   1 H        0.926     0.061     2.190     2.314
    41   1 H        0.926     0.055     2.253     2.347
    42   1 H        0.926     0.036     2.501     2.473
    43   1 H        0.926     0.042     2.418     2.432
    44   1 H        0.926     0.045     2.389     2.417
    45   1 H        0.926     0.050     2.315     2.379
    46   1 H        0.926     0.050     2.318     2.381
    47   1 H        0.926     0.044     2.391     2.418
    48   1 H        0.926     0.043     2.412     2.429
    49   1 H        0.926     0.037     2.484     2.465
    50   1 H        0.926     0.058     2.225     2.333
    51   1 H        0.926     0.029     2.603     2.523
    52   1 H        0.926     0.041     2.439     2.442
    53   1 H        0.926     0.043     2.411     2.428
    54   1 H        0.926     0.043     2.414     2.430
    55   1 H        0.926     0.044     2.402     2.424
    56   1 H        0.926     0.028     2.611     2.527
    57   1 H        0.926     0.040     2.444     2.445

molecular dipole:
                 x           y           z       tot (Debye)
 q only:       -1.113       0.059      -0.012
   full:       -1.119       0.085       0.007       2.852

 projected vibrational frequencies (cm⁻¹)
eigval :       -0.00    -0.00    -0.00     0.00     0.00     0.00
eigval :       14.01    19.18    23.83    38.64    44.21    52.46
eigval :       58.70    64.33    78.25    81.92   113.64   140.07
eigval :      143.63   168.29   181.41   220.14   237.21   247.94
eigval :      253.42   261.21   271.94   293.69   311.81   338.41
eigval :      362.05   371.27   376.32   385.98   394.63   404.53
eigval :      426.31   429.33   443.11   454.83   466.93   507.04
eigval :      509.22   517.07   522.67   545.96   554.84   559.75
eigval :      576.38   585.35   590.42   595.21   620.20   627.12
eigval :      658.42   660.58   660.89   665.01   674.28   695.70
eigval :      701.40   714.32   749.75   760.77   775.49   776.68
eigval :      778.45   789.95   823.43   839.39   853.31   855.13
eigval :      862.47   864.01   875.87   876.48   884.31   895.57
eigval :      899.72   903.71   907.67   911.28   914.87   915.70
eigval :      924.07   928.59   929.59   930.63   937.78   941.43
eigval :      972.51   987.78  1017.06  1077.86  1080.55  1088.84
eigval :     1089.30  1096.02  1105.84  1111.10  1117.55  1117.86
eigval :     1143.16  1162.89  1172.48  1177.52  1177.77  1179.45
eigval :     1190.73  1193.33  1195.16  1197.32  1215.38  1238.34
eigval :     1244.25  1258.31  1266.59  1273.36  1275.58  1282.15
eigval :     1293.91  1304.49  1317.41  1319.44  1328.07  1335.74
eigval :     1348.57  1375.99  1403.37  1419.01  1424.48  1427.87
eigval :     1436.16  1441.94  1467.72  1473.96  1477.83  1478.99
eigval :     1500.01  1509.31  1527.76  1566.27  1578.08  1578.35
eigval :     1578.55  1586.09  1592.34  1592.60  1594.95  1601.40
eigval :     3073.82  3074.87  3076.41  3077.11  3082.77  3083.51
eigval :     3087.37  3087.54  3087.96  3089.33  3090.03  3095.46
eigval :     3095.67  3096.31  3096.73  3098.63  3102.36  3102.66
eigval :     3103.93  3109.11  3110.04

   temp. (K)  partition function   enthalpy   heat capacity  entropy
                                   cal/mol     cal/K/mol   cal/K/mol   J/K/mol
 298.15  VIB  0.569E+12            15690.619    101.887     96.372
         ROT  0.370E+08              888.752      2.981     37.611
         INT  0.211E+20            16579.372    104.868    133.983
         TR   0.966E+28             1481.254      4.968     44.270
         TOT                       18060.6256   109.8365   178.2530   745.8105

       T/K    H(0)-H(T)+PV         H(T)/Eh          T*S/Eh         G(T)/Eh
   ------------------------------------------------------------------------
    298.15    0.287814E-01    0.458740E+00    0.846937E-01    0.374046E+00
   ------------------------------------------------------------------------

         :::::::::::::::::::::::::::::::::::::::::::::::::::::
         ::                  THERMODYNAMIC                  ::
         :::::::::::::::::::::::::::::::::::::::::::::::::::::
         :: total free energy         -91.747869572937 Eh   ::
         ::.................................................::
         :: total energy              -92.121915674718 Eh   ::
         :: zero point energy           0.429958410727 Eh   ::
         :: G(RRHO) w/o ZPVE           -0.055912308946 Eh   ::
         :: G(RRHO) contrib.            0.374046101781 Eh   ::
         :::::::::::::::::::::::::::::::::::::::::::::::::::::

           -------------------------------------------------
          | TOTAL ENERGY              -92.121915674718 Eh   |
          | TOTAL ENTHALPY            -91.663175825103 Eh   |
          | TOTAL FREE ENERGY         -91.747869572937 Eh   |
          | GRADIENT NORM               0.000044544634 Eh/α |
          | HOMO-LUMO GAP               1.254886592113 eV   |
           -------------------------------------------------

 * finished run on 2025/08/30 at 12:44:35.513
