   * xtb version 6.7.1 (edcfbbe) compiled by 'albert@albert-system' on 2024-07-22

   ID    Z sym.   atoms
    1    6 C      1-5, 7-10, 12-17, 19-26, 28-36
    2    7 N      6, 11, 27
    3    8 O      18
    4    1 H      37-57

          program call               : xtb data2507/toluene/SBDBQ-PXZ/SBDBQ-PXZ_toluene_T1_crest.xyz --gfn 2 --uhf 2 --gbsa toluene --ohess vtight --parallel 40 --molden --ceasefiles --namespace data2507/toluene/SBDBQ-PXZ/SBDBQ-PXZ_toluene_T1_finalOpt
      * Solvation model:               GBSA
        Solvent                        toluene
        Solvent mass                       9.2140E+01 g/mol
          :  Hamiltonian                  GFN2-xTB          :
 * total energy  :   -92.0656158 Eh     change       -0.1000704E-07 Eh
 * total energy  :   -92.0656687 Eh     change       -0.5294929E-04 Eh
 * total energy  :   -92.0656909 Eh     change       -0.2217755E-04 Eh
 * total energy  :   -92.0656954 Eh     change       -0.4481430E-05 Eh
 * total energy  :   -92.0656979 Eh     change       -0.2562962E-05 Eh
 * total energy  :   -92.0657000 Eh     change       -0.2061068E-05 Eh
 * total energy  :   -92.0657018 Eh     change       -0.1778430E-05 Eh
 * total energy  :   -92.0657027 Eh     change       -0.9522505E-06 Eh
 * total energy  :   -92.0657032 Eh     change       -0.5028556E-06 Eh
 * total energy  :   -92.0657038 Eh     change       -0.5746940E-06 Eh
 * total energy  :   -92.0657066 Eh     change       -0.5286096E-06 Eh
 * total energy  :   -92.0657071 Eh     change       -0.4424337E-06 Eh
 * total energy  :   -92.0657075 Eh     change       -0.4691466E-06 Eh
 * total energy  :   -92.0657080 Eh     change       -0.4886566E-06 Eh
 * total energy  :   -92.0657085 Eh     change       -0.4826048E-06 Eh
 * total energy  :   -92.0657090 Eh     change       -0.4782950E-06 Eh
 * total energy  :   -92.0657095 Eh     change       -0.5351239E-06 Eh
 * total energy  :   -92.0657101 Eh     change       -0.6134537E-06 Eh
 * total energy  :   -92.0657101 Eh     change       -0.1400484E-07 Eh
   *** GEOMETRY OPTIMIZATION CONVERGED AFTER 22 ITERATIONS ***

 final structure:
================
57
 xtb: 6.7.1 (edcfbbe)
C           -6.94550392371080        1.74199109544383        1.59694505486078
C           -6.04325802028378        2.73005722328268        1.23624293690902
C           -4.76103109933269        2.39269862565859        0.84774422450573
C           -4.36505320720322        1.05530241615263        0.80136513798619
C           -2.99393008771094        0.72758765598902        0.41031126940855
N           -2.02399547546367        1.51791616119350        0.87245885044740
C           -0.73640534345751        1.23844157623775        0.67574333936503
C            0.28947751950033        2.05696685240069        1.14871602438542
C            1.62006408920271        1.70652325807484        0.97624070729194
C            1.95011090544428        0.53230784352609        0.31597611388892
N            3.31332467032717        0.17148629183822        0.15287989345470
C            3.83373717570321       -0.92079044655628        0.83253693881724
C            3.06213544026897       -1.69636729080517        1.69530889888235
C            3.61437440715392       -2.78217434628165        2.35147084465311
C            4.94699121361354       -3.11078319973671        2.16853930081983
C            5.73645944213939       -2.33785647603083        1.33255505799959
C            5.19138027970617       -1.24919642208969        0.67280036101578
O            6.02973494508874       -0.51419270593609       -0.12164758340115
C            5.50114073273520        0.56123718515608       -0.78372088394088
C            6.35670810475829        1.29171367042182       -1.59125254964482
C            5.87904836447999        2.37754884664561       -2.30689330932430
C            4.53965667370536        2.71957286857642       -2.22357758598927
C            3.67917958418379        1.99622098024202       -1.41708385605619
C            4.14557681889153        0.91622128475685       -0.67059473191677
C            0.95105629276139       -0.30235584388084       -0.19098205150126
C           -0.39016292220237        0.02520529812282       -0.02904254098760
N           -1.37554127808340       -0.72194113597984       -0.53489824984002
C           -2.65692285647220       -0.39011976984666       -0.37789253730695
C           -3.65021620119490       -1.21334194916061       -1.06814614512101
C           -4.74906666953674       -0.64436270381434       -1.71313982374032
C           -5.65612020772614       -1.44447342338888       -2.38037746113901
C           -5.47984729416328       -2.81917775603175       -2.42269734410518
C           -4.37823234458719       -3.38963798993383       -1.80495087414611
C           -3.46605091695770       -2.59501968610953       -1.13762056906257
C           -5.27176716937748        0.06851350637891        1.19004348775146
C           -6.55128082290194        0.41279921935436        1.58043243228685
H           -7.94845445065318        2.00619344694351        1.89802146951973
H           -6.33979755378538        3.76880527584229        1.25841466155240
H           -4.05123992211492        3.15692335950792        0.56718866504657
H            0.02155370299177        2.95841556576675        1.67653651020450
H            2.40125210283551        2.34315745722602        1.36324142659014
H            2.02601019915343       -1.44069712634584        1.84878936892894
H            2.99532804457253       -3.36972266405524        3.01151965760869
H            5.37678081069825       -3.95842861657902        2.67798010669385
H            6.78095751150343       -2.55828662468670        1.17992992652198
H            7.39060427008796        0.99003037076646       -1.64633771032623
H            6.55092461983544        2.94435842253907       -2.93147479910331
H            4.15572069064863        3.55365065633917       -2.79005315494127
H            2.63531123223600        2.26139302504535       -1.36220704788873
H            1.20835164665257       -1.19768993546140       -0.73479337532163
H           -4.88283651308246        0.42757789351435       -1.69874068234951
H           -6.50291059781704       -0.99193619280434       -2.87561646555163
H           -6.19393629844122       -3.44144750775724       -2.94152796184645
H           -4.22875491454525       -4.45903065845370       -1.84398004944816
H           -2.60405087347520       -3.03128227500867       -0.65479568963496
H           -4.96637468976536       -0.96767540362699        1.19590647859027
H           -7.24358561423475       -0.36088802778201        1.87913042684855

          :  Hamiltonian                  GFN2-xTB          :
         :: gradient norm              0.000084056709 Eh/a0 ::
         :: HOMO-LUMO gap              0.884779152690 eV    ::
         :: SCC energy               -93.701403900715 Eh    ::
         :: -> dispersion             -0.077182327620 Eh    ::
         :: -> Gsolv                  -0.040106039809 Eh    ::
         :: repulsion energy           1.635693769758 Eh    ::

    * Orbital Energies and Occupations

         #    Occupation            Energy/Eh            Energy/eV
      -------------------------------------------------------------
         1        2.0000           -0.7468905             -20.3239
       ...           ...                  ...                  ...
        74        2.0000           -0.4259204             -11.5899
        75        2.0000           -0.4252112             -11.5706
        76        2.0000           -0.4193748             -11.4118
        77        2.0000           -0.4174415             -11.3592
        78        2.0000           -0.4128063             -11.2330
        79        2.0000           -0.4077407             -11.0952
        80        2.0000           -0.4049187             -11.0184
        81        2.0000           -0.4033325             -10.9752
        82        2.0000           -0.3923280             -10.6758
        83        2.0000           -0.3873253             -10.5397
        84        1.7928           -0.3555761              -9.6757
        85        1.2072           -0.3530266              -9.6063
        86        1.0000           -0.2931241              -7.9763 (HOMO)
        87                         -0.2606091              -7.0915 (LUMO)
        88                         -0.2524045              -6.8683
        89                         -0.2412821              -6.5656
        90                         -0.2283461              -6.2136
        91                         -0.2277081              -6.1963
        92                         -0.2221078              -6.0439
        93                         -0.2210234              -6.0144
        94                         -0.2173532              -5.9145
        95                         -0.2074946              -5.6462
        96                         -0.2025760              -5.5124
        97                         -0.1569032              -4.2696
       ...                                ...                  ...
       165                          0.6927383              18.8504
      -------------------------------------------------------------
                  HL-Gap            0.0325150 Eh            0.8848 eV

     #   Z          covCN         q      C6AA      α(0)
     1   6 C        2.919    -0.032    28.790     8.799
     2   6 C        2.918    -0.030    28.739     8.791
     3   6 C        2.925    -0.030    28.754     8.794
     4   6 C        2.978     0.006    27.877     8.661
     5   6 C        2.931     0.073    26.363     8.421
     6   7 N        1.852    -0.250    27.367     7.753
     7   6 C        2.938     0.086    26.090     8.377
     8   6 C        2.918    -0.068    29.691     8.935
     9   6 C        2.916    -0.051    29.267     8.871
    10   6 C        2.918     0.045    26.985     8.518
    11   7 N        2.752    -0.039    22.003     6.967
    12   6 C        2.924     0.047    26.955     8.514
    13   6 C        2.922    -0.053    29.307     8.878
    14   6 C        2.918    -0.032    28.809     8.802
    15   6 C        2.919    -0.033    28.823     8.804
    16   6 C        2.917    -0.054    29.335     8.882
    17   6 C        2.884     0.128    25.201     8.230
    18   8 O        1.709    -0.241    17.992     5.727
    19   6 C        2.884     0.128    25.203     8.230
    20   6 C        2.917    -0.054    29.331     8.881
    21   6 C        2.919    -0.033    28.827     8.804
    22   6 C        2.918    -0.032    28.808     8.802
    23   6 C        2.922    -0.053    29.311     8.878
    24   6 C        2.924     0.046    26.962     8.515
    25   6 C        2.919    -0.077    29.933     8.972
    26   6 C        2.938     0.087    26.060     8.372
    27   7 N        1.852    -0.253    27.445     7.764
    28   6 C        2.931     0.074    26.337     8.416
    29   6 C        2.979     0.006    27.876     8.661
    30   6 C        2.922    -0.034    28.836     8.806
    31   6 C        2.918    -0.029    28.729     8.790
    32   6 C        2.919    -0.031    28.784     8.798
    33   6 C        2.918    -0.030    28.738     8.791
    34   6 C        2.925    -0.030    28.753     8.794
    35   6 C        2.922    -0.034    28.842     8.807
    36   6 C        2.918    -0.029    28.732     8.790
    37   1 H        0.926     0.037     2.487     2.466
    38   1 H        0.926     0.037     2.484     2.464
    39   1 H        0.926     0.037     2.490     2.468
    40   1 H        0.926     0.045     2.382     2.413
    41   1 H        0.926     0.040     2.451     2.448
    42   1 H        0.926     0.048     2.351     2.398
    43   1 H        0.926     0.051     2.302     2.373
    44   1 H        0.926     0.055     2.263     2.352
    45   1 H        0.926     0.060     2.194     2.316
    46   1 H        0.926     0.060     2.195     2.317
    47   1 H        0.926     0.055     2.264     2.353
    48   1 H        0.926     0.052     2.295     2.369
    49   1 H        0.926     0.048     2.345     2.394
    50   1 H        0.926     0.044     2.392     2.419
    51   1 H        0.926     0.026     2.643     2.542
    52   1 H        0.926     0.036     2.506     2.476
    53   1 H        0.926     0.037     2.483     2.464
    54   1 H        0.926     0.038     2.479     2.462
    55   1 H        0.926     0.038     2.480     2.463
    56   1 H        0.926     0.026     2.646     2.544
    57   1 H        0.926     0.036     2.508     2.477

molecular dipole:
                 x           y           z       tot (Debye)
 q only:        1.325      -0.204      -0.084
   full:        1.285      -0.161      -0.066       3.297

 projected vibrational frequencies (cm⁻¹)
eigval :       -0.00    -0.00     0.00     0.00     0.00     0.00
eigval :       14.46    19.37    22.80    42.69    46.66    49.58
eigval :       62.50    62.67    80.83    84.64   109.96   139.25
eigval :      143.80   168.38   180.11   215.57   234.95   243.66
eigval :      253.35   256.21   267.82   287.84   298.79   338.60
eigval :      355.82   372.80   379.44   380.55   394.74   404.07
eigval :      426.71   429.83   442.29   456.68   463.41   499.95
eigval :      509.20   510.35   523.11   542.14   547.81   552.67
eigval :      573.53   581.26   586.83   589.72   614.77   617.06
eigval :      628.10   660.90   665.28   667.25   668.27   669.18
eigval :      682.85   689.89   711.02   755.48   759.08   772.84
eigval :      774.46   785.98   786.54   790.84   828.52   848.53
eigval :      854.73   864.33   865.00   870.81   872.28   873.43
eigval :      897.37   898.15   899.73   902.37   912.50   913.61
eigval :      914.81   922.52   926.67   926.90   928.45   932.21
eigval :      971.56   990.60  1006.45  1078.51  1080.47  1083.43
eigval :     1085.54  1101.33  1110.79  1114.60  1117.33  1118.06
eigval :     1128.32  1160.67  1170.42  1177.50  1178.03  1178.25
eigval :     1188.84  1194.60  1196.95  1204.09  1218.25  1229.70
eigval :     1236.73  1252.50  1259.62  1266.03  1275.34  1279.20
eigval :     1280.85  1296.23  1307.01  1309.75  1317.02  1319.16
eigval :     1322.06  1339.35  1352.76  1390.82  1410.12  1417.33
eigval :     1427.25  1427.88  1439.24  1446.19  1457.93  1468.57
eigval :     1471.28  1483.36  1503.73  1521.48  1556.95  1564.39
eigval :     1569.33  1569.62  1573.97  1585.94  1586.57  1588.24
eigval :     3070.96  3071.13  3072.64  3073.06  3081.07  3081.48
eigval :     3085.20  3086.75  3086.98  3092.23  3092.86  3093.28
eigval :     3093.75  3097.17  3100.19  3101.65  3102.06  3109.07
eigval :     3110.46  3113.57  3114.13

   temp. (K)  partition function   enthalpy   heat capacity  entropy
                                   cal/mol     cal/K/mol   cal/K/mol   J/K/mol
 298.15  VIB  0.576E+12            15836.283    103.143     97.148
         ROT  0.372E+08              888.752      2.981     37.622
         INT  0.214E+20            16725.035    106.124    134.770
         TR   0.966E+28             1481.254      4.968     44.270
         TOT                       18206.2892   111.0920   179.0397   749.1022

       T/K    H(0)-H(T)+PV         H(T)/Eh          T*S/Eh         G(T)/Eh
   ------------------------------------------------------------------------
    298.15    0.290136E-01    0.456370E+00    0.850675E-01    0.371303E+00
   ------------------------------------------------------------------------

         :::::::::::::::::::::::::::::::::::::::::::::::::::::
         ::                  THERMODYNAMIC                  ::
         :::::::::::::::::::::::::::::::::::::::::::::::::::::
         :: total free energy         -91.694407419995 Eh   ::
         ::.................................................::
         :: total energy              -92.065710130341 Eh   ::
         :: zero point energy           0.427356689544 Eh   ::
         :: G(RRHO) w/o ZPVE           -0.056053979198 Eh   ::
         :: G(RRHO) contrib.            0.371302710346 Eh   ::
         :::::::::::::::::::::::::::::::::::::::::::::::::::::

           -------------------------------------------------
          | TOTAL ENERGY              -92.065710130341 Eh   |
          | TOTAL ENTHALPY            -91.609339872171 Eh   |
          | TOTAL FREE ENERGY         -91.694407419995 Eh   |
          | GRADIENT NORM               0.000082883388 Eh/α |
          | HOMO-LUMO GAP               0.884778299697 eV   |
           -------------------------------------------------

 * finished run on 2025/08/30 at 12:48:09.149
