   * xtb version 6.7.1 (edcfbbe) compiled by 'albert@albert-system' on 2024-07-22

   ID    Z sym.   atoms
    1    6 C      1-12, 14-17, 19-22, 24-39
    2    7 N      13, 18, 23
    3    1 H      40-64

          program call               : xtb data2507/toluene/Ph-CF3/Ph-CF3_toluene_S0_crest.xyz --gfn 2 --gbsa toluene --ohess vtight --parallel 40 --molden --ceasefiles --namespace data2507/toluene/Ph-CF3/Ph-CF3_toluene_S0_finalOpt
      * Solvation model:               GBSA
        Solvent                        toluene
        Solvent mass                       9.2140E+01 g/mol
          :  Hamiltonian                  GFN2-xTB          :
 * total energy  :   -98.7184463 Eh     change       -0.3339153E-08 Eh
 * total energy  :   -98.7184718 Eh     change       -0.2555115E-04 Eh
 * total energy  :   -98.7184862 Eh     change       -0.1437894E-04 Eh
 * total energy  :   -98.7184938 Eh     change       -0.7573223E-05 Eh
 * total energy  :   -98.7185047 Eh     change       -0.1093452E-04 Eh
 * total energy  :   -98.7185057 Eh     change       -0.9181639E-06 Eh
 * total energy  :   -98.7185095 Eh     change       -0.3852318E-05 Eh
 * total energy  :   -98.7185124 Eh     change       -0.2941168E-05 Eh
 * total energy  :   -98.7185140 Eh     change       -0.1521685E-05 Eh
 * total energy  :   -98.7185151 Eh     change       -0.1091111E-05 Eh
 * total energy  :   -98.7185174 Eh     change       -0.4815221E-06 Eh
 * total energy  :   -98.7185178 Eh     change       -0.4468738E-06 Eh
 * total energy  :   -98.7185183 Eh     change       -0.4408928E-06 Eh
 * total energy  :   -98.7185188 Eh     change       -0.5379488E-06 Eh
 * total energy  :   -98.7185196 Eh     change       -0.7895189E-06 Eh
 * total energy  :   -98.7185207 Eh     change       -0.1102793E-05 Eh
 * total energy  :   -98.7185219 Eh     change       -0.1176541E-05 Eh
 * total energy  :   -98.7185228 Eh     change       -0.9849052E-06 Eh
 * total energy  :   -98.7185229 Eh     change       -0.7974819E-08 Eh
   *** GEOMETRY OPTIMIZATION CONVERGED AFTER 22 ITERATIONS ***

 final structure:
================
64
 xtb: 6.7.1 (edcfbbe)
C            7.37470532612782       -3.06039580744720       -1.67729306619375
C            6.10810707831389       -3.41028380937089       -1.21197491291789
C            5.27160721334181       -2.47892974738928       -0.62750188316850
C            5.72830867084044       -1.17201166105721       -0.52313558862197
C            7.02054846228690       -0.81177402646451       -0.97315582082176
C            7.84289966085427       -1.76693859031082       -1.55780606512851
C            7.17991286404057        0.58418495251033       -0.67608504681090
C            8.20628462996236        1.49718669476043       -0.88399949227683
C            8.02102638258031        2.80511748894463       -0.48210127471581
C            6.82639387818212        3.21072448293346        0.11086410854053
C            5.79131782777913        2.32197478099186        0.32887899957740
C            5.97866353319165        1.00118711296719       -0.05559390037901
N            5.11196111531280       -0.06825530334934        0.02816060129898
C            3.82141513440399       -0.03758967897613        0.58476495720216
C            3.62373142239853        0.44189053388424        1.87682225260746
C            2.35537072816077        0.48503811351928        2.41492150111670
C            1.24864591232524        0.04412483308375        1.68262219983390
N            0.00239219531207        0.08203799505680        2.27994895774338
C           -1.24796428774672        0.08415556489868        1.68962084679908
C           -2.34531484211882       -0.34590279798620        2.44197242477899
C           -3.61627200964215       -0.33923317639231        1.90819231183698
C           -3.82579444222950        0.09191758599121        0.60107544402535
N           -5.11739854093041        0.07753257943446        0.04659345382267
C           -5.75307842148511        1.14469590491022       -0.55263824905257
C           -5.32386668222328        2.45601389286395       -0.70660350537833
C           -6.17534198767106        3.34437114833463       -1.33478889089179
C           -7.43014850872675        2.94830305503061       -1.79499151330878
C           -7.87142793859023        1.65095411604443       -1.62604911978357
C           -7.03337233177827        0.73836629363945       -0.99744769034581
C           -7.16448091510567       -0.64810665785707       -0.64709195634684
C           -8.16788802973122       -1.59172014639771       -0.82889921653463
C           -7.95693400321817       -2.87885292133018       -0.37583729652265
C           -6.75891759738773       -3.23409862630504        0.24200768457160
C           -5.74626877189020       -2.31421560915342        0.43455200304629
C           -5.95952378049763       -1.01367432428531       -0.00194126950148
C           -2.74246755433725        0.54699986129534       -0.14442034113784
C           -1.47215816518315        0.55709844619329        0.39483789022301
C            1.45999953071428       -0.47307619192394        0.40267721401212
C            2.72801919770221       -0.49953857087755       -0.14146763783736
H            7.99799987652476       -3.81730739375717       -2.13093520635655
H            5.77500699108785       -4.43370866184168       -1.30765261889439
H            4.29797768650455       -2.76171426729087       -0.25643603314439
H            8.82961868335652       -1.49992142978237       -1.90654781398030
H            9.12761230841108        1.18682381963159       -1.35452176139280
H            8.80806943258859        3.52967103967574       -0.63314703509218
H            6.70665205016486        4.24398856325619        0.40337340923891
H            4.86414446985790        2.64708910910101        0.77662448378647
H            4.47120415112948        0.77444674472423        2.45751746456309
H            2.21207867360813        0.85780379790690        3.41919883722877
H            0.00567808539263        0.09717293386161        3.29012155482283
H           -2.19289922389048       -0.68139178731030        3.45801012775726
H           -4.45674415769983       -0.66364504911112        2.50343362483550
H           -4.35958189782503        2.77487309671609       -0.34021389700522
H           -5.86361369185449        4.37012519768719       -1.46934049268582
H           -8.06594145255011        3.67250866599941       -2.28335441959129
H           -8.84939233944567        1.34847112689765       -1.97046978247617
H           -9.09149332357357       -1.32072472977210       -1.31885732594491
H           -8.72562569333857       -3.62671031085156       -0.50621348678377
H           -6.61820768582913       -4.25281355405029        0.57366421950428
H           -4.81587463726731       -2.60119728882660        0.90113781937495
H           -2.90067228809374        0.89637337780920       -1.15384513033187
H           -0.65239339895152        0.95216933398821       -0.18373702092880
H            0.63233335047899       -0.87488016935388       -0.15975326026169
H            2.87685333157622       -0.88428133392359       -1.13940975820081

          :  Hamiltonian                  GFN2-xTB          :
         :: gradient norm              0.000066980580 Eh/a0 ::
         :: HOMO-LUMO gap              2.876070385628 eV    ::
         :: SCC energy              -100.573428288577 Eh    ::
         :: -> dispersion             -0.084564623861 Eh    ::
         :: -> Gsolv                  -0.040783645729 Eh    ::
         :: repulsion energy           1.854905438129 Eh    ::

    * Orbital Energies and Occupations

         #    Occupation            Energy/Eh            Energy/eV
      -------------------------------------------------------------
         1        2.0000           -0.6733830             -18.3237
       ...           ...                  ...                  ...
        80        2.0000           -0.4171584             -11.3515
        81        2.0000           -0.4167671             -11.3408
        82        2.0000           -0.4161112             -11.3230
        83        2.0000           -0.4125768             -11.2268
        84        2.0000           -0.4118075             -11.2059
        85        2.0000           -0.4107385             -11.1768
        86        2.0000           -0.4032492             -10.9730
        87        2.0000           -0.4032009             -10.9717
        88        2.0000           -0.3765564             -10.2466
        89        2.0000           -0.3765117             -10.2454
        90        2.0000           -0.3724160             -10.1340
        91        2.0000           -0.3607443              -9.8164
        92        2.0000           -0.3507670              -9.5449 (HOMO)
        93                         -0.2450733              -6.6688 (LUMO)
        94                         -0.2432141              -6.6182
        95                         -0.2369015              -6.4464
        96                         -0.2308305              -6.2812
        97                         -0.2297934              -6.2530
        98                         -0.2200060              -5.9867
        99                         -0.2199662              -5.9856
       100                         -0.2127075              -5.7881
       101                         -0.1894330              -5.1547
       102                         -0.1844296              -5.0186
       103                         -0.1842080              -5.0126
       ...                                ...                  ...
       181                          0.7465377              20.3143
      -------------------------------------------------------------
                  HL-Gap            0.1056936 Eh            2.8761 eV

     #   Z          covCN         q      C6AA      α(0)
     1   6 C        2.919    -0.044    29.085     8.844
     2   6 C        2.924    -0.036    28.889     8.814
     3   6 C        2.909    -0.053    29.306     8.877
     4   6 C        3.078     0.047    26.862     8.497
     5   6 C        3.067    -0.020    28.432     8.743
     6   6 C        2.912    -0.036    28.883     8.813
     7   6 C        3.067    -0.020    28.432     8.743
     8   6 C        2.912    -0.035    28.883     8.813
     9   6 C        2.919    -0.044    29.086     8.844
    10   6 C        2.924    -0.036    28.891     8.815
    11   6 C        2.909    -0.053    29.305     8.877
    12   6 C        3.078     0.047    26.860     8.497
    13   7 N        2.802    -0.047    22.141     6.989
    14   6 C        2.911     0.051    26.847     8.496
    15   6 C        2.920    -0.041    29.022     8.834
    16   6 C        2.925    -0.058    29.441     8.898
    17   6 C        2.902     0.067    26.492     8.439
    18   7 N        2.700    -0.145    24.142     7.297
    19   6 C        2.902     0.067    26.494     8.440
    20   6 C        2.925    -0.058    29.438     8.898
    21   6 C        2.920    -0.041    29.023     8.835
    22   6 C        2.911     0.052    26.843     8.496
    23   7 N        2.802    -0.047    22.140     6.988
    24   6 C        3.077     0.047    26.862     8.497
    25   6 C        2.909    -0.053    29.305     8.877
    26   6 C        2.924    -0.036    28.889     8.814
    27   6 C        2.919    -0.044    29.085     8.844
    28   6 C        2.912    -0.035    28.883     8.813
    29   6 C        3.068    -0.020    28.431     8.743
    30   6 C        3.067    -0.020    28.431     8.743
    31   6 C        2.912    -0.035    28.883     8.813
    32   6 C        2.919    -0.044    29.086     8.844
    33   6 C        2.924    -0.036    28.890     8.814
    34   6 C        2.909    -0.053    29.305     8.877
    35   6 C        3.078     0.047    26.861     8.497
    36   6 C        2.921    -0.042    29.052     8.839
    37   6 C        2.921    -0.053    29.309     8.878
    38   6 C        2.921    -0.053    29.315     8.879
    39   6 C        2.921    -0.042    29.051     8.839
    40   1 H        0.926     0.026     2.645     2.543
    41   1 H        0.926     0.028     2.608     2.525
    42   1 H        0.926     0.029     2.596     2.520
    43   1 H        0.926     0.028     2.613     2.528
    44   1 H        0.926     0.028     2.614     2.528
    45   1 H        0.926     0.026     2.646     2.544
    46   1 H        0.926     0.029     2.608     2.525
    47   1 H        0.926     0.029     2.598     2.520
    48   1 H        0.926     0.042     2.419     2.432
    49   1 H        0.926     0.037     2.486     2.465
    50   1 H        0.860     0.166     1.295     1.782
    51   1 H        0.926     0.037     2.485     2.465
    52   1 H        0.926     0.042     2.417     2.431
    53   1 H        0.926     0.029     2.595     2.519
    54   1 H        0.926     0.029     2.607     2.525
    55   1 H        0.926     0.026     2.645     2.543
    56   1 H        0.926     0.028     2.613     2.528
    57   1 H        0.926     0.028     2.613     2.528
    58   1 H        0.926     0.026     2.645     2.543
    59   1 H        0.926     0.029     2.607     2.525
    60   1 H        0.926     0.029     2.597     2.520
    61   1 H        0.926     0.042     2.416     2.431
    62   1 H        0.926     0.046     2.364     2.405
    63   1 H        0.926     0.046     2.366     2.406
    64   1 H        0.926     0.042     2.417     2.431

molecular dipole:
                 x           y           z       tot (Debye)
 q only:       -0.010       0.034       0.987
   full:       -0.009       0.034       1.140       2.899

 projected vibrational frequencies (cm⁻¹)
eigval :       -0.00    -0.00     0.00     0.00     0.00     0.00
eigval :        8.23     9.85    10.35    34.07    35.30    54.96
eigval :       59.17    68.67    99.67   100.65   102.80   129.49
eigval :      140.36   141.75   152.09   175.52   186.13   225.40
eigval :      229.83   251.66   269.86   270.00   283.27   315.99
eigval :      348.64   372.67   378.01   380.73   389.55   396.10
eigval :      398.91   407.26   417.26   421.17   427.58   433.33
eigval :      435.78   448.14   487.95   490.93   518.54   518.57
eigval :      531.97   532.49   539.80   539.98   579.00   579.21
eigval :      586.09   591.64   595.37   596.57   616.73   638.72
eigval :      672.64   672.83   674.04   675.33   701.97   704.26
eigval :      709.17   710.09   755.11   755.48   764.92   767.42
eigval :      776.27   779.97   803.24   807.14   822.52   855.40
eigval :      862.60   865.73   869.83   871.52   875.53   882.54
eigval :      895.26   896.30   896.54   897.02   898.57   902.76
eigval :      909.35   913.22   917.28   919.59   920.14   923.55
eigval :      925.73   933.73   944.75   949.33  1010.68  1010.79
eigval :     1016.84  1021.19  1067.78  1067.93  1071.44  1071.61
eigval :     1116.21  1117.04  1132.25  1143.09  1150.50  1150.77
eigval :     1174.84  1174.89  1180.32  1180.60  1181.85  1184.05
eigval :     1195.54  1200.32  1227.88  1234.03  1235.33  1235.52
eigval :     1242.81  1253.70  1272.99  1277.52  1298.77  1299.84
eigval :     1304.02  1304.37  1324.47  1329.67  1355.28  1355.47
eigval :     1359.00  1361.63  1361.67  1367.66  1391.63  1420.68
eigval :     1426.58  1427.72  1430.37  1433.18  1452.56  1474.81
eigval :     1474.96  1487.32  1487.38  1493.71  1494.61  1560.47
eigval :     1561.18  1572.33  1572.44  1586.78  1587.00  1596.48
eigval :     1596.55  1601.02  1603.17  1612.99  1613.19  3069.01
eigval :     3069.07  3069.41  3069.50  3071.81  3072.21  3074.59
eigval :     3074.69  3075.33  3075.41  3082.87  3082.95  3083.92
eigval :     3084.18  3087.60  3088.33  3089.69  3089.78  3091.76
eigval :     3092.13  3092.77  3093.15  3105.58  3107.99  3420.93

   temp. (K)  partition function   enthalpy   heat capacity  entropy
                                   cal/mol     cal/K/mol   cal/K/mol   J/K/mol
 298.15  VIB  0.192E+14            17137.831    112.997    105.661
         ROT  0.639E+08              888.752      2.981     38.699
         INT  0.123E+22            18026.583    115.978    144.359
         TR   0.108E+29             1481.254      4.968     44.493
         TOT                       19507.8368   120.9462   188.8523   790.1580

       T/K    H(0)-H(T)+PV         H(T)/Eh          T*S/Eh         G(T)/Eh
   ------------------------------------------------------------------------
    298.15    0.310877E-01    0.525970E+00    0.897298E-01    0.436240E+00
   ------------------------------------------------------------------------

         :::::::::::::::::::::::::::::::::::::::::::::::::::::
         ::                  THERMODYNAMIC                  ::
         :::::::::::::::::::::::::::::::::::::::::::::::::::::
         :: total free energy         -98.282282429244 Eh   ::
         ::.................................................::
         :: total energy              -98.718522855029 Eh   ::
         :: zero point energy           0.494882526711 Eh   ::
         :: G(RRHO) w/o ZPVE           -0.058642100926 Eh   ::
         :: G(RRHO) contrib.            0.436240425785 Eh   ::
         :::::::::::::::::::::::::::::::::::::::::::::::::::::

           -------------------------------------------------
          | TOTAL ENERGY              -98.718522855029 Eh   |
          | TOTAL ENTHALPY            -98.192552611516 Eh   |
          | TOTAL FREE ENERGY         -98.282282429244 Eh   |
          | GRADIENT NORM               0.000066973393 Eh/α |
          | HOMO-LUMO GAP               2.876070407341 eV   |
           -------------------------------------------------

 * finished run on 2025/08/25 at 06:31:41.987
