   * xtb version 6.7.1 (edcfbbe) compiled by 'albert@albert-system' on 2024-07-22

   ID    Z sym.   atoms
    1    6 C      1-12, 14-17, 19-22, 24-39
    2    7 N      13, 18, 23
    3    1 H      40-64

          program call               : xtb data2507/toluene/Ph-CF3/Ph-CF3_toluene_T1_crest.xyz --gfn 2 --uhf 2 --gbsa toluene --ohess vtight --parallel 40 --molden --ceasefiles --namespace data2507/toluene/Ph-CF3/Ph-CF3_toluene_T1_finalOpt
      * Solvation model:               GBSA
        Solvent                        toluene
        Solvent mass                       9.2140E+01 g/mol
          :  Hamiltonian                  GFN2-xTB          :
 * total energy  :   -98.6167087 Eh     change       -0.2714600E-08 Eh
 * total energy  :   -98.6167412 Eh     change       -0.3255951E-04 Eh
 * total energy  :   -98.6167500 Eh     change       -0.8752360E-05 Eh
 * total energy  :   -98.6167514 Eh     change       -0.1419538E-05 Eh
 * total energy  :   -98.6167520 Eh     change       -0.6604705E-06 Eh
 * total energy  :   -98.6167525 Eh     change       -0.4949458E-06 Eh
 * total energy  :   -98.6167530 Eh     change       -0.4274453E-06 Eh
 * total energy  :   -98.6167533 Eh     change       -0.3422652E-06 Eh
 * total energy  :   -98.6167538 Eh     change       -0.4457788E-06 Eh
 * total energy  :   -98.6167543 Eh     change       -0.5875803E-06 Eh
 * total energy  :   -98.6167583 Eh     change       -0.4866031E-06 Eh
 * total energy  :   -98.6167590 Eh     change       -0.6895646E-06 Eh
 * total energy  :   -98.6167598 Eh     change       -0.8338996E-06 Eh
 * total energy  :   -98.6167605 Eh     change       -0.7035781E-06 Eh
 * total energy  :   -98.6167610 Eh     change       -0.4183739E-06 Eh
 * total energy  :   -98.6167610 Eh     change        0.1017256E-08 Eh
 * total energy  :   -98.6167609 Eh     change        0.7532790E-08 Eh
 * total energy  :   -98.6167609 Eh     change        0.1087234E-07 Eh
 * total energy  :   -98.6167610 Eh     change       -0.9933819E-07 Eh
   *** GEOMETRY OPTIMIZATION CONVERGED AFTER 25 ITERATIONS ***

 final structure:
================
64
 xtb: 6.7.1 (edcfbbe)
C            6.53446479609053       -3.62636960860408        1.29777846480079
C            5.16518009583737       -3.40506219509945        1.44293427354219
C            4.58574351405491       -2.20656469661536        1.05089410874857
C            5.40412280873024       -1.23615035090634        0.49868847620520
C            6.80598482515095       -1.43771989240490        0.38424486028685
C            7.36402064805160       -2.65160860848589        0.78011717138547
C            7.35420994079877       -0.22974419160911       -0.14468259969871
C            8.64474260596548        0.16739740963247       -0.48878228398570
C            8.82965654589725        1.42086490862382       -1.03730455928224
C            7.75027960741358        2.27405989121518       -1.26546276729954
C            6.45715994332870        1.90376334436874       -0.92407062787397
C            6.26651219382928        0.66402843448754       -0.33824429422283
N            5.09072377746685        0.04333288368859        0.06065452023278
C            3.82575076539133        0.59951178519275        0.03040635606712
C            2.72126799074032       -0.14330462046342       -0.44224839968626
C            1.46670902223165        0.39594845529365       -0.46723789196506
C            1.23726022447406        1.71265879906245       -0.00058494242227
N            0.00059627720214        2.29736109014431        0.00267082414445
C           -1.23625195156596        1.71293632212273        0.00455812587584
C           -2.35282718843438        2.47295534756926       -0.42287663982857
C           -3.60684065645692        1.93388713709074       -0.44316721224334
C           -3.82514343779108        0.60061543169667       -0.02885145727237
N           -5.09038309713403        0.04513168154672       -0.05992965786326
C           -5.40455364337119       -1.23380174620385       -0.49913378095705
C           -4.58675899648689       -2.20435686667639       -1.05190357490640
C           -5.16692934028687       -3.40222770393963       -1.44495720413737
C           -6.53641030903778       -3.62273771706791       -1.30020625944818
C           -7.36541487957638       -2.64781156413946       -0.78202331087575
C           -6.80664059701036       -1.43449624304916       -0.38517081774623
C           -7.35418646397475       -0.22662195991296        0.14447895279224
C           -8.64465323675331        0.17122497475179        0.48830674452997
C           -8.82889808169158        1.42436998134810        1.03774329390623
C           -7.74898220554744        2.27657980489133        1.26717159784324
C           -6.45593825182535        1.90560190626616        0.92604677393425
C           -6.26590973711858        0.66627655285431        0.33920580091494
C           -2.72098035398477       -0.14325158701714        0.44301341726606
C           -1.46626386463602        0.39557559518156        0.46913137898269
C            2.35419234181326        2.47171417213814        0.42757911839045
C            3.60807110447991        1.93224743067980        0.44660917081190
H            6.95070883605782       -4.57401767959685        1.60854966541641
H            4.54473471930475       -4.17686287100323        1.87370569537214
H            3.52885788677457       -2.04048888351699        1.19224525165112
H            8.42689018122057       -2.81902125610055        0.68800238041152
H            9.47967610541252       -0.50002853727163       -0.33504641226196
H            9.82393513157406        1.74475400364175       -1.31012060971687
H            7.92143955728628        3.23758485524184       -1.72208748659165
H            5.62880861770179        2.56324414088718       -1.13280861566163
H            2.89279499670346       -1.12897004001869       -0.84712189034485
H            0.65098475334785       -0.15765541225190       -0.90436507651722
H            0.00070847574223        3.31206443867862        0.00360724195741
H           -2.19438950538276        3.48463476888813       -0.76793112315095
H           -4.43781406785443        2.50717008400069       -0.82375903013514
H           -3.52973782114812       -2.03891993659725       -1.19298040172280
H           -4.54690646320188       -4.17412080914715       -1.87616171800246
H           -6.95320446844111       -4.56993060264847       -1.61162235255869
H           -8.42840008198132       -2.81460995233881       -0.69013782190447
H           -9.48000362540892       -0.49545427756148        0.33360150157479
H           -9.82307317689667        1.74879380674215        1.31030753188959
H           -7.91962574063117        3.23984264957044        1.72454017710207
H           -5.62723180261010        2.56431001814806        1.13579658269862
H           -2.89290711346665       -1.12943403861139        0.84643906130640
H           -0.65083896124610       -0.15895004318133        0.90564275904049
H            2.19616715222610        3.48291890642491        0.77422315931401
H            4.43938811035214        2.50475523577328        0.82763690388763

          :  Hamiltonian                  GFN2-xTB          :
         :: gradient norm              0.000123493424 Eh/a0 ::
         :: HOMO-LUMO gap              0.147816124397 eV    ::
         :: SCC energy              -100.451377902514 Eh    ::
         :: -> dispersion             -0.084842638110 Eh    ::
         :: -> Gsolv                  -0.041552704072 Eh    ::
         :: repulsion energy           1.834616867886 Eh    ::

    * Orbital Energies and Occupations

         #    Occupation            Energy/Eh            Energy/eV
      -------------------------------------------------------------
         1        2.0000           -0.6745544             -18.3556
       ...           ...                  ...                  ...
        81        2.0000           -0.4147149             -11.2850
        82        2.0000           -0.4142717             -11.2729
        83        2.0000           -0.4135849             -11.2542
        84        2.0000           -0.4118338             -11.2066
        85        2.0000           -0.4074964             -11.0885
        86        2.0000           -0.4022970             -10.9471
        87        2.0000           -0.4022405             -10.9455
        88        2.0000           -0.3802137             -10.3461
        89        2.0000           -0.3728141             -10.1448
        90        2.0000           -0.3727784             -10.1438
        91        1.9995           -0.3615444              -9.8381
        92        1.0005           -0.3471940              -9.4476
        93        0.9455           -0.2485212              -6.7626 (HOMO)
        94        0.0540           -0.2430892              -6.6148 (LUMO)
        95        0.0004           -0.2384807              -6.4894
        96                         -0.2282194              -6.2102
        97                         -0.2273531              -6.1866
        98                         -0.2187284              -5.9519
        99                         -0.2187069              -5.9513
       100                         -0.2172284              -5.9111
       101                         -0.1892030              -5.1485
       102                         -0.1829536              -4.9784
       103                         -0.1825298              -4.9669
       104                         -0.1825173              -4.9665
       ...                                ...                  ...
       181                          0.7467834              20.3210
      -------------------------------------------------------------
                  HL-Gap            0.0054320 Eh            0.1478 eV

     #   Z          covCN         q      C6AA      α(0)
     1   6 C        2.918    -0.039    28.965     8.826
     2   6 C        2.922    -0.045    29.126     8.850
     3   6 C        2.909    -0.049    29.216     8.863
     4   6 C        3.064     0.040    27.045     8.528
     5   6 C        3.061    -0.022    28.488     8.753
     6   6 C        2.911    -0.039    28.978     8.827
     7   6 C        3.061    -0.022    28.488     8.753
     8   6 C        2.911    -0.039    28.978     8.827
     9   6 C        2.918    -0.039    28.967     8.826
    10   6 C        2.922    -0.045    29.130     8.851
    11   6 C        2.909    -0.049    29.222     8.864
    12   6 C        3.063     0.040    27.049     8.529
    13   7 N        2.794    -0.019    21.610     6.904
    14   6 C        2.909     0.043    27.045     8.527
    15   6 C        2.915    -0.044    29.105     8.847
    16   6 C        2.913    -0.048    29.191     8.860
    17   6 C        2.901     0.046    26.964     8.514
    18   7 N        2.698    -0.087    22.932     7.112
    19   6 C        2.901     0.046    26.965     8.514
    20   6 C        2.917    -0.054    29.348     8.884
    21   6 C        2.914    -0.044    29.082     8.843
    22   6 C        2.909     0.043    27.045     8.528
    23   7 N        2.794    -0.019    21.610     6.904
    24   6 C        3.064     0.040    27.046     8.528
    25   6 C        2.909    -0.049    29.216     8.863
    26   6 C        2.922    -0.045    29.127     8.850
    27   6 C        2.918    -0.039    28.965     8.825
    28   6 C        2.911    -0.039    28.979     8.827
    29   6 C        3.060    -0.022    28.489     8.753
    30   6 C        3.061    -0.022    28.488     8.753
    31   6 C        2.911    -0.039    28.978     8.827
    32   6 C        2.918    -0.039    28.966     8.826
    33   6 C        2.922    -0.046    29.131     8.851
    34   6 C        2.909    -0.049    29.222     8.864
    35   6 C        3.063     0.040    27.050     8.529
    36   6 C        2.915    -0.044    29.105     8.847
    37   6 C        2.913    -0.048    29.190     8.860
    38   6 C        2.917    -0.054    29.348     8.884
    39   6 C        2.914    -0.044    29.082     8.843
    40   1 H        0.926     0.024     2.668     2.554
    41   1 H        0.926     0.025     2.657     2.549
    42   1 H        0.926     0.031     2.567     2.505
    43   1 H        0.926     0.025     2.658     2.550
    44   1 H        0.926     0.025     2.658     2.550
    45   1 H        0.926     0.024     2.668     2.554
    46   1 H        0.926     0.025     2.658     2.550
    47   1 H        0.926     0.031     2.568     2.506
    48   1 H        0.926     0.043     2.407     2.426
    49   1 H        0.926     0.049     2.337     2.391
    50   1 H        0.860     0.177     1.233     1.740
    51   1 H        0.926     0.038     2.473     2.459
    52   1 H        0.926     0.044     2.401     2.423
    53   1 H        0.926     0.031     2.567     2.505
    54   1 H        0.926     0.025     2.657     2.549
    55   1 H        0.926     0.024     2.668     2.554
    56   1 H        0.926     0.025     2.659     2.550
    57   1 H        0.926     0.025     2.659     2.550
    58   1 H        0.926     0.024     2.668     2.555
    59   1 H        0.926     0.025     2.659     2.550
    60   1 H        0.926     0.031     2.568     2.506
    61   1 H        0.926     0.043     2.407     2.426
    62   1 H        0.926     0.049     2.337     2.391
    63   1 H        0.926     0.038     2.473     2.459
    64   1 H        0.926     0.044     2.401     2.423

molecular dipole:
                 x           y           z       tot (Debye)
 q only:        0.004       1.339       0.001
   full:        0.004       1.490       0.001       3.786

 projected vibrational frequencies (cm⁻¹)
eigval :       -0.00    -0.00    -0.00     0.00     0.00     0.00
eigval :       13.02    13.28    18.23    37.44    41.71    59.78
eigval :       60.71    81.71   104.89   106.23   110.80   137.15
eigval :      142.87   146.45   171.02   180.21   190.28   215.67
eigval :      232.98   264.73   265.05   270.65   293.84   299.95
eigval :      324.35   327.34   377.61   382.18   384.02   390.46
eigval :      404.51   404.77   410.48   414.37   429.83   436.25
eigval :      441.46   446.22   452.39   512.53   512.56   524.96
eigval :      525.04   538.85   539.26   567.35   567.54   573.82
eigval :      578.57   582.34   585.37   600.74   612.37   623.00
eigval :      642.32   645.57   661.07   661.14   690.35   690.66
eigval :      695.85   701.17   750.28   750.91   756.34   756.55
eigval :      765.00   765.25   784.96   785.95   804.75   812.86
eigval :      844.81   852.17   853.58   854.82   858.09   860.50
eigval :      881.46   882.69   885.58   891.29   891.45   891.66
eigval :      902.72   903.17   906.69   907.67   910.96   912.25
eigval :      913.04   913.48   918.51   933.16   983.30   985.16
eigval :     1004.40  1004.50  1063.50  1064.27  1064.41  1068.73
eigval :     1104.47  1106.18  1128.94  1138.13  1140.33  1142.64
eigval :     1144.98  1172.31  1173.55  1174.60  1174.70  1175.29
eigval :     1182.34  1189.17  1197.54  1222.50  1222.69  1224.24
eigval :     1227.60  1235.61  1256.31  1264.55  1277.88  1279.50
eigval :     1286.75  1299.51  1325.91  1326.03  1332.26  1338.99
eigval :     1343.97  1344.77  1351.71  1357.09  1370.70  1371.94
eigval :     1401.39  1401.55  1402.86  1413.90  1418.69  1445.84
eigval :     1450.70  1453.25  1457.84  1466.96  1473.87  1478.19
eigval :     1488.27  1513.92  1515.76  1518.37  1518.56  1533.33
eigval :     1562.84  1563.42  1565.23  1565.28  1595.95  3066.88
eigval :     3066.95  3068.42  3068.57  3071.76  3072.10  3076.45
eigval :     3076.48  3077.34  3077.43  3083.43  3083.52  3084.52
eigval :     3084.90  3089.13  3090.04  3092.51  3092.58  3093.03
eigval :     3094.00  3099.50  3099.98  3102.30  3104.37  3351.62

   temp. (K)  partition function   enthalpy   heat capacity  entropy
                                   cal/mol     cal/K/mol   cal/K/mol   J/K/mol
 298.15  VIB  0.288E+13            17226.909    115.187    104.342
         ROT  0.306E+08              888.752      2.981     37.233
         INT  0.880E+20            18115.661    118.168    141.575
         TR   0.108E+29             1481.254      4.968     44.493
         TOT                       19596.9153   123.1357   186.0683   778.5098

       T/K    H(0)-H(T)+PV         H(T)/Eh          T*S/Eh         G(T)/Eh
   ------------------------------------------------------------------------
    298.15    0.312297E-01    0.521121E+00    0.884071E-01    0.432714E+00
   ------------------------------------------------------------------------

         :::::::::::::::::::::::::::::::::::::::::::::::::::::
         ::                  THERMODYNAMIC                  ::
         :::::::::::::::::::::::::::::::::::::::::::::::::::::
         :: total free energy         -98.184046748437 Eh   ::
         ::.................................................::
         :: total energy              -98.616761034058 Eh   ::
         :: zero point energy           0.489891674242 Eh   ::
         :: G(RRHO) w/o ZPVE           -0.057177388622 Eh   ::
         :: G(RRHO) contrib.            0.432714285621 Eh   ::
         :::::::::::::::::::::::::::::::::::::::::::::::::::::

           -------------------------------------------------
          | TOTAL ENERGY              -98.616761034058 Eh   |
          | TOTAL ENTHALPY            -98.095639687365 Eh   |
          | TOTAL FREE ENERGY         -98.184046748437 Eh   |
          | GRADIENT NORM               0.000124868233 Eh/α |
          | HOMO-LUMO GAP               0.147810945068 eV   |
           -------------------------------------------------

 * finished run on 2025/08/25 at 06:35:54.297
