   * xtb version 6.7.1 (edcfbbe) compiled by 'albert@albert-system' on 2024-07-22

   ID    Z sym.   atoms
    1    6 C      1-12, 14-17, 19-22, 24-39
    2    7 N      13, 18, 23
    3    1 H      40-64

          program call               : xtb data2507/toluene/Ph-CF3/Ph-CF3_toluene_S0_finalOpt.xtbopt.xyz --gfn 2 --uhf 2 --gbsa toluene --ohess vtight --parallel 40 --molden --ceasefiles --namespace data2507/toluene/Ph-CF3/Ph-CF3_toluene_T1_preOpt
      * Solvation model:               GBSA
        Solvent                        toluene
        Solvent mass                       9.2140E+01 g/mol
          :  Hamiltonian                  GFN2-xTB          :
 * total energy  :   -98.6100316 Eh     change       -0.3756867E-08 Eh
 * total energy  :   -98.6129524 Eh     change       -0.2920799E-02 Eh
 * total energy  :   -98.6139229 Eh     change       -0.9705481E-03 Eh
 * total energy  :   -98.6140545 Eh     change       -0.1316176E-03 Eh
 * total energy  :   -98.6141506 Eh     change       -0.9608257E-04 Eh
 * total energy  :   -98.6142004 Eh     change       -0.4976732E-04 Eh
 * total energy  :   -98.6142588 Eh     change       -0.5846737E-04 Eh
 * total energy  :   -98.6143149 Eh     change       -0.5604652E-04 Eh
 * total energy  :   -98.6143491 Eh     change       -0.3421108E-04 Eh
 * total energy  :   -98.6143725 Eh     change       -0.2336252E-04 Eh
 * total energy  :   -98.6151071 Eh     change       -0.1996641E-05 Eh
 * total energy  :   -98.6151088 Eh     change       -0.1669667E-05 Eh
 * total energy  :   -98.6151101 Eh     change       -0.1378186E-05 Eh
 * total energy  :   -98.6151113 Eh     change       -0.1126662E-05 Eh
 * total energy  :   -98.6151122 Eh     change       -0.9229106E-06 Eh
 * total energy  :   -98.6151130 Eh     change       -0.7626086E-06 Eh
 * total energy  :   -98.6151136 Eh     change       -0.6427460E-06 Eh
 * total energy  :   -98.6151142 Eh     change       -0.5533284E-06 Eh
 * total energy  :   -98.6151142 Eh     change       -0.4403105E-08 Eh
   *** GEOMETRY OPTIMIZATION CONVERGED AFTER 94 ITERATIONS ***

 final structure:
================
64
 xtb: 6.7.1 (edcfbbe)
C            7.35989415936525       -2.88023240664436       -2.01541651302339
C            6.07381544654201       -3.25118151536172       -1.62404399988610
C            5.24580528180211       -2.36666818448807       -0.94704044708812
C            5.72949913983756       -1.09846336913329       -0.67496863708832
C            7.05260256125808       -0.72514946248633       -1.03503698758447
C            7.86236006937071       -1.62812626582993       -1.72116148107745
C            7.25804918704960        0.59723040375159       -0.53617358461510
C            8.32705493368636        1.48942115361604       -0.59177193130564
C            8.17767671105786        2.74055282405786       -0.02680384319741
C            6.97923445617181        3.12165813788664        0.57619171114821
C            5.90289381313376        2.24859884447948        0.64938576624542
C            6.05402729175845        0.98134514228149        0.11317234907646
N            5.13533940831724       -0.05415610994797        0.01924887691020
C            3.85383780388068       -0.04582003716482        0.54167891749137
C            3.61716898177954        0.41261405920390        1.85651109088496
C            2.35498390404148        0.41232755917143        2.37615923835349
C            1.24374670141621       -0.00062294775001        1.59930668051891
N            0.00139849237357        0.03490334641298        2.17276144295845
C           -1.24189275136161        0.04842591110140        1.60080660918267
C           -2.35289669073848       -0.32615493795156        2.39732873667318
C           -3.61658859315602       -0.34246590273745        1.88173797532110
C           -3.85511917456834        0.06075965976145        0.54906085755291
N           -5.13757885392889        0.05419517067649        0.02989025400895
C           -5.72386323497641        1.06712156949540       -0.71592255182012
C           -5.23053016939464        2.31616465422244       -1.05163753172757
C           -6.04947244418334        3.16894596008642       -1.77857302291655
C           -7.33634550994628        2.78627159927344       -2.15586096191046
C           -7.84940508928650        1.55562445871308       -1.79673169266961
C           -7.04891618248247        0.68513053911411       -1.05962880068120
C           -7.26471630598489       -0.60865928636056       -0.49479311871956
C           -8.34038208838938       -1.49460037522980       -0.50665246116557
C           -8.19941019573485       -2.71840465305021        0.11721002361156
C           -7.00297448784255       -3.07921920462893        0.73648225772417
C           -5.92059151020383       -2.21106935856632        0.76795449688779
C           -6.06349335868773       -0.96937344071143        0.17309521246256
C           -2.75872931603476        0.49432840095083       -0.22768558675332
C           -1.48783692174998        0.47943013623973        0.27566861285951
C            1.48835233917278       -0.48870318447328        0.29394611764102
C            2.75808867492045       -0.51941094152845       -0.21197590956824
H            7.97511941464166       -3.59281643395448       -2.54612430850951
H            5.71642161514584       -4.24573701955129       -1.84594982251685
H            4.26215231412880       -2.67624164154344       -0.62884967804690
H            8.86625172589654       -1.35175279530526       -2.00749932381521
H            9.25008077730779        1.20535816338502       -1.07500993993430
H            8.99679328975978        3.44468600023277       -0.06111195240210
H            6.88383232355641        4.11511959903989        0.98851274372503
H            4.97311681688827        2.56391471908257        1.09768476265341
H            4.45609749670195        0.71611686771543        2.46381401950170
H            2.18969915717106        0.73500996198424        3.39446039278987
H            0.00237790880568        0.05636729865633        3.18781593919247
H           -2.18606349919393       -0.60688466035844        3.42772593459218
H           -4.45512604359203       -0.61518270193235        2.50402861053719
H           -4.24617005562207        2.63570063180545       -0.74564478899243
H           -5.68415384984816        4.14775437925496       -2.05170816470390
H           -7.94377364899472        3.47336687750255       -2.72758102163511
H           -8.85395912803956        1.27118910095818       -2.07268002805362
H           -9.26168151549846       -1.22743688531231       -1.00262542645088
H           -9.02354898825628       -3.41746444045080        0.11701940336555
H           -6.91393345280964       -4.05298375699331        1.19470630409030
H           -4.99258602007942       -2.51163919827512        1.22975379097216
H           -2.92986481784210        0.80849891417821       -1.24568573964357
H           -0.66998714450537        0.83704990074178       -0.32830205622808
H            0.67083998384202       -0.87750001936962       -0.29096837391353
H            2.92845721888921       -0.87856340804710       -1.21516367884194

          :  Hamiltonian                  GFN2-xTB          :
         :: gradient norm              0.000054862323 Eh/a0 ::
         :: HOMO-LUMO gap              0.140388311379 eV    ::
         :: SCC energy              -100.448933826364 Eh    ::
         :: -> dispersion             -0.084574321049 Eh    ::
         :: -> Gsolv                  -0.041530211414 Eh    ::
         :: repulsion energy           1.833819671119 Eh    ::

    * Orbital Energies and Occupations

         #    Occupation            Energy/Eh            Energy/eV
      -------------------------------------------------------------
         1        2.0000           -0.6742830             -18.3482
       ...           ...                  ...                  ...
        81        2.0000           -0.4146719             -11.2838
        82        2.0000           -0.4146056             -11.2820
        83        2.0000           -0.4135699             -11.2538
        84        2.0000           -0.4133352             -11.2474
        85        2.0000           -0.4078871             -11.0992
        86        2.0000           -0.4024419             -10.9510
        87        2.0000           -0.4024103             -10.9501
        88        2.0000           -0.3779747             -10.2852
        89        2.0000           -0.3729459             -10.1484
        90        2.0000           -0.3728860             -10.1467
        91        1.9985           -0.3616237              -9.8403
        92        1.0015           -0.3493002              -9.5049
        93        0.9376           -0.2483784              -6.7587 (HOMO)
        94        0.0618           -0.2432193              -6.6183 (LUMO)
        95        0.0005           -0.2386484              -6.4940
        96                         -0.2281079              -6.2071
        97                         -0.2274074              -6.1881
        98                         -0.2188489              -5.9552
        99                         -0.2188277              -5.9546
       100                         -0.2169968              -5.9048
       101                         -0.1894496              -5.1552
       102                         -0.1837167              -4.9992
       103                         -0.1826481              -4.9701
       104                         -0.1826130              -4.9692
       ...                                ...                  ...
       181                          0.7466547              20.3175
      -------------------------------------------------------------
                  HL-Gap            0.0051591 Eh            0.1404 eV

     #   Z          covCN         q      C6AA      α(0)
     1   6 C        2.918    -0.039    28.959     8.825
     2   6 C        2.922    -0.045    29.126     8.850
     3   6 C        2.909    -0.049    29.220     8.864
     4   6 C        3.064     0.040    27.037     8.527
     5   6 C        3.061    -0.022    28.486     8.752
     6   6 C        2.911    -0.039    28.980     8.827
     7   6 C        3.060    -0.022    28.487     8.753
     8   6 C        2.911    -0.039    28.980     8.827
     9   6 C        2.918    -0.039    28.960     8.825
    10   6 C        2.922    -0.045    29.128     8.851
    11   6 C        2.909    -0.049    29.217     8.863
    12   6 C        3.065     0.040    27.036     8.526
    13   7 N        2.795    -0.019    21.617     6.905
    14   6 C        2.909     0.043    27.044     8.527
    15   6 C        2.914    -0.043    29.061     8.840
    16   6 C        2.918    -0.054    29.350     8.884
    17   6 C        2.900     0.046    26.957     8.513
    18   7 N        2.699    -0.087    22.945     7.114
    19   6 C        2.900     0.047    26.956     8.513
    20   6 C        2.918    -0.054    29.349     8.884
    21   6 C        2.914    -0.043    29.063     8.840
    22   6 C        2.909     0.043    27.044     8.527
    23   7 N        2.795    -0.019    21.610     6.904
    24   6 C        3.064     0.040    27.041     8.527
    25   6 C        2.909    -0.049    29.218     8.863
    26   6 C        2.922    -0.045    29.129     8.851
    27   6 C        2.918    -0.039    28.957     8.824
    28   6 C        2.911    -0.039    28.980     8.827
    29   6 C        3.061    -0.022    28.487     8.753
    30   6 C        3.060    -0.022    28.489     8.753
    31   6 C        2.911    -0.039    28.981     8.827
    32   6 C        2.918    -0.039    28.958     8.824
    33   6 C        2.922    -0.046    29.132     8.851
    34   6 C        2.909    -0.049    29.216     8.863
    35   6 C        3.065     0.040    27.039     8.527
    36   6 C        2.915    -0.045    29.107     8.847
    37   6 C        2.913    -0.048    29.201     8.861
    38   6 C        2.913    -0.048    29.200     8.861
    39   6 C        2.915    -0.045    29.106     8.847
    40   1 H        0.926     0.025     2.664     2.552
    41   1 H        0.926     0.025     2.656     2.549
    42   1 H        0.926     0.031     2.569     2.507
    43   1 H        0.926     0.025     2.655     2.548
    44   1 H        0.926     0.025     2.656     2.548
    45   1 H        0.926     0.025     2.664     2.553
    46   1 H        0.926     0.025     2.656     2.549
    47   1 H        0.926     0.031     2.572     2.508
    48   1 H        0.926     0.042     2.416     2.431
    49   1 H        0.926     0.037     2.485     2.465
    50   1 H        0.860     0.177     1.231     1.738
    51   1 H        0.926     0.037     2.485     2.465
    52   1 H        0.926     0.043     2.415     2.430
    53   1 H        0.926     0.031     2.568     2.506
    54   1 H        0.926     0.025     2.657     2.549
    55   1 H        0.926     0.025     2.665     2.553
    56   1 H        0.926     0.025     2.655     2.548
    57   1 H        0.926     0.025     2.656     2.549
    58   1 H        0.926     0.025     2.665     2.553
    59   1 H        0.926     0.025     2.657     2.549
    60   1 H        0.926     0.031     2.571     2.507
    61   1 H        0.926     0.043     2.411     2.428
    62   1 H        0.926     0.048     2.340     2.392
    63   1 H        0.926     0.048     2.340     2.392
    64   1 H        0.926     0.043     2.412     2.429

molecular dipole:
                 x           y           z       tot (Debye)
 q only:        0.004       0.021       1.250
   full:        0.004       0.024       1.403       3.567

 projected vibrational frequencies (cm⁻¹)
eigval :       -0.00    -0.00    -0.00     0.00     0.00     0.00
eigval :       12.96    14.15    16.28    36.29    40.67    58.46
eigval :       66.38    85.44   103.33   106.02   109.58   128.68
eigval :      141.99   144.81   156.20   182.84   192.44   228.55
eigval :      233.20   249.25   265.11   270.05   278.72   310.93
eigval :      316.24   354.78   372.46   376.94   381.61   385.99
eigval :      394.75   401.41   410.98   415.17   429.42   437.02
eigval :      444.27   445.17   449.03   512.26   512.35   524.15
eigval :      525.21   537.94   538.55   570.68   572.64   573.78
eigval :      581.62   582.02   587.23   589.53   609.29   628.12
eigval :      643.60   645.56   660.14   661.64   690.13   691.43
eigval :      696.63   701.22   750.03   750.90   756.41   758.41
eigval :      762.52   764.66   790.31   793.13   806.04   820.14
eigval :      843.33   853.03   855.21   856.29   858.81   861.11
eigval :      884.12   887.06   888.12   890.57   890.97   892.96
eigval :      903.85   905.66   907.38   908.08   909.20   911.81
eigval :      913.38   915.02   920.46   932.99   984.50   985.89
eigval :     1004.18  1004.21  1061.82  1064.40  1064.83  1068.50
eigval :     1104.10  1105.80  1129.27  1138.51  1139.29  1140.97
eigval :     1147.04  1172.59  1173.70  1173.80  1176.04  1176.60
eigval :     1181.30  1188.53  1197.31  1222.00  1222.96  1225.02
eigval :     1226.89  1236.17  1254.26  1265.36  1277.87  1278.85
eigval :     1287.84  1298.93  1326.60  1328.09  1332.30  1339.27
eigval :     1341.67  1343.26  1348.79  1357.98  1371.18  1372.50
eigval :     1400.79  1401.14  1406.91  1413.44  1418.78  1443.77
eigval :     1450.41  1452.77  1456.67  1465.91  1473.84  1477.63
eigval :     1487.50  1512.34  1513.04  1516.92  1517.35  1533.34
eigval :     1562.26  1562.62  1564.17  1564.27  1594.95  3067.69
eigval :     3067.81  3067.98  3068.38  3068.62  3068.72  3076.58
eigval :     3077.60  3078.20  3078.42  3083.11  3084.43  3085.08
eigval :     3085.59  3090.86  3093.20  3093.68  3094.60  3095.17
eigval :     3095.61  3096.54  3097.65  3110.80  3113.62  3341.53

   temp. (K)  partition function   enthalpy   heat capacity  entropy
                                   cal/mol     cal/K/mol   cal/K/mol   J/K/mol
 298.15  VIB  0.331E+13            17251.913    115.192    104.614
         ROT  0.320E+08              888.752      2.981     37.322
         INT  0.106E+21            18140.665    118.173    141.936
         TR   0.108E+29             1481.254      4.968     44.493
         TOT                       19621.9193   123.1413   186.4289   780.0186

       T/K    H(0)-H(T)+PV         H(T)/Eh          T*S/Eh         G(T)/Eh
   ------------------------------------------------------------------------
    298.15    0.312695E-01    0.521163E+00    0.885784E-01    0.432585E+00
   ------------------------------------------------------------------------

         :::::::::::::::::::::::::::::::::::::::::::::::::::::
         ::                  THERMODYNAMIC                  ::
         :::::::::::::::::::::::::::::::::::::::::::::::::::::
         :: total free energy         -98.182529257130 Eh   ::
         ::.................................................::
         :: total energy              -98.615114157095 Eh   ::
         :: zero point energy           0.489893775330 Eh   ::
         :: G(RRHO) w/o ZPVE           -0.057308875365 Eh   ::
         :: G(RRHO) contrib.            0.432584899965 Eh   ::
         :::::::::::::::::::::::::::::::::::::::::::::::::::::

           -------------------------------------------------
          | TOTAL ENERGY              -98.615114157095 Eh   |
          | TOTAL ENTHALPY            -98.093950863008 Eh   |
          | TOTAL FREE ENERGY         -98.182529257130 Eh   |
          | GRADIENT NORM               0.000054337022 Eh/α |
          | HOMO-LUMO GAP               0.140386475640 eV   |
           -------------------------------------------------

 * finished run on 2025/08/25 at 06:31:49.207
