   * xtb version 6.7.1 (edcfbbe) compiled by 'albert@albert-system' on 2024-07-22

   ID    Z sym.   atoms
    1    6 C      1-12, 14-17, 19-22, 24-39
    2    7 N      13, 18, 23
    3    1 H      40-64

          program call               : xtb data2507/toluene/Ph-CF3/Ph-CF3.xyz --gfn 2 --gbsa toluene --ohess vtight --parallel 40 --molden --ceasefiles --namespace data2507/toluene/Ph-CF3/Ph-CF3_toluene_S0_preOpt
      * Solvation model:               GBSA
        Solvent                        toluene
        Solvent mass                       9.2140E+01 g/mol
          :  Hamiltonian                  GFN2-xTB          :
 * total energy  :   -98.7010845 Eh     change       -0.4246829E-08 Eh
 * total energy  :   -98.7137852 Eh     change       -0.1270069E-01 Eh
 * total energy  :   -98.7165295 Eh     change       -0.2744348E-02 Eh
 * total energy  :   -98.7172395 Eh     change       -0.7099878E-03 Eh
 * total energy  :   -98.7178989 Eh     change       -0.6593708E-03 Eh
 * total energy  :   -98.7181331 Eh     change       -0.2341732E-03 Eh
 * total energy  :   -98.7182502 Eh     change       -0.1171510E-03 Eh
 * total energy  :   -98.7183107 Eh     change       -0.6050425E-04 Eh
 * total energy  :   -98.7183558 Eh     change       -0.4512662E-04 Eh
 * total energy  :   -98.7183741 Eh     change       -0.1828752E-04 Eh
 * total energy  :   -98.7184907 Eh     change       -0.1466241E-05 Eh
 * total energy  :   -98.7184919 Eh     change       -0.1224121E-05 Eh
 * total energy  :   -98.7184930 Eh     change       -0.1084202E-05 Eh
 * total energy  :   -98.7184941 Eh     change       -0.1157608E-05 Eh
 * total energy  :   -98.7184957 Eh     change       -0.1588864E-05 Eh
 * total energy  :   -98.7184981 Eh     change       -0.2348822E-05 Eh
 * total energy  :   -98.7185012 Eh     change       -0.3168694E-05 Eh
 * total energy  :   -98.7185046 Eh     change       -0.3372742E-05 Eh
 * total energy  :   -98.7185046 Eh     change       -0.6150799E-08 Eh
   *** GEOMETRY OPTIMIZATION CONVERGED AFTER 44 ITERATIONS ***

 final structure:
================
64
 xtb: 6.7.1 (edcfbbe)
C            7.36064350929889       -3.03810432343995       -1.85639094034066
C            6.08641284295303       -3.40059744540088       -1.42286174070079
C            5.26060219590363       -2.50078257545665       -0.77684798410925
C            5.73494596404813       -1.21127198953370       -0.57746779970598
C            7.03539568334316       -0.84081740266664       -0.99429158860194
C            7.84745782733843       -1.76424274399436       -1.64080611418585
C            7.21491698446792        0.52791733220216       -0.59930760039986
C            8.25756671332928        1.43555378763867       -0.73849942385208
C            8.09203816600897        2.71521393998919       -0.24718817637481
C            6.89994906767964        3.09878541269941        0.36504346239005
C            5.84854983594365        2.21494695979199        0.51438988264529
C            6.01604323625910        0.92041085547694        0.04125907529815
N            5.13173324231930       -0.13859755596363        0.04597458301225
C            3.83647774514397       -0.12094853726786        0.59119028682966
C            3.63070917697334        0.30278484913251        1.90164392953345
C            2.35683072009878        0.34632324908705        2.42583374895040
C            1.25060552727034       -0.04282993185391        1.66343960884086
N           -0.00000099223544        0.00000274283747        2.25083452772757
C           -1.25060889161428        0.04284660573249        1.66344478012122
C           -2.35683972946176       -0.34624893559179        2.42586065818910
C           -3.63071909710084       -0.30270875360376        1.90167350626620
C           -3.83648395091861        0.12098076800603        0.59120521544721
N           -5.13174015215031        0.13861646867716        0.04598779408430
C           -5.73495192956583        1.21126925920994       -0.57749252165115
C           -5.26061730793380        2.50077819947307       -0.77690050822681
C           -6.08641922625169        3.40056090080795       -1.42297039985317
C           -7.36062091896576        3.03802966123470       -1.85655030633866
C           -7.84742464013329        1.76416815350608       -1.64094384904060
C           -7.03537926330064        0.84078072233929       -0.99435567071984
C           -7.21492723893937       -0.52791717609641       -0.59925797194095
C           -8.25758837880684       -1.43555006675290       -0.73838930040540
C           -8.09205240817130       -2.71519868224090       -0.24704957315851
C           -6.89994517098416       -3.09876265615577        0.36515247704225
C           -5.84854238908003       -2.21492086283515        0.51445864882531
C           -6.01604019028450       -0.92039970011506        0.04129043482335
C           -2.74402908508604        0.53632493978972       -0.16406072038913
C           -1.47036051144806        0.51482349096799        0.36765902850948
C            1.47036044680124       -0.51484778895251        0.36766969716213
C            2.74402612515470       -0.53633519531029       -0.16405801018485
H            7.97526505672205       -3.77011986411990       -2.35996341478426
H            5.73826670426084       -4.40928861181918       -1.59275293033680
H            4.28180316113183       -2.79645248574660       -0.43051437620607
H            8.84060304554157       -1.48788983727667       -1.96302408200106
H            9.17647624786712        1.14267940033535       -1.22468199178487
H            8.89191484073413        3.43509478026574       -0.34312975605364
H            6.79492147190286        4.11116041666700        0.72779332566377
H            4.92332148264434        2.52607516759982        0.97565081631180
H            4.47630650979680        0.59173293368396        2.50772410728722
H            2.20858797093311        0.67795380417090        3.44383828545953
H            0.00000160209358        0.00002085875524        3.26138047221239
H           -2.20859951471410       -0.67784197950368        3.44387796233994
H           -4.47631937896737       -0.59162469201874        2.50776599444922
H           -4.28179477655837        2.79644524130098       -0.43062877142748
H           -5.73825175207643        4.40923185015152       -1.59294444811930
H           -7.97525924445928        3.77004008137117       -2.36011249815209
H           -8.84060248225648        1.48782826248742       -1.96307452803082
H           -9.17645126959348       -1.14273111691193       -1.22469253350146
H           -8.89189790156331       -3.43510852811340       -0.34303596993478
H           -6.79492903468190       -4.11111327946472        0.72797253400210
H           -4.92334065055300       -2.52601097048069        0.97579816345079
H           -2.89655347604404        0.87939653499085       -1.17647738248729
H           -0.64556212914068        0.88559019707630       -0.21932980609161
H            0.64556684892278       -0.88565257969168       -0.21930169143195
H            2.89655413015529       -0.87945055907692       -1.17645862635596

          :  Hamiltonian                  GFN2-xTB          :
         :: gradient norm              0.000059213454 Eh/a0 ::
         :: HOMO-LUMO gap              2.861401228007 eV    ::
         :: SCC energy              -100.573271422648 Eh    ::
         :: -> dispersion             -0.084551135531 Eh    ::
         :: -> Gsolv                  -0.040798171750 Eh    ::
         :: repulsion energy           1.854766819999 Eh    ::

    * Orbital Energies and Occupations

         #    Occupation            Energy/Eh            Energy/eV
      -------------------------------------------------------------
         1        2.0000           -0.6733496             -18.3228
       ...           ...                  ...                  ...
        80        2.0000           -0.4171075             -11.3501
        81        2.0000           -0.4167562             -11.3405
        82        2.0000           -0.4161000             -11.3227
        83        2.0000           -0.4122755             -11.2186
        84        2.0000           -0.4115242             -11.1981
        85        2.0000           -0.4107715             -11.1777
        86        2.0000           -0.4032740             -10.9736
        87        2.0000           -0.4032593             -10.9732
        88        2.0000           -0.3765674             -10.2469
        89        2.0000           -0.3765667             -10.2469
        90        2.0000           -0.3727444             -10.1429
        91        2.0000           -0.3607764              -9.8172
        92        2.0000           -0.3503434              -9.5333 (HOMO)
        93                         -0.2451888              -6.6719 (LUMO)
        94                         -0.2432740              -6.6198
        95                         -0.2367547              -6.4424
        96                         -0.2305041              -6.2723
        97                         -0.2296802              -6.2499
        98                         -0.2200449              -5.9877
        99                         -0.2200446              -5.9877
       100                         -0.2125017              -5.7825
       101                         -0.1893323              -5.1520
       102                         -0.1842215              -5.0129
       103                         -0.1842211              -5.0129
       ...                                ...                  ...
       181                          0.7464745              20.3126
      -------------------------------------------------------------
                  HL-Gap            0.1051546 Eh            2.8614 eV

     #   Z          covCN         q      C6AA      α(0)
     1   6 C        2.919    -0.044    29.083     8.844
     2   6 C        2.923    -0.036    28.890     8.814
     3   6 C        2.909    -0.053    29.306     8.877
     4   6 C        3.077     0.047    26.864     8.498
     5   6 C        3.068    -0.020    28.430     8.743
     6   6 C        2.912    -0.035    28.883     8.813
     7   6 C        3.067    -0.020    28.430     8.743
     8   6 C        2.912    -0.035    28.883     8.813
     9   6 C        2.919    -0.044    29.084     8.844
    10   6 C        2.923    -0.036    28.891     8.815
    11   6 C        2.909    -0.053    29.305     8.877
    12   6 C        3.077     0.047    26.863     8.497
    13   7 N        2.801    -0.046    22.134     6.987
    14   6 C        2.911     0.051    26.848     8.496
    15   6 C        2.920    -0.041    29.030     8.835
    16   6 C        2.926    -0.058    29.445     8.899
    17   6 C        2.901     0.067    26.497     8.440
    18   7 N        2.700    -0.144    24.125     7.295
    19   6 C        2.901     0.067    26.497     8.440
    20   6 C        2.926    -0.058    29.445     8.899
    21   6 C        2.920    -0.041    29.030     8.835
    22   6 C        2.911     0.051    26.848     8.496
    23   7 N        2.801    -0.046    22.134     6.987
    24   6 C        3.077     0.047    26.864     8.498
    25   6 C        2.909    -0.053    29.306     8.877
    26   6 C        2.923    -0.036    28.890     8.814
    27   6 C        2.919    -0.044    29.083     8.844
    28   6 C        2.912    -0.035    28.883     8.813
    29   6 C        3.068    -0.020    28.430     8.743
    30   6 C        3.067    -0.020    28.430     8.743
    31   6 C        2.912    -0.035    28.883     8.813
    32   6 C        2.919    -0.044    29.084     8.844
    33   6 C        2.923    -0.036    28.891     8.815
    34   6 C        2.909    -0.053    29.305     8.877
    35   6 C        3.077     0.047    26.863     8.497
    36   6 C        2.921    -0.043    29.060     8.840
    37   6 C        2.921    -0.053    29.324     8.880
    38   6 C        2.921    -0.053    29.324     8.880
    39   6 C        2.921    -0.043    29.060     8.840
    40   1 H        0.926     0.026     2.645     2.543
    41   1 H        0.926     0.029     2.607     2.525
    42   1 H        0.926     0.030     2.591     2.517
    43   1 H        0.926     0.028     2.613     2.528
    44   1 H        0.926     0.028     2.613     2.528
    45   1 H        0.926     0.026     2.645     2.543
    46   1 H        0.926     0.029     2.607     2.525
    47   1 H        0.926     0.030     2.593     2.518
    48   1 H        0.926     0.042     2.419     2.432
    49   1 H        0.926     0.037     2.492     2.469
    50   1 H        0.860     0.167     1.293     1.781
    51   1 H        0.926     0.037     2.492     2.469
    52   1 H        0.926     0.042     2.419     2.432
    53   1 H        0.926     0.030     2.591     2.517
    54   1 H        0.926     0.029     2.607     2.525
    55   1 H        0.926     0.026     2.645     2.543
    56   1 H        0.926     0.028     2.613     2.528
    57   1 H        0.926     0.028     2.613     2.528
    58   1 H        0.926     0.026     2.645     2.543
    59   1 H        0.926     0.029     2.607     2.525
    60   1 H        0.926     0.030     2.593     2.518
    61   1 H        0.926     0.042     2.417     2.431
    62   1 H        0.926     0.047     2.362     2.403
    63   1 H        0.926     0.047     2.362     2.403
    64   1 H        0.926     0.042     2.417     2.431

molecular dipole:
                 x           y           z       tot (Debye)
 q only:        0.000       0.000       0.963
   full:        0.000       0.000       1.116       2.836

 projected vibrational frequencies (cm⁻¹)
eigval :       -0.00    -0.00     0.00     0.00     0.00     0.00
eigval :        8.88    11.77    13.71    35.81    36.67    54.34
eigval :       57.67    68.30    98.22   102.76   103.03   129.84
eigval :      141.17   142.19   153.87   176.02   187.03   225.69
eigval :      230.80   252.13   270.84   271.21   282.97   315.42
eigval :      348.11   372.98   379.02   381.45   390.20   396.61
eigval :      398.86   407.03   417.44   422.22   428.90   434.92
eigval :      448.19   457.34   487.93   491.20   518.36   518.40
eigval :      531.69   532.29   540.68   540.70   579.10   579.32
eigval :      586.00   591.27   595.41   596.67   616.99   639.11
eigval :      672.57   672.83   673.85   675.19   701.86   703.97
eigval :      709.74   710.04   755.31   755.67   765.11   765.42
eigval :      777.01   777.34   800.24   805.96   820.12   851.50
eigval :      863.50   867.73   868.49   868.99   875.61   882.80
eigval :      894.77   895.60   897.13   897.14   902.18   903.20
eigval :      908.68   912.30   915.79   918.88   920.33   921.28
eigval :      923.53   931.87   943.85   949.35  1010.52  1010.59
eigval :     1016.90  1021.29  1068.42  1068.52  1071.85  1071.86
eigval :     1116.75  1117.81  1133.42  1144.99  1150.87  1151.47
eigval :     1175.65  1175.68  1181.05  1181.06  1182.33  1184.42
eigval :     1196.13  1202.27  1229.13  1234.20  1235.44  1235.52
eigval :     1242.60  1252.68  1274.30  1278.59  1299.46  1300.64
eigval :     1303.24  1303.67  1324.92  1330.69  1355.75  1355.76
eigval :     1360.05  1361.51  1361.68  1367.32  1392.02  1420.81
eigval :     1426.49  1427.65  1430.90  1432.85  1453.62  1474.77
eigval :     1475.02  1487.33  1487.35  1493.75  1495.26  1560.37
eigval :     1560.97  1572.45  1572.51  1586.73  1586.93  1596.47
eigval :     1596.48  1601.62  1603.45  1612.91  1613.10  3069.20
eigval :     3069.21  3069.58  3069.58  3070.72  3070.96  3074.80
eigval :     3074.83  3075.57  3075.57  3083.44  3083.45  3084.93
eigval :     3084.97  3088.47  3089.09  3090.44  3090.46  3091.78
eigval :     3092.13  3093.29  3093.37  3107.78  3110.59  3417.94

   temp. (K)  partition function   enthalpy   heat capacity  entropy
                                   cal/mol     cal/K/mol   cal/K/mol   J/K/mol
 298.15  VIB  0.104E+14            17105.992    112.968    104.980
         ROT  0.320E+08              888.752      2.981     37.325
         INT  0.332E+21            17994.744    115.949    142.304
         TR   0.108E+29             1481.254      4.968     44.493
         TOT                       19475.9979   120.9168   186.7972   781.5593

       T/K    H(0)-H(T)+PV         H(T)/Eh          T*S/Eh         G(T)/Eh
   ------------------------------------------------------------------------
    298.15    0.310370E-01    0.526038E+00    0.887534E-01    0.437285E+00
   ------------------------------------------------------------------------

         :::::::::::::::::::::::::::::::::::::::::::::::::::::
         ::                  THERMODYNAMIC                  ::
         :::::::::::::::::::::::::::::::::::::::::::::::::::::
         :: total free energy         -98.281219684677 Eh   ::
         ::.................................................::
         :: total energy              -98.718504605914 Eh   ::
         :: zero point energy           0.495001299402 Eh   ::
         :: G(RRHO) w/o ZPVE           -0.057716378166 Eh   ::
         :: G(RRHO) contrib.            0.437284921237 Eh   ::
         :::::::::::::::::::::::::::::::::::::::::::::::::::::

           -------------------------------------------------
          | TOTAL ENERGY              -98.718504605914 Eh   |
          | TOTAL ENTHALPY            -98.192466328222 Eh   |
          | TOTAL FREE ENERGY         -98.281219684677 Eh   |
          | GRADIENT NORM               0.000059216431 Eh/α |
          | HOMO-LUMO GAP               2.861401199232 eV   |
           -------------------------------------------------

 * finished run on 2025/08/25 at 06:28:15.948
