   * xtb version 6.7.1 (edcfbbe) compiled by 'albert@albert-system' on 2024-07-22

   ID    Z sym.   atoms
    1    7 N      1, 9, 37, 44
    2    6 C      2-8, 10-36, 38-43, 45-70
    3    1 H      71-116

          program call               : xtb data2507/toluene/2BTPA-INN/2BTPA-INN_toluene_S0_finalOpt.xtbopt.xyz --gfn 2 --uhf 2 --gbsa toluene --ohess vtight --parallel 40 --molden --ceasefiles --namespace data2507/toluene/2BTPA-INN/2BTPA-INN_toluene_T1_preOpt
      * Solvation model:               GBSA
        Solvent                        toluene
        Solvent mass                       9.2140E+01 g/mol
          :  Hamiltonian                  GFN2-xTB          :
 * total energy  :  -176.4380183 Eh     change       -0.1696822E-07 Eh
 * total energy  :  -176.4414219 Eh     change       -0.3403634E-02 Eh
 * total energy  :  -176.4422497 Eh     change       -0.8278174E-03 Eh
 * total energy  :  -176.4423684 Eh     change       -0.1186850E-03 Eh
 * total energy  :  -176.4425079 Eh     change       -0.1395113E-03 Eh
 * total energy  :  -176.4425752 Eh     change       -0.6730547E-04 Eh
 * total energy  :  -176.4426409 Eh     change       -0.6568672E-04 Eh
 * total energy  :  -176.4426762 Eh     change       -0.3528796E-04 Eh
 * total energy  :  -176.4427027 Eh     change       -0.2647168E-04 Eh
 * total energy  :  -176.4427289 Eh     change       -0.2623136E-04 Eh
 * total energy  :  -176.4431280 Eh     change       -0.7487517E-06 Eh
 * total energy  :  -176.4431287 Eh     change       -0.6871452E-06 Eh
 * total energy  :  -176.4431293 Eh     change       -0.6055381E-06 Eh
 * total energy  :  -176.4431299 Eh     change       -0.5351939E-06 Eh
 * total energy  :  -176.4431304 Eh     change       -0.5635653E-06 Eh
 * total energy  :  -176.4431312 Eh     change       -0.7640370E-06 Eh
 * total energy  :  -176.4431321 Eh     change       -0.9182352E-06 Eh
 * total energy  :  -176.4431331 Eh     change       -0.9598121E-06 Eh
 * total energy  :  -176.4431331 Eh     change       -0.4532637E-08 Eh
   *** GEOMETRY OPTIMIZATION CONVERGED AFTER 152 ITERATIONS ***

 final structure:
================
116
 xtb: 6.7.1 (edcfbbe)
N            0.03174373737152        0.23520942507505       -0.92495625083246
C            0.06437681332905        1.05122708054630       -0.09510946631071
C            0.11560034721922        2.02561868503410        0.87822441869089
C           -1.08639452177264        2.65119367672927        1.37346696146091
C           -2.39853915486033        2.08173186329995        1.14957606601182
C           -2.60002672329381        0.69106692224499        1.14953271431018
C           -3.84210665484169        0.14962083945251        0.92924113213856
C           -4.94832047371399        0.97717827101957        0.69346949080261
N           -6.21022546081857        0.43507551510022        0.44846449146184
C           -6.62712280926990       -0.70627528092366        1.13105396036182
C           -6.23882552836611       -0.92354154692530        2.45664227230233
C           -6.64732172191875       -2.05576873264491        3.12646456754760
C           -7.46315525928806       -3.00572668891573        2.50827504487664
C           -7.90313529258159       -4.20664405474107        3.22817822292192
C           -7.03089529257161       -4.88862174988352        4.07632495268485
C           -7.44586558816745       -6.02230029637071        4.74980163187541
C           -8.74053574881205       -6.49114647659672        4.59521080437390
C           -9.61730666692259       -5.81986296228233        3.75828015274097
C           -9.20268347428902       -4.69033074968114        3.07784657111632
C           -7.84981058946969       -2.78089879611804        1.18520282513533
C           -7.43801623443044       -1.65709471276865        0.50350190514057
C           -7.05034764492670        1.04314597250131       -0.48579369622385
C           -6.52171069283172        1.61019296382958       -1.64909353791182
C           -7.34968336834566        2.22353550433269       -2.56312273764905
C           -8.72974153304673        2.28778968096714       -2.35797178333542
C           -9.60748452207741        2.93867815293213       -3.33776709086670
C           -9.21575078351072        4.11780938095073       -3.97137536003446
C          -10.04424526946578        4.73146638238718       -4.89218030926444
C          -11.27483799338158        4.17559126859980       -5.20287906341728
C          -11.67342719924343        3.00255223590689       -4.58243690013519
C          -10.84993383755011        2.39069392559136       -3.65594193977491
C           -9.25108905738981        1.71418547908609       -1.19629330769858
C           -8.43022526343663        1.10631171943059       -0.27178905555353
C           -4.76228231372528        2.36637407422209        0.70451896862038
C           -3.51934183822040        2.90166397808650        0.93367667970034
C           -0.93501611563796        3.81352084726210        2.10595722688509
N            0.23611358322408        4.35588394920946        2.42607628644647
C            1.35311061230649        3.75093494241603        2.02043835028711
C            1.37947788786211        2.58379894882023        1.28511121410326
C            2.63626355157999        1.93723069875663        0.95733077922228
C            2.76198546680541        0.54026765651847        0.98933899329409
C            3.94241109200346       -0.07663252755841        0.65489324596502
C            5.05708373382286        0.68038682175606        0.27150130661129
N            6.24621779175189        0.05359033649605       -0.10003362701494
C            7.47287488627620        0.63008154000949        0.23057602832506
C            8.55793383333508        0.55021663421087       -0.64718955300930
C            9.76701075743036        1.12017024733270       -0.31401089349737
C            9.93821024543926        1.79522971506457        0.89641632321713
C           11.22852876858274        2.40282342647210        1.24361606994776
C           11.28490643433421        3.64553568071781        1.87406820113962
C           12.50162010052032        4.21882818837700        2.19359742397102
C           13.68328888037791        3.55901010317502        1.89678212255467
C           13.63983752651752        2.32148113705381        1.27515699981392
C           12.42471068214576        1.74961918090934        0.94753553429501
C            8.84816395152172        1.87657412971337        1.76547804817985
C            7.63763234119155        1.30216527746245        1.44514231836752
C            6.20396861300047       -1.14665301974802       -0.81122587449055
C            5.20510544172901       -1.37390746833773       -1.76247799890655
C            5.15898991191064       -2.56529231227781       -2.45238221500202
C            6.10691659037318       -3.56627805592535       -2.22905961338416
C            6.05184542053766       -4.83418987814159       -2.96641389177670
C            4.82927011865696       -5.45522003496525       -3.22107441015278
C            4.77760053216046       -6.65249720226434       -3.91020592781911
C            5.94395685486419       -7.24744303009839       -4.36359850769749
C            7.16406796447597       -6.63767494692909       -4.12009506506021
C            7.21922073175278       -5.44391384705756       -3.42519985471234
C            7.10592842490700       -3.32929098143654       -1.28261688051553
C            7.15484419857171       -2.14492377872875       -0.58046862229292
C            4.95008442660930        2.07704934719675        0.26147112185654
C            3.76760032792988        2.68797817581635        0.60144516124663
H           -1.75947766804507        0.03614189204916        1.32449709553895
H           -3.96811327123445       -0.92306021496713        0.91523149861433
H           -5.62861179687645       -0.18656532722318        2.95765000590702
H           -6.35611692152641       -2.19313918262317        4.15709688110839
H           -6.01434560667802       -4.54026180622117        4.18816014438819
H           -6.75595241384265       -6.54446860398612        5.39728633284360
H           -9.06444810853551       -7.37549282357884        5.12425168971702
H          -10.62953578432296       -6.17826866731939        3.63725972020046
H           -9.89760985803401       -4.16254370863050        2.44103995508721
H           -8.45555032903279       -3.51548186621161        0.67608442378783
H           -7.72415177371458       -1.51331350684351       -0.52781468357809
H           -5.45902339877820        1.54811788946768       -1.83295937487100
H           -6.92519904327006        2.63381434317975       -3.46719251603361
H           -8.26531556432659        4.56685832306325       -3.72191221365088
H           -9.72968762967950        5.64868044242224       -5.36925235351189
H          -11.91979890580888        4.65454468968746       -5.92502092924437
H          -12.63013023033972        2.56210515524790       -4.82418680014617
H          -11.16001945949860        1.46646773642840       -3.19052145866793
H          -10.31136740281994        1.77606510984376       -1.00207610418701
H           -8.84628030425487        0.69094064874267        0.63415295494388
H           -5.60948725473181        3.01595113841979        0.53928658333979
H           -3.39473904930654        3.97440423451107        0.92749496451623
H           -1.79782068710553        4.31940670021617        2.52013090563483
H            2.27109322514271        4.21022032239098        2.36336770173020
H            1.91882586573280       -0.06008317340392        1.29748274772377
H            4.01953007668036       -1.15314724059538        0.69766803465023
H            8.43521361932981        0.05397636374464       -1.59846347429249
H           10.58606469091391        1.06992004455306       -1.01565481627372
H           10.36900218315526        4.17488702233794        2.09307646482224
H           12.52936205389857        5.18614721268186        2.67462305055867
H           14.63328707991950        4.00702455121543        2.14910982004822
H           14.55805033380634        1.79986860356616        1.04582535293339
H           12.39874510329370        0.77683999304944        0.47841782794205
H            8.96257736424969        2.36978888782068        2.71915594232245
H            6.81115132553793        1.35292275388243        2.13856023604631
H            4.47433985885784       -0.60360347376520       -1.96141846392046
H            4.39169459848221       -2.71254136116350       -3.19763074368744
H            3.91703919438285       -5.00657872287261       -2.85518929201509
H            3.82310772849181       -7.12501390399895       -4.09319329262000
H            5.90189363633094       -8.18146184850980       -4.90465259059408
H            8.07649848857246       -7.09439325915847       -4.47597289799171
H            8.17284214245049       -4.96569161833610       -3.25503689693728
H            7.83309377653580       -4.09922074823882       -1.07224111007401
H            7.91789227339815       -1.98841363505579        0.16767204350046
H            5.79722688070754        2.67223741532885       -0.04661798644847
H            3.69167096318517        3.76424153740509        0.55318245305054

          :  Hamiltonian                  GFN2-xTB          :
         :: gradient norm              0.000108492238 Eh/a0 ::
         :: HOMO-LUMO gap              0.344778734785 eV    ::
         :: SCC energy              -179.824280912652 Eh    ::
         :: -> dispersion             -0.157752976027 Eh    ::
         :: -> Gsolv                  -0.087782193220 Eh    ::
         :: repulsion energy           3.381147839906 Eh    ::

    * Orbital Energies and Occupations

         #    Occupation            Energy/Eh            Energy/eV
      -------------------------------------------------------------
         1        2.0000           -0.6797727             -18.4976
       ...           ...                  ...                  ...
       154        2.0000           -0.4061729             -11.0525
       155        2.0000           -0.4053290             -11.0296
       156        2.0000           -0.4039537             -10.9921
       157        2.0000           -0.4028498             -10.9621
       158        2.0000           -0.3968625             -10.7992
       159        2.0000           -0.3922946             -10.6749
       160        2.0000           -0.3919124             -10.6645
       161        2.0000           -0.3884421             -10.5700
       162        2.0000           -0.3870470             -10.5321
       163        1.9999           -0.3645160              -9.9190
       164        1.7375           -0.3561954              -9.6926
       165        1.2626           -0.3542331              -9.6392
       166        0.9982           -0.2702609              -7.3542 (HOMO)
       167        0.0009           -0.2575903              -7.0094 (LUMO)
       168        0.0005           -0.2570839              -6.9956
       169        0.0003           -0.2565373              -6.9807
       170                         -0.2462324              -6.7003
       171                         -0.2389648              -6.5026
       172                         -0.2350438              -6.3959
       173                         -0.2347604              -6.3882
       174                         -0.2303918              -6.2693
       175                         -0.2298878              -6.2556
       176                         -0.2267408              -6.1699
       177                         -0.2262023              -6.1553
       ...                                ...                  ...
       326                          1.1661849              31.7335
      -------------------------------------------------------------
                  HL-Gap            0.0126705 Eh            0.3448 eV

     #   Z          covCN         q      C6AA      α(0)
     1   7 N        0.911    -0.392    30.127     7.938
     2   6 C        1.907     0.096    28.722     8.655
     3   6 C        2.974    -0.034    28.847     8.810
     4   6 C        2.969    -0.017    28.425     8.745
     5   6 C        2.974     0.003    27.960     8.674
     6   6 C        2.922    -0.031    28.769     8.796
     7   6 C        2.917    -0.042    29.054     8.839
     8   6 C        2.927     0.055    26.775     8.486
     9   7 N        2.752    -0.034    21.892     6.949
    10   6 C        2.925     0.062    26.614     8.460
    11   6 C        2.919    -0.042    29.055     8.839
    12   6 C        2.923    -0.031    28.785     8.798
    13   6 C        2.975     0.010    27.784     8.646
    14   6 C        2.976     0.010    27.778     8.645
    15   6 C        2.924    -0.034    28.844     8.807
    16   6 C        2.918    -0.030    28.741     8.791
    17   6 C        2.920    -0.031    28.765     8.795
    18   6 C        2.918    -0.030    28.744     8.792
    19   6 C        2.925    -0.034    28.849     8.808
    20   6 C        2.923    -0.032    28.790     8.799
    21   6 C        2.919    -0.043    29.070     8.842
    22   6 C        2.927     0.061    26.625     8.462
    23   6 C        2.919    -0.041    29.029     8.835
    24   6 C        2.923    -0.031    28.780     8.798
    25   6 C        2.975     0.011    27.777     8.645
    26   6 C        2.976     0.010    27.779     8.646
    27   6 C        2.925    -0.034    28.845     8.808
    28   6 C        2.918    -0.030    28.741     8.791
    29   6 C        2.920    -0.031    28.765     8.795
    30   6 C        2.918    -0.030    28.744     8.792
    31   6 C        2.924    -0.034    28.850     8.808
    32   6 C        2.923    -0.032    28.795     8.800
    33   6 C        2.919    -0.043    29.064     8.841
    34   6 C        2.917    -0.043    29.078     8.843
    35   6 C        2.922    -0.039    28.958     8.825
    36   6 C        2.898     0.048    26.925     8.508
    37   7 N        1.833    -0.271    27.882     7.825
    38   6 C        2.898     0.045    26.982     8.517
    39   6 C        2.970    -0.015    28.379     8.738
    40   6 C        2.974     0.003    27.944     8.671
    41   6 C        2.922    -0.029    28.736     8.791
    42   6 C        2.918    -0.043    29.057     8.839
    43   6 C        2.926     0.056    26.735     8.479
    44   7 N        2.752    -0.035    21.920     6.953
    45   6 C        2.926     0.062    26.620     8.461
    46   6 C        2.919    -0.043    29.067     8.841
    47   6 C        2.923    -0.032    28.790     8.799
    48   6 C        2.975     0.010    27.785     8.646
    49   6 C        2.976     0.010    27.779     8.645
    50   6 C        2.924    -0.034    28.847     8.808
    51   6 C        2.918    -0.030    28.743     8.792
    52   6 C        2.920    -0.031    28.766     8.795
    53   6 C        2.918    -0.030    28.744     8.792
    54   6 C        2.925    -0.034    28.851     8.808
    55   6 C        2.923    -0.032    28.786     8.799
    56   6 C        2.919    -0.042    29.054     8.839
    57   6 C        2.926     0.062    26.620     8.461
    58   6 C        2.919    -0.041    29.018     8.834
    59   6 C        2.923    -0.031    28.767     8.796
    60   6 C        2.975     0.011    27.777     8.645
    61   6 C        2.976     0.011    27.777     8.645
    62   6 C        2.925    -0.034    28.837     8.806
    63   6 C        2.918    -0.030    28.738     8.791
    64   6 C        2.919    -0.031    28.765     8.795
    65   6 C        2.918    -0.030    28.747     8.792
    66   6 C        2.924    -0.034    28.851     8.808
    67   6 C        2.923    -0.032    28.799     8.800
    68   6 C        2.919    -0.043    29.076     8.843
    69   6 C        2.917    -0.044    29.084     8.844
    70   6 C        2.922    -0.038    28.936     8.821
    71   1 H        0.926     0.029     2.605     2.524
    72   1 H        0.926     0.038     2.469     2.457
    73   1 H        0.926     0.040     2.451     2.448
    74   1 H        0.926     0.044     2.398     2.422
    75   1 H        0.926     0.034     2.532     2.489
    76   1 H        0.926     0.032     2.554     2.499
    77   1 H        0.926     0.032     2.552     2.498
    78   1 H        0.926     0.033     2.538     2.491
    79   1 H        0.926     0.036     2.500     2.473
    80   1 H        0.926     0.046     2.368     2.406
    81   1 H        0.926     0.043     2.405     2.425
    82   1 H        0.926     0.039     2.467     2.456
    83   1 H        0.926     0.044     2.402     2.424
    84   1 H        0.926     0.034     2.531     2.488
    85   1 H        0.926     0.032     2.555     2.499
    86   1 H        0.926     0.032     2.553     2.499
    87   1 H        0.926     0.033     2.538     2.491
    88   1 H        0.926     0.036     2.500     2.472
    89   1 H        0.926     0.047     2.361     2.403
    90   1 H        0.926     0.044     2.395     2.420
    91   1 H        0.926     0.040     2.446     2.446
    92   1 H        0.926     0.034     2.527     2.486
    93   1 H        0.925     0.022     2.696     2.568
    94   1 H        0.925     0.022     2.707     2.573
    95   1 H        0.926     0.029     2.604     2.523
    96   1 H        0.926     0.038     2.469     2.457
    97   1 H        0.926     0.043     2.408     2.427
    98   1 H        0.926     0.046     2.370     2.407
    99   1 H        0.926     0.034     2.527     2.486
   100   1 H        0.926     0.032     2.554     2.499
   101   1 H        0.926     0.032     2.556     2.500
   102   1 H        0.926     0.033     2.542     2.493
   103   1 H        0.926     0.036     2.503     2.474
   104   1 H        0.926     0.044     2.393     2.419
   105   1 H        0.926     0.040     2.447     2.446
   106   1 H        0.926     0.038     2.470     2.458
   107   1 H        0.926     0.043     2.405     2.425
   108   1 H        0.926     0.034     2.533     2.489
   109   1 H        0.926     0.032     2.553     2.499
   110   1 H        0.926     0.033     2.550     2.497
   111   1 H        0.926     0.034     2.536     2.490
   112   1 H        0.926     0.036     2.499     2.472
   113   1 H        0.926     0.047     2.362     2.403
   114   1 H        0.926     0.044     2.396     2.421
   115   1 H        0.926     0.041     2.429     2.437
   116   1 H        0.926     0.035     2.522     2.483

molecular dipole:
                 x           y           z       tot (Debye)
 q only:       -0.099      -1.819      -0.300
   full:       -0.110      -1.677      -0.140       4.288

 projected vibrational frequencies (cm⁻¹)
eigval :       -0.00    -0.00     0.00     0.00     0.00     0.00
eigval :        4.55     5.67     6.89    15.66    15.75    17.41
eigval :       19.02    20.52    27.44    29.38    31.12    37.88
eigval :       40.64    43.45    55.14    62.06    64.38    68.29
eigval :       74.20    75.67    82.44    84.83    88.19    91.89
eigval :       98.19   101.26   104.74   109.77   112.80   117.05
eigval :      121.74   131.68   148.22   161.47   180.40   188.98
eigval :      190.09   192.64   201.60   216.08   219.31   241.04
eigval :      244.69   251.07   263.55   281.24   285.47   312.67
eigval :      318.11   323.94   329.93   341.66   350.62   361.74
eigval :      363.35   369.14   371.24   372.61   372.74   375.87
eigval :      381.55   382.72   382.78   382.96   387.44   388.87
eigval :      401.24   405.31   420.69   423.60   428.06   428.50
eigval :      431.17   442.31   446.77   469.15   482.16   482.77
eigval :      483.11   496.84   502.81   507.33   518.56   529.18
eigval :      533.26   537.73   537.88   542.47   578.03   583.25
eigval :      586.92   587.58   587.83   587.97   588.08   592.23
eigval :      599.94   603.38   607.74   607.81   609.00   613.49
eigval :      620.96   639.15   654.47   664.41   665.03   665.38
eigval :      666.31   674.08   678.37   681.75   685.83   686.15
eigval :      688.59   697.80   735.76   735.80   754.43   755.63
eigval :      755.70   755.88   761.87   767.48   772.59   805.29
eigval :      808.74   814.11   819.62   822.20   824.30   825.43
eigval :      826.39   845.39   853.66   855.47   861.72   865.09
eigval :      866.61   867.75   874.20   875.19   875.95   876.88
eigval :      899.83   900.11   900.48   901.20   908.84   910.33
eigval :      913.52   914.15   915.09   915.18   917.37   918.68
eigval :      919.05   920.23   922.18   923.07   925.76   926.01
eigval :      927.05   927.52   929.67   930.67   931.67   931.73
eigval :      931.92   932.78   933.20   933.45   962.58   963.86
eigval :      969.84   970.06   985.53   997.67  1006.35  1013.78
eigval :     1014.68  1014.79  1038.76  1062.98  1072.47  1073.03
eigval :     1073.17  1074.65  1085.03  1085.48  1085.69  1086.80
eigval :     1120.39  1120.42  1120.58  1121.51  1128.49  1134.02
eigval :     1141.68  1142.81  1143.47  1144.11  1145.04  1148.27
eigval :     1179.04  1179.30  1179.57  1180.63  1181.12  1183.38
eigval :     1189.87  1190.84  1192.51  1197.23  1199.13  1200.18
eigval :     1201.34  1204.74  1217.51  1220.61  1245.13  1265.35
eigval :     1265.91  1267.61  1268.51  1269.04  1269.47  1274.24
eigval :     1278.91  1279.60  1280.04  1280.96  1281.21  1281.56
eigval :     1287.72  1288.00  1306.42  1308.51  1311.44  1312.13
eigval :     1313.68  1313.87  1317.05  1317.11  1317.16  1317.25
eigval :     1324.76  1325.36  1325.60  1329.18  1335.74  1344.17
eigval :     1373.16  1392.35  1402.37  1403.01  1408.88  1409.42
eigval :     1422.91  1426.48  1431.38  1431.72  1432.86  1433.07
eigval :     1453.68  1454.09  1455.92  1456.43  1468.16  1470.83
eigval :     1490.02  1490.37  1491.04  1491.24  1492.82  1497.85
eigval :     1504.70  1536.99  1538.16  1542.59  1543.63  1549.70
eigval :     1562.22  1564.03  1572.32  1573.45  1576.58  1576.66
eigval :     1576.83  1576.92  1585.80  1596.89  1597.02  1597.60
eigval :     1598.02  2227.92  3042.65  3045.56  3067.87  3068.10
eigval :     3068.18  3068.37  3069.37  3069.64  3070.12  3070.53
eigval :     3076.60  3077.03  3078.13  3078.32  3078.63  3078.69
eigval :     3079.01  3079.52  3080.04  3080.44  3081.08  3081.65
eigval :     3081.95  3081.99  3082.24  3082.89  3083.12  3083.32
eigval :     3083.83  3084.75  3088.46  3088.62  3089.44  3089.61
eigval :     3089.80  3089.87  3091.27  3091.67  3091.93  3092.29
eigval :     3092.47  3093.16  3093.91  3094.41  3094.83  3095.80

   temp. (K)  partition function   enthalpy   heat capacity  entropy
                                   cal/mol     cal/K/mol   cal/K/mol   J/K/mol
 298.15  VIB  0.110E+31            34806.451    212.758    222.570
         ROT  0.529E+09              888.752      2.981     42.898
         INT  0.582E+39            35695.203    215.739    265.469
         TR   0.259E+29             1481.254      4.968     46.230
         TOT                       37176.4574   220.7070   311.6988  1304.1478

       T/K    H(0)-H(T)+PV         H(T)/Eh          T*S/Eh         G(T)/Eh
   ------------------------------------------------------------------------
    298.15    0.592445E-01    0.952548E+00    0.148098E+00    0.804449E+00
   ------------------------------------------------------------------------

         :::::::::::::::::::::::::::::::::::::::::::::::::::::
         ::                  THERMODYNAMIC                  ::
         :::::::::::::::::::::::::::::::::::::::::::::::::::::
         :: total free energy        -175.638683617059 Eh   ::
         ::.................................................::
         :: total energy             -176.443133076619 Eh   ::
         :: zero point energy           0.893303163288 Eh   ::
         :: G(RRHO) w/o ZPVE           -0.088853703728 Eh   ::
         :: G(RRHO) contrib.            0.804449459560 Eh   ::
         :::::::::::::::::::::::::::::::::::::::::::::::::::::

           -------------------------------------------------
          | TOTAL ENERGY             -176.443133076619 Eh   |
          | TOTAL ENTHALPY           -175.490585457367 Eh   |
          | TOTAL FREE ENERGY        -175.638683617059 Eh   |
          | GRADIENT NORM               0.000108602702 Eh/α |
          | HOMO-LUMO GAP               0.344782726639 eV   |
           -------------------------------------------------

 * finished run on 2025/07/19 at 18:28:10.089
