   * xtb version 6.7.1 (edcfbbe) compiled by 'albert@albert-system' on 2024-07-22

   ID    Z sym.   atoms
    1    7 N      1, 9, 37, 44
    2    6 C      2-8, 10-36, 38-43, 45-70
    3    1 H      71-116

          program call               : xtb data2507/toluene/2BTPA-INN/2BTPA-INN.xyz --gfn 2 --gbsa toluene --ohess vtight --parallel 40 --molden --ceasefiles --namespace data2507/toluene/2BTPA-INN/2BTPA-INN_toluene_S0_preOpt
      * Solvation model:               GBSA
        Solvent                        toluene
        Solvent mass                       9.2140E+01 g/mol
          :  Hamiltonian                  GFN2-xTB          :
 * total energy  :  -176.4829176 Eh     change       -0.2899071E-08 Eh
 * total energy  :  -176.4988862 Eh     change       -0.1596856E-01 Eh
 * total energy  :  -176.5048608 Eh     change       -0.5974574E-02 Eh
 * total energy  :  -176.5082537 Eh     change       -0.3392900E-02 Eh
 * total energy  :  -176.5110292 Eh     change       -0.2775552E-02 Eh
 * total energy  :  -176.5126021 Eh     change       -0.1572942E-02 Eh
 * total energy  :  -176.5133960 Eh     change       -0.7938620E-03 Eh
 * total energy  :  -176.5139478 Eh     change       -0.5517550E-03 Eh
 * total energy  :  -176.5145383 Eh     change       -0.5905543E-03 Eh
 * total energy  :  -176.5151123 Eh     change       -0.5739908E-03 Eh
 * total energy  :  -176.5173662 Eh     change       -0.1029780E-06 Eh
 * total energy  :  -176.5173663 Eh     change       -0.1037788E-06 Eh
 * total energy  :  -176.5173664 Eh     change       -0.1091281E-06 Eh
 * total energy  :  -176.5173666 Eh     change       -0.1589787E-06 Eh
 * total energy  :  -176.5173667 Eh     change       -0.1071439E-06 Eh
 * total energy  :  -176.5173668 Eh     change       -0.1105029E-06 Eh
 * total energy  :  -176.5173669 Eh     change       -0.1202061E-06 Eh
 * total energy  :  -176.5173670 Eh     change       -0.1136417E-06 Eh
 * total energy  :  -176.5173671 Eh     change       -0.9472063E-07 Eh
   *** GEOMETRY OPTIMIZATION CONVERGED AFTER 204 ITERATIONS ***

 final structure:
================
116
 xtb: 6.7.1 (edcfbbe)
N           -0.01195394439954        0.19263969354043       -0.48300687255911
C            0.05893955924289        0.78217211045258        0.50028074712301
C            0.14297417441506        1.58083501948769        1.66345154422245
C           -1.02907926159537        2.11009672994907        2.23321026477582
C           -2.36411253018229        1.73050704277249        1.76691640927321
C           -2.69432819551190        0.39423832398093        1.54261375935580
C           -3.95746365827874        0.03889267549706        1.12281975823706
C           -4.93407994994986        1.01386332635920        0.90280290009102
N           -6.20857492783235        0.66019930127326        0.47077916630228
C           -6.79289514735040       -0.54217644039858        0.89258618810875
C           -6.62998391831437       -0.99091281194439        2.20311351551111
C           -7.21011327792730       -2.17304482396264        2.61351826913034
C           -7.98096502393255       -2.93856195531224        1.73931552205691
C           -8.59835203307017       -4.19718175242875        2.18106710909710
C           -7.90239470513057       -5.07909152003407        3.00624116834706
C           -8.48070570220874       -6.26582420363131        3.41727967511993
C           -9.76614367084666       -6.59090627235517        3.01611032966128
C          -10.46868488309991       -5.72128973684626        2.19809297272318
C           -9.89035005980517       -4.53606987225982        1.78260352711418
C           -8.14726102751034       -2.47857120615693        0.43351400207067
C           -7.55924406561753       -1.30445968077381        0.01147404423942
C           -6.91921134561936        1.50164650660588       -0.39773435306556
C           -6.26585023589990        2.16823171176887       -1.43390966128883
C           -6.97116845549271        2.98913769309985       -2.28931993001676
C           -8.34557120740493        3.17109530498251       -2.14198539420341
C           -9.09291380227701        4.04678881230136       -3.05676313065743
C           -8.82982961665258        4.03592050404188       -4.42534614921655
C           -9.53347881746539        4.85907558660587       -5.28513124278125
C          -10.50782475256104        5.71179536839077       -4.79266999919829
C          -10.77659437304194        5.73270256415586       -3.43390088533802
C          -10.07785119016872        4.90614613314232       -2.57336264630402
C           -8.99191628646980        2.50049073043965       -1.10464513531846
C           -8.29403975934476        1.67752541083698       -0.24503470010043
C           -4.60495991985011        2.35354577408847        1.12946807755853
C           -3.34408483170848        2.70187221474041        1.56069020324093
C           -0.86530489267045        3.02328328931811        3.27557764536783
N            0.30825378979803        3.39739879290912        3.75024524744927
C            1.40029049329694        2.87386815182155        3.22635196596657
C            1.39910959104664        1.95161534659794        2.17791515364220
C            2.64969621921475        1.40614979254300        1.65173175378964
C            2.77704446502881        0.04743959420245        1.36025786044341
C            3.95956139463543       -0.46448170717997        0.87467054975028
C            5.05848079508490        0.37031723282383        0.65157018899992
N            6.24918168492846       -0.14037323536037        0.14722151137615
C            6.23560356808743       -1.19902861773991       -0.77237317421812
C            7.21461033310223       -2.19089160487601       -0.72188669702591
C            7.20961255935741       -3.22462235526480       -1.63523937599225
C            6.23167803834113       -3.30561806742704       -2.62571074916846
C            6.23463844505558       -4.40486280344869       -3.60229911132928
C            6.53289353871629       -5.70809503985747       -3.20824659147729
C            6.53636752940890       -6.73993915240732       -4.12865220568859
C            6.24688952888401       -6.48825014286045       -5.45974060476554
C            5.95074547366399       -5.19670500698956       -5.86372106378453
C            5.94256272810919       -4.16443347036351       -4.94386189672098
C            5.25422528924691       -2.31219025021456       -2.66770050991448
C            5.25322058372468       -1.27371044538185       -1.75955086915187
C            7.47727661539407        0.40768176835991        0.54701072522240
C            8.51377641182162        0.57117471545138       -0.37117951747770
C            9.72212876382794        1.10375740710403        0.02803101544917
C            9.93753566210521        1.48973259895048        1.35040922827039
C           11.22697162626872        2.05730633539888        1.77119838193058
C           11.79878897661595        1.69883002657954        2.99072504104374
C           13.01253243251347        2.23154376081728        3.38427894061506
C           13.67496834637345        3.13467034700945        2.56910707053464
C           13.11561519987808        3.49995433597504        1.35556979915766
C           11.90369091763482        2.96548436663258        0.95880123325075
C            8.89676709031895        1.32218107823184        2.26290673543696
C            7.68592030385364        0.78922499767354        1.87203421499004
C            4.93485958930732        1.73088117821783        0.94981702486846
C            3.75463741677914        2.23472205939331        1.44872023471642
H           -1.95734387429951       -0.37749464685536        1.71239801325472
H           -4.19410409675017       -1.00069986817401        0.95258255955639
H           -6.04978268535400       -0.40173687734905        2.89856967512734
H           -7.08856415692737       -2.49377643321473        3.63778748919813
H           -6.89266225599253       -4.84108940068567        3.30861974219666
H           -7.92557318707084       -6.94204775663572        4.05186191143354
H          -10.21768938406951       -7.51777840582495        3.33886031624695
H          -11.47350559147146       -5.96707906110960        1.88500185304675
H          -10.45130376392324       -3.85547832191902        1.15844483374926
H           -8.72072662663318       -3.06499291517316       -0.26924294427610
H           -7.68550208467360       -0.97074327444896       -1.00816302620729
H           -5.20148671323952        2.03497413481794       -1.56457796967716
H           -6.44585503886880        3.50625962763138       -3.07882546012209
H           -8.08210630609470        3.36196761817994       -4.81835440554325
H           -9.32203240802725        4.83492919152713       -6.34477643137114
H          -11.05538095534905        6.35654550058242       -5.46467161005891
H          -11.53301823445638        6.39845211086605       -3.04308456876699
H          -10.28173949542245        4.93942648537077       -1.51273105599563
H          -10.05862111180292        2.61473074432001       -0.97896217492000
H           -8.81001775057437        1.16392117050154        0.55317752140688
H           -5.34981080559908        3.11871543371320        0.96913145023618
H           -3.10527776568777        3.74259965393717        1.72405960761947
H           -1.72872552866611        3.46322343776600        3.75656118613353
H            2.33331714213664        3.19395462943884        3.67048001794005
H            1.94937881607411       -0.62159272135098        1.54665820456319
H            4.04353156292267       -1.52122265458195        0.66965140490138
H            7.98062896330442       -2.14395312287509        0.03846111995888
H            7.98538503016661       -3.97461731080093       -1.58820506438976
H            6.74337384134311       -5.91569314674885       -2.16894195798072
H            6.76402228443664       -7.74610531596765       -3.80622178682648
H            6.25172110527664       -7.29481364637107       -6.17846755581372
H            5.72731376974879       -4.99290436044409       -6.90135198124688
H            5.72737437361653       -3.15692631108798       -5.26975596568231
H            4.47592639212480       -2.35891618294597       -3.41508882655966
H            4.48890112490206       -0.51167785197858       -1.81157678111157
H            8.36411644389246        0.27723987965996       -1.39985949071807
H           10.51738678370710        1.20992859668996       -0.69503165745693
H           11.29717252519764        0.98139934370242        3.62420071009544
H           13.44562426844731        1.93936439255931        4.33040632399087
H           14.62253769422999        3.55144263007473        2.87808598101750
H           13.62552222276683        4.20684582642650        0.71648515527101
H           11.46531561394231        3.26907293897256        0.01901797314895
H            9.03407296651739        1.62448064371822        3.29069163208313
H            6.89131359165211        0.66270591262666        2.59312932538863
H            5.77125919623471        2.39110779190657        0.77513671922235
H            3.67086844242682        3.29271035195095        1.64929677906559

          :  Hamiltonian                  GFN2-xTB          :
         :: gradient norm              0.000025450918 Eh/a0 ::
         :: HOMO-LUMO gap              1.607680056146 eV    ::
         :: SCC energy              -179.916352013490 Eh    ::
         :: -> dispersion             -0.157544667204 Eh    ::
         :: -> Gsolv                  -0.077794687549 Eh    ::
         :: repulsion energy           3.398984882239 Eh    ::

    * Orbital Energies and Occupations

         #    Occupation            Energy/Eh            Energy/eV
      -------------------------------------------------------------
         1        2.0000           -0.6822946             -18.5662
       ...           ...                  ...                  ...
       153        2.0000           -0.4072925             -11.0830
       154        2.0000           -0.4065539             -11.0629
       155        2.0000           -0.4038096             -10.9882
       156        2.0000           -0.4036025             -10.9826
       157        2.0000           -0.4035264             -10.9805
       158        2.0000           -0.4029895             -10.9659
       159        2.0000           -0.3954573             -10.7609
       160        2.0000           -0.3934928             -10.7075
       161        2.0000           -0.3879674             -10.5571
       162        2.0000           -0.3875919             -10.5469
       163        2.0000           -0.3811119             -10.3706
       164        2.0000           -0.3524079              -9.5895
       165        2.0000           -0.3520066              -9.5786 (HOMO)
       166                         -0.2929254              -7.9709 (LUMO)
       167                         -0.2682428              -7.2993
       168                         -0.2502147              -6.8087
       169                         -0.2501976              -6.8082
       170                         -0.2451669              -6.6713
       171                         -0.2396874              -6.5222
       172                         -0.2347461              -6.3878
       173                         -0.2334939              -6.3537
       174                         -0.2268889              -6.1740
       175                         -0.2265501              -6.1647
       176                         -0.2250722              -6.1245
       ...                                ...                  ...
       326                          1.1471018              31.2142
      -------------------------------------------------------------
                  HL-Gap            0.0590812 Eh            1.6077 eV

     #   Z          covCN         q      C6AA      α(0)
     1   7 N        0.911    -0.274    27.091     7.528
     2   6 C        1.909     0.124    28.058     8.555
     3   6 C        2.986     0.015    27.677     8.630
     4   6 C        2.975     0.008    27.834     8.654
     5   6 C        2.975    -0.006    28.155     8.704
     6   6 C        2.923    -0.029    28.723     8.789
     7   6 C        2.921    -0.047    29.167     8.856
     8   6 C        2.923     0.069    26.455     8.435
     9   7 N        2.752    -0.070    22.602     7.061
    10   6 C        2.924     0.062    26.609     8.459
    11   6 C        2.920    -0.048    29.187     8.859
    12   6 C        2.924    -0.034    28.854     8.809
    13   6 C        2.975     0.003    27.957     8.673
    14   6 C        2.976     0.010    27.800     8.649
    15   6 C        2.925    -0.035    28.880     8.813
    16   6 C        2.918    -0.031    28.770     8.796
    17   6 C        2.920    -0.033    28.814     8.803
    18   6 C        2.918    -0.031    28.769     8.796
    19   6 C        2.925    -0.035    28.879     8.813
    20   6 C        2.924    -0.034    28.846     8.808
    21   6 C        2.920    -0.047    29.165     8.856
    22   6 C        2.925     0.062    26.609     8.459
    23   6 C        2.920    -0.047    29.172     8.857
    24   6 C        2.924    -0.034    28.846     8.808
    25   6 C        2.975     0.003    27.947     8.671
    26   6 C        2.976     0.010    27.797     8.648
    27   6 C        2.925    -0.035    28.876     8.812
    28   6 C        2.918    -0.031    28.767     8.795
    29   6 C        2.920    -0.033    28.812     8.802
    30   6 C        2.918    -0.031    28.769     8.796
    31   6 C        2.925    -0.035    28.878     8.813
    32   6 C        2.924    -0.034    28.847     8.808
    33   6 C        2.920    -0.047    29.164     8.856
    34   6 C        2.921    -0.048    29.184     8.859
    35   6 C        2.923    -0.033    28.831     8.805
    36   6 C        2.914     0.052    26.842     8.496
    37   7 N        1.833    -0.229    26.844     7.678
    38   6 C        2.914     0.052    26.839     8.495
    39   6 C        2.975     0.008    27.841     8.655
    40   6 C        2.975    -0.006    28.161     8.705
    41   6 C        2.922    -0.029    28.723     8.789
    42   6 C        2.920    -0.047    29.169     8.857
    43   6 C        2.923     0.069    26.455     8.435
    44   7 N        2.752    -0.069    22.577     7.057
    45   6 C        2.924     0.062    26.616     8.460
    46   6 C        2.920    -0.047    29.175     8.858
    47   6 C        2.924    -0.034    28.852     8.809
    48   6 C        2.975     0.003    27.948     8.672
    49   6 C        2.976     0.010    27.797     8.648
    50   6 C        2.925    -0.035    28.878     8.813
    51   6 C        2.918    -0.031    28.770     8.796
    52   6 C        2.920    -0.033    28.812     8.802
    53   6 C        2.918    -0.031    28.767     8.795
    54   6 C        2.925    -0.035    28.874     8.812
    55   6 C        2.924    -0.034    28.840     8.807
    56   6 C        2.920    -0.047    29.169     8.857
    57   6 C        2.925     0.062    26.614     8.460
    58   6 C        2.920    -0.047    29.157     8.855
    59   6 C        2.924    -0.034    28.844     8.807
    60   6 C        2.975     0.003    27.942     8.671
    61   6 C        2.976     0.010    27.797     8.648
    62   6 C        2.925    -0.035    28.877     8.813
    63   6 C        2.918    -0.031    28.768     8.795
    64   6 C        2.920    -0.032    28.810     8.802
    65   6 C        2.918    -0.031    28.767     8.795
    66   6 C        2.925    -0.035    28.877     8.813
    67   6 C        2.924    -0.034    28.850     8.808
    68   6 C        2.920    -0.047    29.177     8.858
    69   6 C        2.920    -0.048    29.189     8.860
    70   6 C        2.923    -0.033    28.831     8.805
    71   1 H        0.926     0.030     2.593     2.518
    72   1 H        0.926     0.039     2.458     2.452
    73   1 H        0.926     0.033     2.546     2.495
    74   1 H        0.926     0.037     2.489     2.467
    75   1 H        0.926     0.031     2.565     2.505
    76   1 H        0.926     0.030     2.584     2.514
    77   1 H        0.926     0.030     2.587     2.515
    78   1 H        0.926     0.031     2.578     2.511
    79   1 H        0.926     0.032     2.552     2.498
    80   1 H        0.926     0.038     2.479     2.462
    81   1 H        0.926     0.034     2.524     2.485
    82   1 H        0.926     0.032     2.553     2.498
    83   1 H        0.926     0.037     2.490     2.467
    84   1 H        0.926     0.032     2.560     2.502
    85   1 H        0.926     0.030     2.580     2.512
    86   1 H        0.926     0.030     2.585     2.514
    87   1 H        0.926     0.031     2.577     2.511
    88   1 H        0.926     0.032     2.554     2.499
    89   1 H        0.926     0.038     2.475     2.460
    90   1 H        0.926     0.035     2.516     2.481
    91   1 H        0.926     0.041     2.435     2.440
    92   1 H        0.926     0.038     2.469     2.457
    93   1 H        0.925     0.045     2.385     2.415
    94   1 H        0.925     0.045     2.380     2.412
    95   1 H        0.926     0.030     2.588     2.516
    96   1 H        0.926     0.040     2.455     2.450
    97   1 H        0.926     0.035     2.517     2.481
    98   1 H        0.926     0.038     2.476     2.460
    99   1 H        0.926     0.032     2.556     2.500
   100   1 H        0.926     0.030     2.579     2.511
   101   1 H        0.926     0.030     2.585     2.514
   102   1 H        0.926     0.030     2.579     2.511
   103   1 H        0.926     0.032     2.557     2.501
   104   1 H        0.926     0.037     2.484     2.465
   105   1 H        0.926     0.033     2.549     2.497
   106   1 H        0.926     0.035     2.518     2.482
   107   1 H        0.926     0.038     2.475     2.460
   108   1 H        0.926     0.032     2.555     2.499
   109   1 H        0.926     0.031     2.579     2.511
   110   1 H        0.926     0.030     2.586     2.515
   111   1 H        0.926     0.030     2.579     2.511
   112   1 H        0.926     0.032     2.554     2.499
   113   1 H        0.926     0.038     2.477     2.461
   114   1 H        0.926     0.034     2.534     2.489
   115   1 H        0.926     0.041     2.432     2.439
   116   1 H        0.926     0.039     2.463     2.454

molecular dipole:
                 x           y           z       tot (Debye)
 q only:        0.102      -0.028       0.157
   full:        0.105      -0.043       0.236       0.665

 projected vibrational frequencies (cm⁻¹)
eigval :       -0.00     0.00     0.00     0.00     0.00     0.00
eigval :        4.19     4.65     6.12    14.42    16.13    16.71
eigval :       19.20    23.88    28.26    32.15    32.41    38.47
eigval :       41.02    48.90    60.21    62.39    65.97    67.24
eigval :       71.87    78.92    81.21    85.34    86.87    91.14
eigval :       93.01    98.11   102.86   108.39   112.92   114.16
eigval :      124.56   129.59   149.25   161.98   173.54   185.89
eigval :      189.06   195.84   201.03   205.36   230.63   240.70
eigval :      246.44   251.95   277.27   284.89   293.72   296.76
eigval :      303.17   304.66   338.87   352.57   357.34   366.08
eigval :      369.06   369.96   370.56   372.34   375.80   378.85
eigval :      379.34   380.13   380.66   382.05   387.52   388.09
eigval :      397.62   408.16   414.82   418.75   423.45   427.76
eigval :      432.97   449.28   458.66   487.93   489.79   490.48
eigval :      492.53   500.61   503.43   527.07   533.96   534.75
eigval :      535.49   547.00   575.05   575.81   579.70   583.99
eigval :      586.66   588.38   588.57   590.02   592.45   599.31
eigval :      602.34   607.30   609.24   609.75   611.45   622.88
eigval :      624.53   657.51   665.88   666.18   666.73   667.27
eigval :      675.72   682.83   683.62   685.20   687.87   689.11
eigval :      699.42   720.22   736.48   736.86   755.65   756.49
eigval :      756.71   761.12   765.19   772.90   797.93   813.15
eigval :      813.97   817.87   819.79   821.57   822.32   834.14
eigval :      855.20   864.94   866.95   867.59   869.28   871.66
eigval :      871.74   878.41   878.57   879.15   882.95   900.30
eigval :      900.51   900.66   901.37   903.26   913.58   914.61
eigval :      914.95   916.03   916.22   916.43   918.25   919.38
eigval :      920.24   923.13   924.53   925.38   926.72   927.48
eigval :      927.96   928.74   931.46   932.42   932.55   933.18
eigval :      933.49   933.72   934.43   936.91   964.17   965.99
eigval :      971.20   971.38   993.21  1002.64  1012.29  1017.93
eigval :     1018.55  1021.50  1063.40  1074.01  1074.74  1074.99
eigval :     1075.45  1086.08  1087.16  1087.86  1087.93  1120.50
eigval :     1120.92  1121.08  1121.68  1140.04  1141.12  1141.73
eigval :     1142.40  1142.78  1144.43  1159.89  1162.61  1181.49
eigval :     1181.84  1182.70  1183.10  1183.53  1183.93  1191.87
eigval :     1193.42  1194.27  1195.53  1200.07  1201.85  1203.05
eigval :     1203.93  1209.75  1217.21  1218.76  1252.17  1260.64
eigval :     1267.00  1268.28  1270.21  1270.44  1271.22  1272.06
eigval :     1279.58  1280.88  1281.34  1281.60  1281.73  1282.08
eigval :     1291.89  1293.93  1309.80  1310.79  1313.90  1316.21
eigval :     1316.40  1316.53  1316.81  1322.10  1322.72  1323.51
eigval :     1323.95  1326.30  1326.67  1327.30  1343.67  1396.33
eigval :     1398.46  1400.50  1405.25  1407.59  1408.15  1417.61
eigval :     1426.26  1432.76  1433.03  1434.01  1434.34  1462.51
eigval :     1463.01  1463.51  1463.86  1489.27  1491.65  1497.46
eigval :     1498.25  1498.48  1498.69  1514.92  1535.05  1547.19
eigval :     1549.10  1557.03  1557.67  1560.04  1560.16  1580.63
eigval :     1580.68  1580.79  1581.14  1587.46  1588.21  1589.24
eigval :     1589.41  1594.25  1595.09  1601.16  1601.25  1602.70
eigval :     1602.94  2348.68  3062.27  3062.66  3065.60  3065.83
eigval :     3065.91  3065.94  3066.78  3067.36  3067.43  3067.60
eigval :     3074.67  3074.72  3074.99  3075.34  3075.37  3075.76
eigval :     3075.81  3076.10  3076.11  3076.19  3077.26  3077.35
eigval :     3078.21  3078.27  3078.76  3079.53  3079.81  3079.94
eigval :     3080.10  3080.36  3086.09  3086.19  3086.63  3086.86
eigval :     3087.24  3087.69  3087.72  3087.87  3089.76  3089.82
eigval :     3090.70  3090.80  3092.07  3092.11  3094.36  3094.63

   temp. (K)  partition function   enthalpy   heat capacity  entropy
                                   cal/mol     cal/K/mol   cal/K/mol   J/K/mol
 298.15  VIB  0.107E+31            34617.114    211.514    222.204
         ROT  0.538E+09              888.752      2.981     42.933
         INT  0.575E+39            35505.867    214.495    265.137
         TR   0.259E+29             1481.254      4.968     46.230
         TOT                       36987.1207   219.4632   311.3674  1302.7613

       T/K    H(0)-H(T)+PV         H(T)/Eh          T*S/Eh         G(T)/Eh
   ------------------------------------------------------------------------
    298.15    0.589427E-01    0.956005E+00    0.147941E+00    0.808064E+00
   ------------------------------------------------------------------------

         :::::::::::::::::::::::::::::::::::::::::::::::::::::
         ::                  THERMODYNAMIC                  ::
         :::::::::::::::::::::::::::::::::::::::::::::::::::::
         :: total free energy        -175.709303321001 Eh   ::
         ::.................................................::
         :: total energy             -176.517367130834 Eh   ::
         :: zero point energy           0.897061787183 Eh   ::
         :: G(RRHO) w/o ZPVE           -0.088997977351 Eh   ::
         :: G(RRHO) contrib.            0.808063809833 Eh   ::
         :::::::::::::::::::::::::::::::::::::::::::::::::::::

           -------------------------------------------------
          | TOTAL ENERGY             -176.517367130834 Eh   |
          | TOTAL ENTHALPY           -175.561362614932 Eh   |
          | TOTAL FREE ENERGY        -175.709303321001 Eh   |
          | GRADIENT NORM               0.000025577342 Eh/α |
          | HOMO-LUMO GAP               1.607681854053 eV   |
           -------------------------------------------------

 * finished run on 2025/07/19 at 18:07:46.938
