   * xtb version 6.7.1 (edcfbbe) compiled by 'albert@albert-system' on 2024-07-22

   ID    Z sym.   atoms
    1    7 N      1, 9, 37, 44
    2    6 C      2-8, 10-36, 38-43, 45-70
    3    1 H      71-116

          program call               : xtb data2507/toluene/2BTPA-INN/2BTPA-INN_toluene_S0_crest.xyz --gfn 2 --gbsa toluene --ohess vtight --parallel 40 --molden --ceasefiles --namespace data2507/toluene/2BTPA-INN/2BTPA-INN_toluene_S0_finalOpt
      * Solvation model:               GBSA
        Solvent                        toluene
        Solvent mass                       9.2140E+01 g/mol
          :  Hamiltonian                  GFN2-xTB          :
 * total energy  :  -176.5174827 Eh     change       -0.1737106E-08 Eh
 * total energy  :  -176.5175253 Eh     change       -0.4259173E-04 Eh
 * total energy  :  -176.5175514 Eh     change       -0.2616151E-04 Eh
 * total energy  :  -176.5175588 Eh     change       -0.7400169E-05 Eh
 * total energy  :  -176.5175651 Eh     change       -0.6301044E-05 Eh
 * total energy  :  -176.5175699 Eh     change       -0.4770227E-05 Eh
 * total energy  :  -176.5175745 Eh     change       -0.4559444E-05 Eh
 * total energy  :  -176.5175797 Eh     change       -0.5218489E-05 Eh
 * total energy  :  -176.5175866 Eh     change       -0.6967033E-05 Eh
 * total energy  :  -176.5175939 Eh     change       -0.7273622E-05 Eh
 * total energy  :  -176.5179822 Eh     change       -0.1811417E-06 Eh
 * total energy  :  -176.5179824 Eh     change       -0.1950409E-06 Eh
 * total energy  :  -176.5179827 Eh     change       -0.3048264E-06 Eh
 * total energy  :  -176.5179832 Eh     change       -0.4710712E-06 Eh
 * total energy  :  -176.5179837 Eh     change       -0.5105979E-06 Eh
 * total energy  :  -176.5179840 Eh     change       -0.3412231E-06 Eh
 * total energy  :  -176.5179843 Eh     change       -0.2513517E-06 Eh
 * total energy  :  -176.5179845 Eh     change       -0.2603601E-06 Eh
 * total energy  :  -176.5179845 Eh     change       -0.1557879E-08 Eh
   *** GEOMETRY OPTIMIZATION CONVERGED AFTER 221 ITERATIONS ***

 final structure:
================
116
 xtb: 6.7.1 (edcfbbe)
N           -0.00052785957677        0.03046786211886       -0.56955914575245
C            0.05802486747961        0.78286531759041        0.29644101014372
C            0.12938617566727        1.77300977928932        1.30265303757828
C           -1.05053286406779        2.35253659481458        1.80356322803657
C           -2.37969436367204        1.85124471913868        1.45034985385891
C           -2.65529683488389        0.48385752319277        1.44752355885201
C           -3.91262902564311        0.01597010852613        1.13464314552018
C           -4.94113993116450        0.90390096855805        0.80760631820717
N           -6.21092687285008        0.43493908170538        0.48731715931731
C           -6.71901792696419       -0.71743629378366        1.10383483660126
C           -6.48930757973118       -0.96040078925134        2.45784409616378
C           -6.99507185236572       -2.09391022326229        3.05931878210363
C           -7.75641644897323       -3.01299079462032        2.33820936218572
C           -8.29821936958082       -4.21628010632788        2.98548644942497
C           -7.53212437494832       -4.93764820119857        3.89961537207176
C           -8.04053012057956       -6.07086016168942        4.50717524246313
C           -9.32430446407735       -6.50192628071956        4.21546440364427
C          -10.09599971200305       -5.79197580924857        3.31022100583933
C           -9.58767049182146       -4.66094678584973        2.69847682943555
C           -7.98929443761333       -2.75882004394242        0.98718249627573
C           -7.47562424654773       -1.63446419873852        0.37503537016333
C           -6.99818814512450        1.10956870466795       -0.45694327842383
C           -6.42365217539099        1.64965942953437       -1.60733659940084
C           -7.20365500753297        2.31430788018381       -2.53063349073894
C           -8.57937448918607        2.44949970535402       -2.34696554449863
C           -9.40814526401467        3.15423588513816       -3.33532437321097
C           -8.95282520870241        4.32401026018116       -3.94127975818755
C           -9.73551278646853        4.99014652020610       -4.86618834382531
C          -10.98497529004107        4.49772380253755       -5.20589690092101
C          -11.44686549442806        3.33415950257690       -4.61281138159998
C          -10.66707949215605        2.66872874970060       -3.68496698387135
C           -9.14796731951899        1.89736740568161       -1.19971427165650
C           -8.37290101840680        1.24326769261579       -0.26480304275829
C           -4.66755668319426        2.27496295636500        0.81424868825552
C           -3.41081788288617        2.73739740514346        1.13608450765499
C           -0.89941550270988        3.43827665808200        2.66762668569673
N            0.26828437041942        3.93025086526659        3.03718336733649
C            1.36878310556381        3.36168116500168        2.58216477594130
C            1.38061607190392        2.27017522783378        1.71180788662411
C            2.63933854993606        1.68031397718515        1.25703005048821
C            2.81232516673421        0.29626025450659        1.21839141971901
C            4.00247150689106       -0.25673808880518        0.80151555114826
C            5.06214140399635        0.55828124826485        0.39242755983660
N            6.25644149598166        0.00097705427897       -0.04939521685923
C            7.47461720072878        0.65525089421493        0.18380927813975
C            8.47159155179516        0.66340624664341       -0.79111431252501
C            9.67300063853376        1.29897206692635       -0.55569783609777
C            9.91544476042742        1.95690596185443        0.64950371152641
C           11.19156078282120        2.64467346623197        0.89252903082951
C           11.22066932228307        3.88217503678864        1.53328441569794
C           12.42044147597274        4.53072090737924        1.76045880307759
C           13.61281440814425        3.95283026490073        1.35635205750851
C           13.59657836546423        2.72223238284331        0.72046941590258
C           12.39731884104149        2.07453914713654        0.48791999766658
C            8.91325433112780        1.94575772528811        1.61900502462047
C            7.71466739634240        1.30030361810070        1.39687127936341
C            6.25414390501415       -1.21597715846430       -0.74694698497252
C            5.25340403243141       -1.50318640876083       -1.67492104827776
C            5.25686808253631       -2.70291824789529       -2.35553442643693
C            6.26255648226458       -3.64602660740649       -2.14724901351696
C            6.26493915141366       -4.92054339826732       -2.87950829107218
C            5.07868310342595       -5.62114076782975       -3.09091039209024
C            5.08160034337227       -6.82202111848609       -3.77630415996030
C            6.26818671456214       -7.34210262403720       -4.26673872424209
C            7.45300364520817       -6.65326833550256       -4.06522447693029
C            7.45269904492490       -5.45448297570184       -3.37618981385637
C            7.26528670360490       -3.34723101090699       -1.22560669794410
C            7.26092249438455       -2.15605344849658       -0.52992185718967
C            4.89296555346065        1.94559952697031        0.43780496213245
C            3.70631832471102        2.49332588509801        0.87131189903048
H           -1.87899218724365       -0.22161535539169        1.70666893025018
H           -4.10527637063735       -1.04638765874086        1.13462973009202
H           -5.91678392270224       -0.24973158950176        3.03619120101377
H           -6.82275498410161       -2.25477305938693        4.11347715591741
H           -6.52341961253101       -4.61782490675841        4.11848803090858
H           -7.43176059976884       -6.62244058191867        5.20958780089919
H           -9.72141761182549       -7.38680700065299        4.69132100433324
H          -11.09987227560497       -6.12082797486912        3.08164414656455
H          -10.20193456643937       -4.10316137203969        2.00630631769671
H           -8.55597640511582       -3.46759458107203        0.40146844202752
H           -7.65316032602744       -1.46021977307653       -0.67625701490152
H           -5.36202181692611        1.53727662422138       -1.77443084800644
H           -6.74330452724117        2.70885359629786       -3.42457733811533
H           -7.98674873475309        4.72383165345323       -3.66845664948776
H           -9.37055818373214        5.89940560985035       -5.32251491313062
H          -11.59599710256563        5.01837753554367       -5.92890423298988
H          -12.41896765852325        2.94249735268036       -4.87675323362278
H          -11.02721182687566        1.75234457181559       -3.23993961483920
H          -10.20779322813794        2.00872762758923       -1.02362957719720
H           -8.82685156905390        0.83417917703203        0.62608778189183
H           -5.45297528782824        2.97494521723045        0.57113862695425
H           -3.21629945128781        3.79986635671587        1.12736199152831
H           -1.76840476241118        3.92426278450580        3.09062472535299
H            2.29790716824887        3.78649412820070        2.93797712886465
H            2.01534966283140       -0.35404013975445        1.54920585383090
H            4.12281989185093       -1.32968875301639        0.79467217328820
H            8.29376116064008        0.17202189434533       -1.73661928450886
H           10.42506518723234        1.31117662442396       -1.33079750518710
H           10.29338396576434        4.34707812479868        1.83616326796138
H           12.42590451206260        5.49274651060585        2.25302677665286
H           14.55016883144770        4.45906228128517        1.53582070068462
H           14.52385455019643        2.26430118970837        0.40647137284760
H           12.39396200802567        1.10721670739183        0.00648115673613
H            9.08784912243603        2.42410358741628        2.57159551894930
H            6.95580545850293        1.28608107690771        2.16581144696907
H            4.47469114334211       -0.77781029507525       -1.86187350341684
H            4.48222232746165       -2.89937150338089       -3.08213382169245
H            4.15177298212964       -5.23012872570428       -2.69648930030667
H            4.15416029331326       -7.35622543197519       -3.92659942831411
H            6.26958656475173       -8.27951517927685       -4.80378666580168
H            8.38129976930408       -7.05138724375595       -4.44970461285825
H            8.37830537648676       -4.91443213796241       -3.23790175133546
H            8.04256917119036       -4.07125279068104       -1.02992801254053
H            8.03679103950423       -1.94664537157154        0.19212347015510
H            5.69771756415977        2.58990024066951        0.11669483476390
H            3.58603532148709        3.56673480851791        0.87503999827942

          :  Hamiltonian                  GFN2-xTB          :
         :: gradient norm              0.000030591704 Eh/a0 ::
         :: HOMO-LUMO gap              1.611772805485 eV    ::
         :: SCC energy              -179.917043031455 Eh    ::
         :: -> dispersion             -0.157798630138 Eh    ::
         :: -> Gsolv                  -0.077797741193 Eh    ::
         :: repulsion energy           3.399058496258 Eh    ::

    * Orbital Energies and Occupations

         #    Occupation            Energy/Eh            Energy/eV
      -------------------------------------------------------------
         1        2.0000           -0.6822858             -18.5659
       ...           ...                  ...                  ...
       153        2.0000           -0.4077558             -11.0956
       154        2.0000           -0.4073953             -11.0858
       155        2.0000           -0.4037610             -10.9869
       156        2.0000           -0.4037134             -10.9856
       157        2.0000           -0.4035970             -10.9824
       158        2.0000           -0.4029997             -10.9662
       159        2.0000           -0.3961593             -10.7800
       160        2.0000           -0.3939959             -10.7212
       161        2.0000           -0.3882763             -10.5655
       162        2.0000           -0.3881258             -10.5614
       163        2.0000           -0.3811585             -10.3719
       164        2.0000           -0.3525714              -9.5940
       165        2.0000           -0.3522289              -9.5846 (HOMO)
       166                         -0.2929974              -7.9729 (LUMO)
       167                         -0.2684023              -7.3036
       168                         -0.2506603              -6.8208
       169                         -0.2503711              -6.8129
       170                         -0.2452438              -6.6734
       171                         -0.2395775              -6.5192
       172                         -0.2348127              -6.3896
       173                         -0.2335634              -6.3556
       174                         -0.2270145              -6.1774
       175                         -0.2266303              -6.1669
       176                         -0.2248737              -6.1191
       ...                                ...                  ...
       326                          1.1468932              31.2086
      -------------------------------------------------------------
                  HL-Gap            0.0592315 Eh            1.6118 eV

     #   Z          covCN         q      C6AA      α(0)
     1   7 N        0.911    -0.275    27.099     7.529
     2   6 C        1.909     0.124    28.058     8.555
     3   6 C        2.986     0.015    27.679     8.630
     4   6 C        2.975     0.008    27.836     8.654
     5   6 C        2.975    -0.006    28.158     8.704
     6   6 C        2.923    -0.029    28.723     8.789
     7   6 C        2.921    -0.047    29.171     8.857
     8   6 C        2.923     0.069    26.455     8.435
     9   7 N        2.752    -0.070    22.591     7.059
    10   6 C        2.925     0.062    26.611     8.460
    11   6 C        2.920    -0.048    29.182     8.859
    12   6 C        2.924    -0.034    28.853     8.809
    13   6 C        2.975     0.003    27.952     8.672
    14   6 C        2.976     0.010    27.799     8.649
    15   6 C        2.925    -0.035    28.879     8.813
    16   6 C        2.918    -0.031    28.769     8.796
    17   6 C        2.920    -0.033    28.813     8.802
    18   6 C        2.918    -0.031    28.768     8.796
    19   6 C        2.925    -0.035    28.878     8.813
    20   6 C        2.924    -0.034    28.845     8.808
    21   6 C        2.920    -0.047    29.161     8.855
    22   6 C        2.925     0.062    26.611     8.460
    23   6 C        2.920    -0.047    29.172     8.857
    24   6 C        2.924    -0.034    28.847     8.808
    25   6 C        2.975     0.003    27.949     8.672
    26   6 C        2.976     0.010    27.799     8.649
    27   6 C        2.925    -0.035    28.879     8.813
    28   6 C        2.918    -0.031    28.769     8.796
    29   6 C        2.920    -0.033    28.812     8.802
    30   6 C        2.918    -0.031    28.769     8.796
    31   6 C        2.925    -0.035    28.879     8.813
    32   6 C        2.924    -0.034    28.848     8.808
    33   6 C        2.920    -0.047    29.164     8.856
    34   6 C        2.921    -0.048    29.188     8.860
    35   6 C        2.923    -0.033    28.831     8.805
    36   6 C        2.914     0.052    26.843     8.496
    37   7 N        1.833    -0.229    26.849     7.678
    38   6 C        2.914     0.052    26.840     8.495
    39   6 C        2.975     0.008    27.840     8.655
    40   6 C        2.975    -0.006    28.164     8.705
    41   6 C        2.923    -0.029    28.722     8.789
    42   6 C        2.921    -0.047    29.172     8.857
    43   6 C        2.923     0.069    26.456     8.435
    44   7 N        2.752    -0.069    22.572     7.056
    45   6 C        2.925     0.062    26.615     8.460
    46   6 C        2.920    -0.047    29.160     8.855
    47   6 C        2.924    -0.034    28.844     8.807
    48   6 C        2.975     0.003    27.947     8.672
    49   6 C        2.976     0.010    27.799     8.649
    50   6 C        2.925    -0.035    28.879     8.813
    51   6 C        2.918    -0.031    28.769     8.796
    52   6 C        2.920    -0.033    28.812     8.802
    53   6 C        2.918    -0.031    28.768     8.795
    54   6 C        2.925    -0.035    28.878     8.813
    55   6 C        2.924    -0.034    28.850     8.808
    56   6 C        2.920    -0.047    29.178     8.858
    57   6 C        2.925     0.062    26.618     8.461
    58   6 C        2.920    -0.047    29.159     8.855
    59   6 C        2.924    -0.034    28.839     8.807
    60   6 C        2.975     0.003    27.943     8.671
    61   6 C        2.976     0.010    27.799     8.649
    62   6 C        2.925    -0.035    28.874     8.812
    63   6 C        2.918    -0.031    28.765     8.795
    64   6 C        2.920    -0.033    28.812     8.802
    65   6 C        2.918    -0.031    28.771     8.796
    66   6 C        2.925    -0.035    28.880     8.813
    67   6 C        2.924    -0.034    28.851     8.809
    68   6 C        2.920    -0.047    29.167     8.856
    69   6 C        2.920    -0.048    29.193     8.860
    70   6 C        2.923    -0.033    28.831     8.805
    71   1 H        0.926     0.030     2.592     2.518
    72   1 H        0.926     0.039     2.459     2.452
    73   1 H        0.926     0.033     2.544     2.494
    74   1 H        0.926     0.037     2.487     2.466
    75   1 H        0.926     0.032     2.565     2.505
    76   1 H        0.926     0.030     2.584     2.514
    77   1 H        0.926     0.030     2.586     2.515
    78   1 H        0.926     0.031     2.577     2.510
    79   1 H        0.926     0.032     2.551     2.498
    80   1 H        0.926     0.038     2.477     2.461
    81   1 H        0.926     0.035     2.522     2.483
    82   1 H        0.926     0.033     2.550     2.497
    83   1 H        0.926     0.037     2.488     2.467
    84   1 H        0.926     0.032     2.562     2.503
    85   1 H        0.926     0.030     2.583     2.513
    86   1 H        0.926     0.030     2.587     2.515
    87   1 H        0.926     0.031     2.578     2.511
    88   1 H        0.926     0.032     2.551     2.498
    89   1 H        0.926     0.038     2.473     2.459
    90   1 H        0.926     0.035     2.517     2.481
    91   1 H        0.926     0.041     2.435     2.440
    92   1 H        0.926     0.039     2.467     2.456
    93   1 H        0.925     0.045     2.384     2.415
    94   1 H        0.925     0.045     2.382     2.414
    95   1 H        0.926     0.030     2.592     2.518
    96   1 H        0.926     0.039     2.458     2.452
    97   1 H        0.926     0.035     2.521     2.483
    98   1 H        0.926     0.038     2.477     2.461
    99   1 H        0.926     0.032     2.557     2.501
   100   1 H        0.926     0.030     2.581     2.512
   101   1 H        0.926     0.030     2.588     2.515
   102   1 H        0.926     0.030     2.580     2.512
   103   1 H        0.926     0.032     2.553     2.499
   104   1 H        0.926     0.038     2.479     2.462
   105   1 H        0.926     0.034     2.533     2.489
   106   1 H        0.926     0.033     2.547     2.496
   107   1 H        0.926     0.037     2.483     2.464
   108   1 H        0.926     0.032     2.560     2.502
   109   1 H        0.926     0.030     2.581     2.512
   110   1 H        0.926     0.030     2.586     2.515
   111   1 H        0.926     0.031     2.577     2.510
   112   1 H        0.926     0.032     2.551     2.498
   113   1 H        0.926     0.038     2.473     2.459
   114   1 H        0.926     0.035     2.514     2.480
   115   1 H        0.926     0.041     2.432     2.439
   116   1 H        0.926     0.039     2.465     2.455

molecular dipole:
                 x           y           z       tot (Debye)
 q only:        0.061      -0.042       0.164
   full:        0.058      -0.038       0.250       0.659

 projected vibrational frequencies (cm⁻¹)
eigval :       -0.00    -0.00    -0.00    -0.00     0.00     0.00
eigval :        4.54     5.91     6.12    14.97    15.64    17.28
eigval :       18.57    23.47    24.53    27.14    29.98    35.11
eigval :       38.39    43.59    57.01    62.58    64.18    66.83
eigval :       73.52    74.83    80.17    83.53    86.42    91.12
eigval :       98.70    99.16   102.70   106.59   113.60   115.32
eigval :      126.83   130.58   151.50   163.76   178.60   190.53
eigval :      191.83   194.65   201.68   211.82   220.50   240.13
eigval :      241.72   251.71   263.57   280.79   289.15   314.39
eigval :      317.82   324.08   339.80   342.34   350.92   364.95
eigval :      368.84   370.51   371.23   373.19   373.30   381.71
eigval :      381.89   382.90   384.03   385.92   388.37   389.69
eigval :      403.28   413.15   422.95   424.97   427.90   428.56
eigval :      430.80   440.00   443.87   484.59   485.34   490.83
eigval :      492.52   501.22   501.82   527.37   535.36   535.77
eigval :      536.37   547.26   574.88   576.51   580.01   585.75
eigval :      588.07   588.40   588.45   588.79   590.69   598.70
eigval :      601.85   607.31   609.62   609.80   611.05   622.26
eigval :      624.61   657.23   665.67   666.15   666.40   667.91
eigval :      675.68   683.65   684.34   686.11   688.14   690.14
eigval :      700.36   721.23   736.68   736.97   756.66   756.66
eigval :      757.86   758.07   764.45   772.73   797.96   812.09
eigval :      814.58   817.23   819.72   820.19   821.31   834.21
eigval :      854.52   865.42   866.87   868.11   869.47   870.52
eigval :      870.91   877.11   877.23   879.79   880.72   899.62
eigval :      900.11   900.41   900.79   901.05   912.18   915.83
eigval :      915.89   916.17   916.32   916.76   918.30   919.18
eigval :      919.41   924.91   925.39   925.80   926.04   927.63
eigval :      928.06   928.78   931.01   931.34   931.88   932.60
eigval :      932.97   933.49   933.91   935.46   964.11   965.93
eigval :      971.12   971.27   993.22  1002.59  1012.33  1018.22
eigval :     1018.39  1021.61  1063.47  1074.22  1074.36  1074.90
eigval :     1075.07  1086.34  1086.41  1086.49  1086.90  1120.16
eigval :     1120.41  1120.49  1120.89  1139.79  1140.49  1141.40
eigval :     1141.81  1142.58  1144.66  1159.94  1162.81  1180.10
eigval :     1180.36  1181.50  1181.77  1183.33  1184.29  1191.77
eigval :     1192.18  1194.09  1194.98  1200.36  1200.81  1201.98
eigval :     1202.41  1209.74  1217.43  1218.59  1252.25  1260.63
eigval :     1267.47  1268.25  1270.11  1270.41  1271.20  1271.95
eigval :     1280.11  1280.28  1280.39  1280.99  1281.60  1281.88
eigval :     1291.94  1293.93  1309.69  1310.67  1314.11  1316.35
eigval :     1316.57  1316.60  1316.77  1322.03  1322.79  1323.64
eigval :     1323.68  1326.64  1326.76  1327.45  1343.75  1396.38
eigval :     1398.54  1400.54  1405.39  1407.67  1408.06  1417.92
eigval :     1426.33  1432.72  1432.96  1433.89  1434.06  1462.35
eigval :     1462.69  1463.34  1463.47  1489.47  1491.83  1497.94
eigval :     1498.31  1498.39  1498.46  1514.63  1535.00  1547.14
eigval :     1548.71  1556.98  1557.40  1559.76  1559.96  1580.51
eigval :     1580.54  1580.74  1580.76  1587.07  1587.95  1588.01
eigval :     1588.11  1594.05  1594.78  1601.14  1601.16  1602.64
eigval :     1602.73  2348.35  3062.82  3063.32  3065.47  3065.54
eigval :     3065.92  3065.93  3066.95  3067.01  3067.17  3067.54
eigval :     3074.17  3074.45  3074.53  3074.93  3075.22  3075.45
eigval :     3075.58  3075.95  3076.04  3076.34  3076.92  3077.03
eigval :     3077.83  3078.22  3079.30  3079.32  3079.44  3079.98
eigval :     3080.10  3080.20  3085.75  3086.06  3086.20  3086.82
eigval :     3087.39  3087.47  3087.91  3087.92  3089.59  3089.69
eigval :     3090.39  3090.85  3092.33  3092.37  3094.63  3094.85

   temp. (K)  partition function   enthalpy   heat capacity  entropy
                                   cal/mol     cal/K/mol   cal/K/mol   J/K/mol
 298.15  VIB  0.142E+31            34620.169    211.032    221.855
         ROT  0.536E+09              888.752      2.981     42.923
         INT  0.762E+39            35508.922    214.013    264.778
         TR   0.259E+29             1481.254      4.968     46.230
         TOT                       36990.1758   218.9810   311.0087  1301.2603

       T/K    H(0)-H(T)+PV         H(T)/Eh          T*S/Eh         G(T)/Eh
   ------------------------------------------------------------------------
    298.15    0.589476E-01    0.955945E+00    0.147770E+00    0.808175E+00
   ------------------------------------------------------------------------

         :::::::::::::::::::::::::::::::::::::::::::::::::::::
         ::                  THERMODYNAMIC                  ::
         :::::::::::::::::::::::::::::::::::::::::::::::::::::
         :: total free energy        -175.709809601397 Eh   ::
         ::.................................................::
         :: total energy             -176.517984530611 Eh   ::
         :: zero point energy           0.896997595303 Eh   ::
         :: G(RRHO) w/o ZPVE           -0.088822666088 Eh   ::
         :: G(RRHO) contrib.            0.808174929214 Eh   ::
         :::::::::::::::::::::::::::::::::::::::::::::::::::::

           -------------------------------------------------
          | TOTAL ENERGY             -176.517984530611 Eh   |
          | TOTAL ENTHALPY           -175.562039338068 Eh   |
          | TOTAL FREE ENERGY        -175.709809601397 Eh   |
          | GRADIENT NORM               0.000030570662 Eh/α |
          | HOMO-LUMO GAP               1.611772003886 eV   |
           -------------------------------------------------

 * finished run on 2025/07/19 at 18:27:34.488
