   * xtb version 6.7.1 (edcfbbe) compiled by 'albert@albert-system' on 2024-07-22

   ID    Z sym.   atoms
    1    7 N      1, 9, 37, 44
    2    6 C      2-8, 10-36, 38-43, 45-70
    3    1 H      71-116

          program call               : xtb data2507/toluene/2BTPA-INN/2BTPA-INN_toluene_T1_crest.xyz --gfn 2 --uhf 2 --gbsa toluene --ohess vtight --parallel 40 --molden --ceasefiles --namespace data2507/toluene/2BTPA-INN/2BTPA-INN_toluene_T1_finalOpt
      * Solvation model:               GBSA
        Solvent                        toluene
        Solvent mass                       9.2140E+01 g/mol
          :  Hamiltonian                  GFN2-xTB          :
 * total energy  :  -176.4428848 Eh     change       -0.4019364E-07 Eh
 * total energy  :  -176.4429913 Eh     change       -0.1065792E-03 Eh
 * total energy  :  -176.4429894 Eh     change        0.1914370E-05 Eh
 * total energy  :  -176.4430663 Eh     change       -0.7686910E-04 Eh
 * total energy  :  -176.4430753 Eh     change       -0.8972695E-05 Eh
 * total energy  :  -176.4430853 Eh     change       -0.1008108E-04 Eh
 * total energy  :  -176.4430913 Eh     change       -0.5935772E-05 Eh
 * total energy  :  -176.4430964 Eh     change       -0.5159883E-05 Eh
 * total energy  :  -176.4431009 Eh     change       -0.4440967E-05 Eh
 * total energy  :  -176.4431052 Eh     change       -0.4282177E-05 Eh
 * total energy  :  -176.4431481 Eh     change       -0.3884157E-06 Eh
 * total energy  :  -176.4431485 Eh     change       -0.4114867E-06 Eh
 * total energy  :  -176.4431488 Eh     change       -0.2933011E-06 Eh
 * total energy  :  -176.4431490 Eh     change       -0.1773838E-06 Eh
 * total energy  :  -176.4431491 Eh     change       -0.1841036E-06 Eh
 * total energy  :  -176.4431494 Eh     change       -0.2261182E-06 Eh
 * total energy  :  -176.4431497 Eh     change       -0.3124156E-06 Eh
 * total energy  :  -176.4431501 Eh     change       -0.4233652E-06 Eh
 * total energy  :  -176.4431501 Eh     change       -0.1219300E-07 Eh
   *** GEOMETRY OPTIMIZATION CONVERGED AFTER 68 ITERATIONS ***

 final structure:
================
116
 xtb: 6.7.1 (edcfbbe)
N           -0.01364855143064        0.30642327029984       -1.01175420853726
C            0.05331942796407        1.08754179402026       -0.15088248961087
C            0.13658409835841        2.02088350462275        0.85955635264223
C           -1.05029585161206        2.64000834903858        1.39356857621828
C           -2.37065970013706        2.08422608088009        1.17288594883610
C           -2.58075644623284        0.69594450824397        1.16059681932748
C           -3.83042930540801        0.16571686172516        0.95455258777147
C           -4.93343385304360        1.00373866009486        0.74472940329700
N           -6.20368060884382        0.47097778789834        0.52180260965355
C           -6.61255042902073       -0.67063526604247        1.20968133818311
C           -6.20399668770548       -0.88973628384026        2.52870043837287
C           -6.60310016448136       -2.02251415686015        3.20339984591056
C           -7.42926580220719       -2.97068462657746        2.59657163847852
C           -7.85796533078720       -4.17302033000631        3.32113744185112
C           -6.97118778298624       -4.85871646897378        4.15088985357158
C           -7.37526320804868       -5.99407596179949        4.82818321981914
C           -8.67326874560054       -6.46056879417034        4.69611487836113
C           -9.56435033928692       -5.78546617923934        3.87760177758026
C           -9.16069973281828       -4.65431931234129        3.19320161094629
C           -7.83677772986558       -2.74360006943959        1.28030182709035
C           -7.43463251507365       -1.61912841275473        0.59374607595715
C           -7.05892288230516        1.08445992258154       -0.39468652502197
C           -6.55112627536222        1.65337545875175       -1.56616623440202
C           -7.39552158603226        2.26793230568452       -2.46443743514958
C           -8.77163954692610        2.33199932612908       -2.23450513078672
C           -9.66769292823120        2.98330276398301       -3.19742454115825
C           -9.28692312230316        4.16107913256416       -3.84009279620228
C          -10.13329311123946        4.77587901464777       -4.74374036229938
C          -11.37145225132072        4.22264668635784       -5.02788331363631
C          -11.75927216218730        3.05076661828540       -4.39851806001322
C          -10.91758820914451        2.43758472749553       -3.48939231331576
C           -9.27182223418801        1.75804710845802       -1.06377405286057
C           -8.43452561084226        1.14859861022986       -0.15522350294995
C           -4.73706865378944        2.39079184589856        0.76261072989440
C           -3.48630312551255        2.91480123489735        0.97932160076110
C           -0.88050350739299        3.77453328633399        2.16226745041876
N            0.30236996507172        4.29275681340806        2.48706777001968
C            1.40596716195732        3.68777520325109        2.05194110710532
C            1.41356811903883        2.54680939841277        1.27399224419476
C            2.65776813665966        1.89248945349669        0.92234801490295
C            2.75315314235130        0.49228850528532        0.87767816154126
C            3.92413881822375       -0.13217170218214        0.52631603858975
C            5.06238747768410        0.61855419203728        0.20365930285412
N            6.24410819701325       -0.01612443680759       -0.17880110125397
C            7.47620489925300        0.50839147084101        0.21008320180001
C            8.58327909084864        0.43825016724447       -0.64116534271110
C            9.79664657920160        0.96078720383116       -0.25107248194785
C            9.95077582450544        1.57970146799413        0.99121278808837
C           11.24447443721328        2.14096458502171        1.39788034330238
C           11.31113959236073        3.35699058635548        2.07752835245955
C           12.53093708385672        3.88709897549483        2.45454130937216
C           13.70489998388854        3.20941155297951        2.16740935097456
C           13.65093456311669        1.99837305187062        1.49632663719082
C           12.43303292659207        1.46989579085848        1.11129000944625
C            8.83988615169365        1.65074421109733        1.83442379870175
C            7.62509509604951        1.12161851089093        1.45778184928034
C            6.18636617344398       -1.16690467883902       -0.96668184147655
C            5.20756133122738       -1.30147985172438       -1.95573493288354
C            5.15315983621569       -2.43826484386268       -2.73147076766203
C            6.07099668848225       -3.47668723852705       -2.55738505540027
C            6.01407346079783       -4.67958923566587       -3.39622476227319
C            4.78825203152038       -5.23967961973766       -3.75579920305717
C            4.73619038816395       -6.36906197865163       -4.55125344039435
C            5.90560109950024       -6.95674539770246       -5.00635841884749
C            7.12924358180284       -6.40878662469719       -4.65673186546085
C            7.18439527117545       -5.28328242682363       -3.85610127227774
C            7.04525435106532       -3.33537866479957       -1.56678188513595
C            7.10285011848133       -2.20589126399958       -0.78010131948032
C            4.98536554922922        2.01625437276284        0.26621855185192
C            3.81158360766659        2.63477346629727        0.62037820040938
H           -1.74203192330368        0.03365171497922        1.31589020378811
H           -3.96513053984466       -0.90574798382227        0.93320334061501
H           -5.58464906766638       -0.15437937020873        3.02084476424446
H           -6.29601198392099       -2.16178110378755        4.22916812061146
H           -5.95230691385159       -4.51192901373151        4.24514790476944
H           -6.67428377633060       -6.51929758824469        5.46113840033680
H           -8.98855902489745       -7.34619281863829        5.22821446032091
H          -10.57916313189286       -6.14202340986372        3.77410872911798
H           -9.86635525452148       -4.12358166728939        2.57078031978449
H           -8.45138686555333       -3.47678848733242        0.77988584851299
H           -7.73688255562155       -1.47331532344056       -0.43268245344408
H           -5.49194230282399        1.59117552748232       -1.76940184726653
H           -6.98721548284847        2.67889044871448       -3.37563971156133
H           -8.33050900879634        4.60830899306561       -3.61111655751038
H           -9.82680412607769        5.69200297066938       -5.22808912208622
H          -12.03063573435875        4.70273824206880       -5.73629863994661
H          -12.72191043416211        2.61235856012033       -4.61955364265308
H          -11.21988047592699        1.51423480839142       -3.01716268080173
H          -10.32828366252160        1.82030205729543       -0.84992208194362
H           -8.83427757719413        0.73205556084038        0.75750156344748
H           -5.58152790739734        3.04800732760018        0.61442243958038
H           -3.35256864348872        3.98650276887094        0.98212055145995
H           -1.73321764699939        4.27546215362640        2.60238067525346
H            2.33215774842664        4.12211086735591        2.40531733304871
H            1.89327630501515       -0.10522591995388        1.14165374438252
H            3.97667931349903       -1.21093024790424        0.51021535758191
H            8.47491005175116       -0.01172865322812       -1.61684029398303
H           10.63347904069106        0.91931997889741       -0.93205606222976
H           10.40146482606849        3.90004942662089        2.28929430641007
H           12.56728886181911        4.83433228013747        2.97342196891723
H           14.65719652276900        3.62318524358554        2.46538659952335
H           14.56298751205410        1.46317006294331        1.27380947548045
H           12.39786782781392        0.51678506706949        0.60394713534164
H            8.94033553220686        2.09962798196237        2.81128423745294
H            6.78192676552676        1.16276607596379        2.13144905060431
H            4.50119332306148       -0.50057773856181       -2.11838707546279
H            4.40507005350510       -2.51030951915708       -3.50662664337547
H            3.87225543489957       -4.79819078355270       -3.39076396930394
H            3.77880328274108       -6.79428612914853       -4.81658647480454
H            5.86324404823927       -7.83734594680317       -5.63060297676644
H            8.04447995527715       -6.85994572594657       -5.01251877015197
H            8.14186539870829       -4.85104143342034       -3.60439773848168
H            7.74661467740091       -4.13736630901746       -1.39192710292044
H            7.84718726048075       -2.12383046862593       -0.00185878328283
H            5.84993400075705        2.60760260244490        0.00209005223931
H            3.76077637691839        3.71351093416240        0.62695654841623

          :  Hamiltonian                  GFN2-xTB          :
         :: gradient norm              0.000143194700 Eh/a0 ::
         :: HOMO-LUMO gap              0.347626585967 eV    ::
         :: SCC energy              -179.824255880654 Eh    ::
         :: -> dispersion             -0.157728675021 Eh    ::
         :: -> Gsolv                  -0.087827752597 Eh    ::
         :: repulsion energy           3.381105754645 Eh    ::

    * Orbital Energies and Occupations

         #    Occupation            Energy/Eh            Energy/eV
      -------------------------------------------------------------
         1        2.0000           -0.6796610             -18.4945
       ...           ...                  ...                  ...
       154        2.0000           -0.4061257             -11.0512
       155        2.0000           -0.4053859             -11.0311
       156        2.0000           -0.4040264             -10.9941
       157        2.0000           -0.4028655             -10.9625
       158        2.0000           -0.3968394             -10.7986
       159        2.0000           -0.3922596             -10.6739
       160        2.0000           -0.3919041             -10.6643
       161        2.0000           -0.3880693             -10.5599
       162        2.0000           -0.3873545             -10.5405
       163        1.9999           -0.3645187              -9.9191
       164        1.7382           -0.3562181              -9.6932
       165        1.2619           -0.3542491              -9.6396
       166        0.9983           -0.2704069              -7.3581 (HOMO)
       167        0.0009           -0.2576318              -7.0105 (LUMO)
       168        0.0004           -0.2569927              -6.9931
       169        0.0003           -0.2567449              -6.9864
       170                         -0.2462315              -6.7003
       171                         -0.2390222              -6.5041
       172                         -0.2350312              -6.3955
       173                         -0.2347516              -6.3879
       174                         -0.2303074              -6.2670
       175                         -0.2299209              -6.2565
       176                         -0.2267280              -6.1696
       177                         -0.2263439              -6.1591
       ...                                ...                  ...
       326                          1.1661330              31.7321
      -------------------------------------------------------------
                  HL-Gap            0.0127751 Eh            0.3476 eV

     #   Z          covCN         q      C6AA      α(0)
     1   7 N        0.911    -0.391    30.124     7.938
     2   6 C        1.907     0.096    28.723     8.655
     3   6 C        2.974    -0.034    28.847     8.810
     4   6 C        2.969    -0.016    28.398     8.741
     5   6 C        2.974     0.003    27.951     8.672
     6   6 C        2.922    -0.030    28.753     8.793
     7   6 C        2.917    -0.042    29.054     8.839
     8   6 C        2.926     0.056    26.754     8.483
     9   7 N        2.752    -0.035    21.913     6.953
    10   6 C        2.925     0.062    26.612     8.460
    11   6 C        2.919    -0.043    29.056     8.840
    12   6 C        2.923    -0.031    28.785     8.798
    13   6 C        2.975     0.010    27.785     8.646
    14   6 C        2.976     0.011    27.777     8.645
    15   6 C        2.924    -0.034    28.844     8.807
    16   6 C        2.918    -0.030    28.741     8.791
    17   6 C        2.920    -0.031    28.765     8.795
    18   6 C        2.918    -0.030    28.744     8.792
    19   6 C        2.925    -0.034    28.849     8.808
    20   6 C        2.923    -0.032    28.791     8.799
    21   6 C        2.919    -0.043    29.070     8.842
    22   6 C        2.926     0.062    26.621     8.461
    23   6 C        2.919    -0.042    29.034     8.836
    24   6 C        2.923    -0.031    28.780     8.798
    25   6 C        2.975     0.010    27.780     8.646
    26   6 C        2.976     0.010    27.779     8.645
    27   6 C        2.925    -0.034    28.845     8.808
    28   6 C        2.918    -0.030    28.742     8.791
    29   6 C        2.920    -0.031    28.765     8.795
    30   6 C        2.918    -0.030    28.744     8.792
    31   6 C        2.925    -0.034    28.850     8.808
    32   6 C        2.923    -0.032    28.795     8.800
    33   6 C        2.919    -0.043    29.068     8.841
    34   6 C        2.917    -0.043    29.077     8.842
    35   6 C        2.922    -0.038    28.947     8.823
    36   6 C        2.898     0.047    26.954     8.512
    37   7 N        1.833    -0.271    27.881     7.825
    38   6 C        2.898     0.047    26.951     8.512
    39   6 C        2.969    -0.016    28.405     8.742
    40   6 C        2.974     0.003    27.952     8.672
    41   6 C        2.922    -0.030    28.752     8.793
    42   6 C        2.917    -0.042    29.054     8.839
    43   6 C        2.926     0.055    26.759     8.483
    44   7 N        2.752    -0.034    21.899     6.950
    45   6 C        2.925     0.062    26.619     8.461
    46   6 C        2.919    -0.043    29.070     8.842
    47   6 C        2.923    -0.032    28.789     8.799
    48   6 C        2.975     0.010    27.784     8.646
    49   6 C        2.976     0.010    27.778     8.645
    50   6 C        2.924    -0.034    28.846     8.808
    51   6 C        2.918    -0.030    28.742     8.792
    52   6 C        2.920    -0.031    28.766     8.795
    53   6 C        2.918    -0.030    28.744     8.792
    54   6 C        2.925    -0.034    28.850     8.808
    55   6 C        2.923    -0.031    28.786     8.798
    56   6 C        2.919    -0.042    29.055     8.839
    57   6 C        2.926     0.061    26.622     8.461
    58   6 C        2.919    -0.041    29.015     8.833
    59   6 C        2.923    -0.031    28.768     8.796
    60   6 C        2.975     0.011    27.775     8.645
    61   6 C        2.976     0.010    27.777     8.645
    62   6 C        2.924    -0.034    28.837     8.806
    63   6 C        2.918    -0.030    28.737     8.791
    64   6 C        2.919    -0.031    28.764     8.795
    65   6 C        2.918    -0.030    28.747     8.792
    66   6 C        2.925    -0.034    28.851     8.809
    67   6 C        2.923    -0.032    28.800     8.801
    68   6 C        2.919    -0.043    29.073     8.842
    69   6 C        2.917    -0.044    29.081     8.843
    70   6 C        2.922    -0.038    28.949     8.823
    71   1 H        0.926     0.029     2.604     2.523
    72   1 H        0.926     0.039     2.465     2.455
    73   1 H        0.926     0.040     2.454     2.450
    74   1 H        0.926     0.044     2.399     2.422
    75   1 H        0.926     0.034     2.533     2.489
    76   1 H        0.926     0.032     2.554     2.499
    77   1 H        0.926     0.032     2.552     2.498
    78   1 H        0.926     0.033     2.538     2.492
    79   1 H        0.926     0.036     2.501     2.473
    80   1 H        0.926     0.046     2.368     2.407
    81   1 H        0.926     0.043     2.406     2.426
    82   1 H        0.926     0.038     2.469     2.457
    83   1 H        0.926     0.043     2.403     2.424
    84   1 H        0.926     0.034     2.531     2.488
    85   1 H        0.926     0.032     2.555     2.499
    86   1 H        0.926     0.032     2.553     2.499
    87   1 H        0.926     0.033     2.539     2.492
    88   1 H        0.926     0.036     2.500     2.472
    89   1 H        0.926     0.047     2.363     2.404
    90   1 H        0.926     0.044     2.397     2.421
    91   1 H        0.926     0.041     2.441     2.443
    92   1 H        0.926     0.035     2.521     2.483
    93   1 H        0.925     0.022     2.700     2.570
    94   1 H        0.925     0.022     2.700     2.570
    95   1 H        0.926     0.029     2.607     2.525
    96   1 H        0.926     0.038     2.476     2.461
    97   1 H        0.926     0.043     2.406     2.426
    98   1 H        0.926     0.046     2.370     2.407
    99   1 H        0.926     0.034     2.527     2.486
   100   1 H        0.926     0.032     2.554     2.499
   101   1 H        0.926     0.032     2.555     2.500
   102   1 H        0.926     0.033     2.542     2.493
   103   1 H        0.926     0.036     2.503     2.474
   104   1 H        0.926     0.044     2.394     2.419
   105   1 H        0.926     0.040     2.445     2.445
   106   1 H        0.926     0.038     2.471     2.458
   107   1 H        0.926     0.043     2.403     2.424
   108   1 H        0.926     0.034     2.531     2.488
   109   1 H        0.926     0.032     2.553     2.498
   110   1 H        0.926     0.033     2.550     2.497
   111   1 H        0.926     0.034     2.536     2.490
   112   1 H        0.926     0.036     2.497     2.471
   113   1 H        0.926     0.047     2.360     2.402
   114   1 H        0.926     0.044     2.393     2.419
   115   1 H        0.926     0.041     2.433     2.439
   116   1 H        0.926     0.034     2.527     2.486

molecular dipole:
                 x           y           z       tot (Debye)
 q only:       -0.083      -1.860      -0.271
   full:       -0.084      -1.723      -0.110       4.394

 projected vibrational frequencies (cm⁻¹)
eigval :       -0.00    -0.00    -0.00     0.00     0.00     0.00
eigval :        4.75     5.52     6.93    15.08    16.04    17.26
eigval :       19.22    24.38    27.09    29.52    32.18    36.47
eigval :       43.15    48.73    55.91    62.23    66.37    68.38
eigval :       72.88    76.81    81.95    85.55    88.11    92.41
eigval :       98.51   100.83   104.74   109.58   112.24   116.06
eigval :      123.50   132.83   146.90   161.59   181.21   188.95
eigval :      190.32   192.74   201.57   216.45   219.57   241.18
eigval :      244.76   251.29   264.44   281.06   285.95   314.20
eigval :      318.88   324.31   329.08   341.94   350.86   362.22
eigval :      363.66   369.71   370.92   371.75   372.81   375.58
eigval :      381.82   382.13   382.79   383.56   387.16   388.74
eigval :      401.16   404.77   420.76   423.56   428.37   428.62
eigval :      431.38   442.49   446.69   468.16   482.57   482.67
eigval :      483.38   496.67   502.99   506.98   518.35   529.76
eigval :      533.25   537.36   538.02   542.39   577.86   583.16
eigval :      586.76   587.83   587.87   587.96   588.29   592.39
eigval :      599.88   603.59   607.75   607.86   609.10   613.55
eigval :      620.87   641.01   654.28   664.80   665.29   665.76
eigval :      666.80   674.62   677.41   681.58   685.37   686.00
eigval :      688.28   697.59   735.76   735.76   755.11   755.48
eigval :      755.71   757.10   761.92   767.77   772.64   804.91
eigval :      806.92   814.11   820.80   822.61   824.33   826.35
eigval :      827.72   846.97   849.71   855.39   863.51   865.38
eigval :      866.10   869.23   873.34   874.70   875.59   878.07
eigval :      899.77   900.23   900.72   902.34   908.94   909.84
eigval :      911.00   913.53   915.01   915.17   917.58   918.28
eigval :      918.94   919.20   920.90   923.90   925.30   925.76
eigval :      926.58   928.74   930.45   931.02   931.23   931.25
eigval :      931.73   932.62   932.96   935.23   962.64   963.85
eigval :      969.92   969.95   985.48   997.79  1006.56  1013.98
eigval :     1014.62  1015.01  1038.64  1063.26  1072.52  1073.19
eigval :     1073.34  1074.88  1085.37  1085.55  1085.64  1086.53
eigval :     1120.35  1120.76  1120.85  1121.34  1128.51  1133.95
eigval :     1142.13  1142.69  1143.82  1143.89  1145.08  1147.84
eigval :     1179.51  1180.08  1180.11  1180.38  1180.84  1182.79
eigval :     1189.96  1190.90  1192.60  1197.65  1199.39  1200.29
eigval :     1201.34  1204.76  1217.73  1220.46  1245.03  1265.50
eigval :     1266.35  1267.60  1268.98  1269.13  1269.75  1273.86
eigval :     1279.35  1280.00  1280.34  1280.87  1281.41  1281.72
eigval :     1287.72  1287.86  1306.05  1308.46  1311.65  1311.93
eigval :     1313.62  1314.03  1317.03  1317.09  1317.19  1317.26
eigval :     1324.82  1325.26  1325.77  1329.16  1336.04  1343.21
eigval :     1373.21  1392.48  1402.80  1402.96  1409.28  1409.36
eigval :     1423.13  1426.06  1431.52  1431.83  1433.06  1433.22
eigval :     1453.75  1454.05  1456.12  1456.45  1468.21  1470.94
eigval :     1490.29  1490.39  1491.14  1491.40  1494.51  1498.39
eigval :     1502.24  1537.25  1537.98  1542.79  1543.50  1549.53
eigval :     1562.74  1563.92  1572.85  1573.30  1576.62  1576.73
eigval :     1576.83  1576.89  1585.72  1596.90  1597.02  1597.61
eigval :     1598.01  2227.66  3043.36  3045.02  3067.53  3068.04
eigval :     3068.08  3068.46  3069.25  3069.79  3069.80  3070.26
eigval :     3076.75  3076.78  3078.23  3078.27  3078.56  3078.76
eigval :     3079.24  3079.64  3080.53  3080.69  3081.09  3081.68
eigval :     3082.03  3082.51  3082.71  3082.92  3082.95  3083.17
eigval :     3084.01  3084.80  3088.38  3088.66  3089.18  3089.64
eigval :     3089.71  3089.90  3091.72  3092.19  3092.28  3092.32
eigval :     3092.84  3093.11  3094.49  3094.58  3095.10  3096.00

   temp. (K)  partition function   enthalpy   heat capacity  entropy
                                   cal/mol     cal/K/mol   cal/K/mol   J/K/mol
 298.15  VIB  0.760E+30            34781.623    212.948    222.335
         ROT  0.530E+09              888.752      2.981     42.901
         INT  0.403E+39            35670.375    215.929    265.236
         TR   0.259E+29             1481.254      4.968     46.230
         TOT                       37151.6290   220.8971   311.4659  1303.1734

       T/K    H(0)-H(T)+PV         H(T)/Eh          T*S/Eh         G(T)/Eh
   ------------------------------------------------------------------------
    298.15    0.592049E-01    0.952585E+00    0.147988E+00    0.804598E+00
   ------------------------------------------------------------------------

         :::::::::::::::::::::::::::::::::::::::::::::::::::::
         ::                  THERMODYNAMIC                  ::
         :::::::::::::::::::::::::::::::::::::::::::::::::::::
         :: total free energy        -175.638552239211 Eh   ::
         ::.................................................::
         :: total energy             -176.443150124815 Eh   ::
         :: zero point energy           0.893380500592 Eh   ::
         :: G(RRHO) w/o ZPVE           -0.088782614989 Eh   ::
         :: G(RRHO) contrib.            0.804597885603 Eh   ::
         :::::::::::::::::::::::::::::::::::::::::::::::::::::

           -------------------------------------------------
          | TOTAL ENERGY             -176.443150124815 Eh   |
          | TOTAL ENTHALPY           -175.490564734830 Eh   |
          | TOTAL FREE ENERGY        -175.638552239211 Eh   |
          | GRADIENT NORM               0.000142685980 Eh/α |
          | HOMO-LUMO GAP               0.347628829048 eV   |
           -------------------------------------------------

 * finished run on 2025/07/19 at 18:59:32.554
