   * xtb version 6.7.1 (edcfbbe) compiled by 'albert@albert-system' on 2024-07-22

   ID    Z sym.   atoms
    1    8 O      1, 10, 11
    2    6 C      2-8, 12-19, 21-24, 26-31, 33-38
    3   16 S      9
    4    7 N      20
    5   35 Br     25, 32
    6    1 H      39-57

          program call               : xtb data2507/toluene/PCTXO/PCTXO_toluene_S0_finalOpt.xtbopt.xyz --gfn 2 --uhf 2 --gbsa toluene --ohess vtight --parallel 40 --molden --ceasefiles --namespace data2507/toluene/PCTXO/PCTXO_toluene_T1_preOpt
      * Solvation model:               GBSA
        Solvent                        toluene
        Solvent mass                       9.2140E+01 g/mol
          :  Hamiltonian                  GFN2-xTB          :
 * total energy  :  -102.5585425 Eh     change       -0.1645148E-08 Eh
 * total energy  :  -102.5625284 Eh     change       -0.3985917E-02 Eh
 * total energy  :  -102.5640668 Eh     change       -0.1538365E-02 Eh
 * total energy  :  -102.5644143 Eh     change       -0.3475188E-03 Eh
 * total energy  :  -102.5647600 Eh     change       -0.3456689E-03 Eh
 * total energy  :  -102.5648978 Eh     change       -0.1378727E-03 Eh
 * total energy  :  -102.5649717 Eh     change       -0.7381215E-04 Eh
 * total energy  :  -102.5650052 Eh     change       -0.3351363E-04 Eh
 * total energy  :  -102.5650404 Eh     change       -0.3525117E-04 Eh
 * total energy  :  -102.5650691 Eh     change       -0.2871451E-04 Eh
 * total energy  :  -102.5652822 Eh     change       -0.3925204E-06 Eh
 * total energy  :  -102.5652825 Eh     change       -0.3050074E-06 Eh
 * total energy  :  -102.5652827 Eh     change       -0.2260364E-06 Eh
 * total energy  :  -102.5652829 Eh     change       -0.1922618E-06 Eh
 * total energy  :  -102.5652831 Eh     change       -0.1832270E-06 Eh
 * total energy  :  -102.5652833 Eh     change       -0.2054693E-06 Eh
 * total energy  :  -102.5652835 Eh     change       -0.2244771E-06 Eh
 * total energy  :  -102.5652837 Eh     change       -0.1934417E-06 Eh
 * total energy  :  -102.5652837 Eh     change       -0.1913818E-08 Eh
   *** GEOMETRY OPTIMIZATION CONVERGED AFTER 44 ITERATIONS ***

 final structure:
================
57
 xtb: 6.7.1 (edcfbbe)
O            5.32997368892926        2.38606651402466        0.04825999227635
C            5.85968696930383        1.23896600554362       -0.01661271664705
C            7.26528228154967        1.09909319021703       -0.35354872344745
C            7.94921449859977        2.23822573335478       -0.83246099181961
C            9.25179183631760        2.15679044459200       -1.25862812797421
C            9.93866792407335        0.94315805195771       -1.22772100720559
C            9.29966546821387       -0.18066496497208       -0.73345374420447
C            7.99280015496336       -0.09466680629343       -0.29804232995638
S            7.26612537395333       -1.50987999659138        0.48490674029047
O            7.70607958446763       -2.73512747706376       -0.15490393871718
O            7.53117198323246       -1.42865034642592        1.91273626168564
C            5.53431505498304       -1.26323934135235        0.22112573205181
C            4.68891296452391       -2.35594389288292        0.21955902684678
C            3.32099333109262       -2.18047904918059        0.17442648375022
C            2.78577599663907       -0.87563885096263        0.15804053521882
C            1.34060747865755       -0.65752848829716        0.12358715157452
C            0.50033832743059       -1.50552706581140       -0.60855037105284
C           -0.85937289235065       -1.30078201176349       -0.64534572374416
C           -1.43357857198862       -0.23138474335339        0.05517989941052
N           -2.80902757732146       -0.01974303270555        0.02203054346579
C           -3.68325919476015       -1.10563536455520       -0.02672037919049
C           -3.38687455258754       -2.28426547153922        0.66719406092035
C           -4.24944602213268       -3.35921230519396        0.61850689820771
C           -5.41703833790900       -3.26573890538970       -0.12666273906134
Br          -6.61391934058484       -4.75686655255394       -0.19605278707002
C           -5.72946583157931       -2.10485754874568       -0.82097165610958
C           -4.86640133363421       -1.03037389108078       -0.77024997373036
C           -3.31513064599231        1.28035750342850        0.03916845512122
C           -2.64849646568989        2.30783685711813       -0.63780505062957
C           -3.14877666878244        3.59302491464728       -0.62374392811258
C           -4.32056028895062        3.86283372282910        0.06993998545086
Br          -5.01763354476666        5.64428227756983        0.08901729140899
C           -4.99521724333697        2.85760252374388        0.74968299257700
C           -4.49482616322085        1.57266658614150        0.73280503422936
C           -0.59871489789693        0.62240633715252        0.78907210376096
C            0.75982566934326        0.41174744761395        0.81757525972116
C            3.64521940722497        0.20823567026837        0.14306034261063
C            5.04441952554051        0.05052620972665        0.13247147361573
H            7.40008209609824        3.16804457427630       -0.86122355997045
H            9.74752298437094        3.04304827569910       -1.62635307981868
H           10.95958274224176        0.88062719204597       -1.56962129122557
H            9.79516333464420       -1.13756904146227       -0.66700391093482
H            5.13485185516695       -3.33753338781507        0.27517412054712
H            2.66762139457649       -3.03690126957044        0.20616243863103
H            0.93093133341973       -2.31218557721706       -1.18043308118589
H           -1.48657419455548       -1.94727680567967       -1.24012725634075
H           -2.48758038731075       -2.34592150984946        1.26018686054434
H           -4.02298721075638       -4.26242206783337        1.16264470954749
H           -6.63530145656945       -2.04806706327025       -1.40351322561093
H           -5.09621328093035       -0.13410482417483       -1.32521364001304
H           -1.74777515232373        2.09066769542964       -1.19075183122941
H           -2.63765829995595        4.38014202682661       -1.15524718085366
H           -5.89833569381095        3.08279331458788        1.29439036151202
H           -5.00627591347258        0.79311122723842        1.27588162822242
H           -1.03096635742564        1.43093231647807        1.35878151277672
H            1.38670758299797        1.05836764953681        1.41127556342506
H            3.27318593858907        1.22067731842592        0.08441081508503

          :  Hamiltonian                  GFN2-xTB          :
         :: gradient norm              0.000030918374 Eh/a0 ::
         :: HOMO-LUMO gap              0.708322045731 eV    ::
         :: SCC energy              -104.129055220565 Eh    ::
         :: -> dispersion             -0.082718503410 Eh    ::
         :: -> Gsolv                  -0.075183906661 Eh    ::
         :: repulsion energy           1.563771515064 Eh    ::

    * Orbital Energies and Occupations

         #    Occupation            Energy/Eh            Energy/eV
      -------------------------------------------------------------
         1        2.0000           -0.8507449             -23.1499
       ...           ...                  ...                  ...
        82        2.0000           -0.4293868             -11.6842
        83        2.0000           -0.4292136             -11.6795
        84        2.0000           -0.4247032             -11.5568
        85        2.0000           -0.4244364             -11.5495
        86        2.0000           -0.4207226             -11.4484
        87        2.0000           -0.4196980             -11.4206
        88        2.0000           -0.4171537             -11.3513
        89        2.0000           -0.4160202             -11.3205
        90        2.0000           -0.4124072             -11.2222
        91        2.0000           -0.4067665             -11.0687
        92        1.7934           -0.3854860             -10.4896
        93        1.2066           -0.3829297             -10.4200
        94        1.0000           -0.3030877              -8.2474 (HOMO)
        95        0.0000           -0.2770582              -7.5391 (LUMO)
        96        0.0000           -0.2751233              -7.4865
        97                         -0.2651319              -7.2146
        98                         -0.2606796              -7.0935
        99                         -0.2502260              -6.8090
       100                         -0.2488387              -6.7712
       101                         -0.2459030              -6.6914
       102                         -0.2386257              -6.4933
       103                         -0.2235154              -6.0822
       104                         -0.2177396              -5.9250
       105                         -0.2173866              -5.9154
       ...                                ...                  ...
       186                          1.1601165              31.5684
      -------------------------------------------------------------
                  HL-Gap            0.0260295 Eh            0.7083 eV

     #   Z          covCN         q      C6AA      α(0)
     1   8 O        0.858    -0.472    23.184     6.456
     2   6 C        2.835     0.166    24.416     8.097
     3   6 C        3.009    -0.017    28.414     8.744
     4   6 C        2.927    -0.024    28.594     8.769
     5   6 C        2.916    -0.028    28.699     8.785
     6   6 C        2.920    -0.034    28.850     8.808
     7   6 C        2.967    -0.023    28.574     8.768
     8   6 C        2.972    -0.086    30.144     9.006
     9  16 S        3.852     0.935   108.543    17.535
    10   8 O        0.860    -0.576    25.534     6.775
    11   8 O        0.860    -0.595    25.995     6.836
    12   6 C        2.970    -0.089    30.218     9.017
    13   6 C        2.960    -0.022    28.558     8.765
    14   6 C        2.922    -0.044    29.081     8.843
    15   6 C        2.972     0.015    27.668     8.628
    16   6 C        2.976     0.028    27.383     8.584
    17   6 C        2.921    -0.025    28.627     8.774
    18   6 C        2.917    -0.036    28.899     8.815
    19   6 C        2.926     0.061    26.643     8.465
    20   7 N        2.753     0.007    21.136     6.828
    21   6 C        2.925     0.062    26.616     8.460
    22   6 C        2.923    -0.034    28.856     8.809
    23   6 C        2.982    -0.026    28.633     8.777
    24   6 C        2.915     0.093    25.934     8.351
    25  35 Br       1.052    -0.166   189.634    22.203
    26   6 C        2.982    -0.026    28.635     8.778
    27   6 C        2.923    -0.035    28.875     8.812
    28   6 C        2.926     0.062    26.616     8.460
    29   6 C        2.923    -0.034    28.848     8.808
    30   6 C        2.982    -0.025    28.630     8.777
    31   6 C        2.915     0.093    25.931     8.350
    32  35 Br       1.052    -0.165   189.614    22.202
    33   6 C        2.982    -0.026    28.637     8.778
    34   6 C        2.923    -0.035    28.875     8.812
    35   6 C        2.917    -0.036    28.890     8.814
    36   6 C        2.921    -0.024    28.603     8.770
    37   6 C        2.934    -0.026    28.651     8.778
    38   6 C        3.008    -0.019    28.468     8.752
    39   1 H        0.926     0.060     2.195     2.317
    40   1 H        0.926     0.059     2.207     2.323
    41   1 H        0.926     0.057     2.240     2.340
    42   1 H        0.926     0.044     2.391     2.418
    43   1 H        0.926     0.047     2.362     2.403
    44   1 H        0.926     0.063     2.165     2.301
    45   1 H        0.926     0.063     2.162     2.299
    46   1 H        0.926     0.063     2.164     2.300
    47   1 H        0.926     0.072     2.067     2.248
    48   1 H        0.926     0.074     2.040     2.234
    49   1 H        0.926     0.075     2.030     2.228
    50   1 H        0.926     0.071     2.077     2.254
    51   1 H        0.926     0.071     2.073     2.252
    52   1 H        0.926     0.073     2.048     2.238
    53   1 H        0.926     0.076     2.025     2.225
    54   1 H        0.926     0.071     2.072     2.251
    55   1 H        0.926     0.061     2.185     2.311
    56   1 H        0.926     0.059     2.213     2.326
    57   1 H        0.926     0.067     2.120     2.277

molecular dipole:
                 x           y           z       tot (Debye)
 q only:       -8.687       0.339      -1.369
   full:       -8.145       0.120      -1.262      20.952

 projected vibrational frequencies (cm⁻¹)
eigval :       -0.00    -0.00    -0.00     0.00     0.00     0.00
eigval :       11.49    12.33    17.59    22.75    25.81    38.61
eigval :       47.83    56.29    59.97    91.33    96.16   101.49
eigval :      115.33   123.40   126.16   133.60   148.19   153.40
eigval :      175.69   188.78   210.75   223.38   231.68   246.30
eigval :      274.88   280.35   289.10   303.28   312.58   321.84
eigval :      344.23   354.96   365.45   376.79   380.50   382.18
eigval :      384.70   388.94   405.10   417.55   428.74   442.45
eigval :      454.25   470.97   488.13   491.61   502.65   518.20
eigval :      534.27   536.06   571.66   592.63   593.76   596.72
eigval :      600.74   606.73   635.83   637.04   649.17   656.99
eigval :      667.67   671.37   676.50   695.13   717.98   732.98
eigval :      758.78   789.95   803.50   813.38   816.81   828.52
eigval :      857.23   860.35   861.93   862.71   870.13   898.78
eigval :      899.65   904.06   905.30   910.38   913.73   915.34
eigval :      920.87   924.11   924.64   930.37   937.03   982.12
eigval :     1001.32  1003.28  1011.39  1048.95  1060.29  1069.89
eigval :     1072.39  1081.75  1081.94  1134.86  1136.41  1137.01
eigval :     1139.42  1152.68  1160.16  1164.88  1174.74  1176.19
eigval :     1185.13  1186.12  1208.73  1211.76  1220.11  1224.04
eigval :     1254.04  1256.86  1262.13  1276.26  1291.78  1294.83
eigval :     1309.54  1320.37  1321.94  1331.98  1338.75  1355.92
eigval :     1391.90  1398.01  1406.78  1412.53  1413.36  1418.15
eigval :     1435.85  1436.83  1442.32  1465.53  1484.92  1509.56
eigval :     1516.98  1532.16  1541.97  1545.99  1554.26  1558.71
eigval :     1571.39  1573.19  3078.92  3086.63  3087.58  3089.44
eigval :     3089.81  3092.32  3093.33  3098.90  3099.97  3100.33
eigval :     3101.06  3101.63  3105.80  3106.66  3109.07  3110.76
eigval :     3111.16  3111.53  3112.19

   temp. (K)  partition function   enthalpy   heat capacity  entropy
                                   cal/mol     cal/K/mol   cal/K/mol   J/K/mol
 298.15  VIB  0.118E+16            18841.816    114.607    117.932
         ROT  0.140E+09              888.752      2.981     40.260
         INT  0.166E+24            19730.568    117.588    158.191
         TR   0.159E+29             1481.254      4.968     45.256
         TOT                       21211.8223   122.5560   203.4469   851.2218

       T/K    H(0)-H(T)+PV         H(T)/Eh          T*S/Eh         G(T)/Eh
   ------------------------------------------------------------------------
    298.15    0.338032E-01    0.433977E+00    0.966642E-01    0.337313E+00
   ------------------------------------------------------------------------

         :::::::::::::::::::::::::::::::::::::::::::::::::::::
         ::                  THERMODYNAMIC                  ::
         :::::::::::::::::::::::::::::::::::::::::::::::::::::
         :: total free energy        -102.227970921599 Eh   ::
         ::.................................................::
         :: total energy             -102.565283702140 Eh   ::
         :: zero point energy           0.400173775999 Eh   ::
         :: G(RRHO) w/o ZPVE           -0.062860995458 Eh   ::
         :: G(RRHO) contrib.            0.337312780541 Eh   ::
         :::::::::::::::::::::::::::::::::::::::::::::::::::::

           -------------------------------------------------
          | TOTAL ENERGY             -102.565283702140 Eh   |
          | TOTAL ENTHALPY           -102.131306735664 Eh   |
          | TOTAL FREE ENERGY        -102.227970921599 Eh   |
          | GRADIENT NORM               0.000032221064 Eh/α |
          | HOMO-LUMO GAP               0.708299180120 eV   |
           -------------------------------------------------

 * finished run on 2025/07/16 at 13:32:51.882
