   * xtb version 6.7.1 (edcfbbe) compiled by 'albert@albert-system' on 2024-07-22

   ID    Z sym.   atoms
    1    8 O      1, 10, 11
    2    6 C      2-8, 12-19, 21-24, 26-31, 33-38
    3   16 S      9
    4    7 N      20
    5   35 Br     25, 32
    6    1 H      39-57

          program call               : xtb data2507/toluene/PCTXO/PCTXO.xyz --gfn 2 --gbsa toluene --ohess vtight --parallel 40 --molden --ceasefiles --namespace data2507/toluene/PCTXO/PCTXO_toluene_S0_preOpt
      * Solvation model:               GBSA
        Solvent                        toluene
        Solvent mass                       9.2140E+01 g/mol
          :  Hamiltonian                  GFN2-xTB          :
 * total energy  :  -102.6176405 Eh     change       -0.3476401E-09 Eh
 * total energy  :  -102.6284404 Eh     change       -0.1079994E-01 Eh
 * total energy  :  -102.6329127 Eh     change       -0.4472336E-02 Eh
 * total energy  :  -102.6341602 Eh     change       -0.1247427E-02 Eh
 * total energy  :  -102.6348514 Eh     change       -0.6911904E-03 Eh
 * total energy  :  -102.6350989 Eh     change       -0.2475049E-03 Eh
 * total energy  :  -102.6352472 Eh     change       -0.1483587E-03 Eh
 * total energy  :  -102.6353614 Eh     change       -0.1141738E-03 Eh
 * total energy  :  -102.6354427 Eh     change       -0.8132194E-04 Eh
 * total energy  :  -102.6354956 Eh     change       -0.5290110E-04 Eh
 * total energy  :  -102.6371101 Eh     change       -0.1618812E-05 Eh
 * total energy  :  -102.6371110 Eh     change       -0.9179211E-06 Eh
 * total energy  :  -102.6371116 Eh     change       -0.6220920E-06 Eh
 * total energy  :  -102.6371121 Eh     change       -0.5323548E-06 Eh
 * total energy  :  -102.6371126 Eh     change       -0.4925409E-06 Eh
 * total energy  :  -102.6371130 Eh     change       -0.4002690E-06 Eh
 * total energy  :  -102.6371134 Eh     change       -0.4174127E-06 Eh
 * total energy  :  -102.6371139 Eh     change       -0.4092455E-06 Eh
 * total energy  :  -102.6371139 Eh     change       -0.1158000E-07 Eh
   *** GEOMETRY OPTIMIZATION CONVERGED AFTER 68 ITERATIONS ***

 final structure:
================
57
 xtb: 6.7.1 (edcfbbe)
O            4.50833477286606        2.09167741378536        1.07802255770272
C            4.89899622425566        1.03054188549488        0.62495744133529
C            6.28312333342228        0.88255227519100        0.11087176425738
C            6.95486175007441        2.02761431119094       -0.32443782969404
C            8.23656568720110        1.93840519066546       -0.83673541069587
C            8.87286497676622        0.70853770297091       -0.91914494468210
C            8.22418699582997       -0.43448483954482       -0.47419183462983
C            6.94307562814189       -0.33953480539765        0.02909335341898
S            6.14128483096796       -1.78491890562636        0.70630191648243
O            6.54320581677397       -2.96726853611034       -0.01871214357968
O            6.37570989700944       -1.79418006702105        2.13538976853183
C            4.41253752011804       -1.44622783610223        0.43339955386553
C            3.51493613682745       -2.48353483939009        0.27774756293648
C            2.16203715586460       -2.21451403279024        0.16578084230587
C            1.69025800030818       -0.90046820713792        0.22713768771782
C            0.25331183127437       -0.61497390336695        0.14000110660884
C           -0.57398053163309       -1.35171004483382       -0.70863655279054
C           -1.92631625277033       -1.09331545574098       -0.78129243552950
C           -2.49891270393624       -0.09498510834735        0.00803879392425
N           -3.87618772867450        0.15481619738525       -0.04947763630834
C           -4.77099063328718       -0.91149823375344       -0.17401788049268
C           -4.51740481627065       -2.12667700824436        0.46613404331158
C           -5.39589836037514       -3.18413737782247        0.34071769485157
C           -6.54067455669899       -3.02985607961617       -0.42368578403731
Br          -7.76497949588230       -4.49679221595769       -0.59716657605962
C           -6.81494682524420       -1.83317059796253       -1.06502062220428
C           -5.92988402566000       -0.78065217369498       -0.94245965120418
C           -4.35187320705096        1.46628104037523        0.03088002922404
C           -3.64717244099439        2.51260531225831       -0.56843947375148
C           -4.11359150010143        3.80967990845813       -0.49067401506904
C           -5.29465112297530        4.06806337399397        0.18530303385876
Br          -5.94968187649082        5.86836475650715        0.29009165329546
C           -6.01049470898219        3.04650430477098        0.78744449693365
C           -5.53690220603297        1.75190562557002        0.71251411238196
C           -1.67617720619930        0.64669375174606        0.85684564884481
C           -0.32208302028710        0.39324071886554        0.91454938676566
C            2.61254916949369        0.13223105789991        0.38478048395964
C            3.97850344997339       -0.12473991110378        0.48378998295100
H            6.44579306090409        2.97730947800487       -0.25390864289977
H            8.74217078590814        2.83127568014805       -1.17097956767924
H            9.87166812833818        0.63724807223785       -1.32083528417417
H            8.69070320192952       -1.40659819262720       -0.51213051925808
H            3.89580319751827       -3.49264791377266        0.24944286331267
H            1.46467604480541       -3.03062122889789        0.05851362153857
H           -0.14774866172597       -2.11266849514981       -1.34406719272381
H           -2.54965418905718       -1.66190751181731       -1.45508222519465
H           -3.62952991263406       -2.23901970495261        1.06918370801062
H           -5.19711148928520       -4.11910867047452        0.84120000567653
H           -7.70694782988872       -1.72751730533058       -1.66291969491507
H           -6.13438599241201        0.14966922282886       -1.45003018057363
H           -2.73220360820914        2.30555069566132       -1.10187952296191
H           -3.56747225563257        4.61314996471863       -0.96014449131224
H           -6.92494856313541        3.26093679138071        1.31844382428721
H           -6.08658580905015        0.95516152414718        1.19011180984818
H           -2.10811730889881        1.41638650412768        1.47885113171720
H            0.29243956170439        0.95963293426723        1.59739838461668
H            2.28791268119474        1.16169350794452        0.41312884794184

          :  Hamiltonian                  GFN2-xTB          :
         :: gradient norm              0.000070333629 Eh/a0 ::
         :: HOMO-LUMO gap              1.259040775970 eV    ::
         :: SCC energy              -104.214772144325 Eh    ::
         :: -> dispersion             -0.082671853421 Eh    ::
         :: -> Gsolv                  -0.056940921784 Eh    ::
         :: repulsion energy           1.577658275916 Eh    ::

    * Orbital Energies and Occupations

         #    Occupation            Energy/Eh            Energy/eV
      -------------------------------------------------------------
         1        2.0000           -0.8407517             -22.8780
       ...           ...                  ...                  ...
        81        2.0000           -0.4396272             -11.9629
        82        2.0000           -0.4349187             -11.8347
        83        2.0000           -0.4310636             -11.7298
        84        2.0000           -0.4302036             -11.7064
        85        2.0000           -0.4285161             -11.6605
        86        2.0000           -0.4235727             -11.5260
        87        2.0000           -0.4213083             -11.4644
        88        2.0000           -0.4136649             -11.2564
        89        2.0000           -0.4134419             -11.2503
        90        2.0000           -0.4101577             -11.1610
        91        2.0000           -0.4077610             -11.0957
        92        2.0000           -0.4043366             -11.0026
        93        2.0000           -0.3673174              -9.9952 (HOMO)
        94                         -0.3210485              -8.7362 (LUMO)
        95                         -0.2777696              -7.5585
        96                         -0.2666761              -7.2566
        97                         -0.2590454              -7.0490
        98                         -0.2571367              -6.9970
        99                         -0.2500546              -6.8043
       100                         -0.2457157              -6.6863
       101                         -0.2428578              -6.6085
       102                         -0.2373716              -6.4592
       103                         -0.2209986              -6.0137
       104                         -0.2079634              -5.6590
       ...                                ...                  ...
       186                          1.1691202              31.8134
      -------------------------------------------------------------
                  HL-Gap            0.0462689 Eh            1.2590 eV

     #   Z          covCN         q      C6AA      α(0)
     1   8 O        0.858    -0.377    21.217     6.176
     2   6 C        2.829     0.225    23.272     7.905
     3   6 C        3.013    -0.014    28.336     8.732
     4   6 C        2.926    -0.010    28.271     8.720
     5   6 C        2.917    -0.017    28.440     8.745
     6   6 C        2.921    -0.011    28.301     8.724
     7   6 C        2.955    -0.018    28.445     8.748
     8   6 C        2.971    -0.069    29.723     8.943
     9  16 S        3.830     0.956   107.911    17.484
    10   8 O        0.860    -0.561    25.184     6.728
    11   8 O        0.860    -0.583    25.701     6.797
    12   6 C        2.971    -0.075    29.861     8.964
    13   6 C        2.952    -0.019    28.483     8.753
    14   6 C        2.926    -0.021    28.538     8.761
    15   6 C        2.973     0.028    27.368     8.581
    16   6 C        2.976     0.007    27.869     8.659
    17   6 C        2.923    -0.030    28.757     8.794
    18   6 C        2.920    -0.045    29.113     8.848
    19   6 C        2.924     0.063    26.585     8.455
    20   7 N        2.752    -0.056    22.325     7.017
    21   6 C        2.922     0.064    26.556     8.451
    22   6 C        2.925    -0.044    29.104     8.847
    23   6 C        2.982    -0.032    28.784     8.801
    24   6 C        2.916     0.078    26.261     8.403
    25  35 Br       1.050    -0.201   190.643    22.263
    26   6 C        2.981    -0.032    28.786     8.801
    27   6 C        2.925    -0.045    29.111     8.848
    28   6 C        2.922     0.064    26.556     8.451
    29   6 C        2.925    -0.044    29.103     8.847
    30   6 C        2.981    -0.032    28.783     8.800
    31   6 C        2.916     0.078    26.262     8.404
    32  35 Br       1.050    -0.201   190.638    22.262
    33   6 C        2.982    -0.032    28.787     8.801
    34   6 C        2.925    -0.045    29.115     8.849
    35   6 C        2.920    -0.044    29.101     8.846
    36   6 C        2.923    -0.029    28.735     8.791
    37   6 C        2.932    -0.019    28.481     8.752
    38   6 C        3.011    -0.015    28.376     8.738
    39   1 H        0.926     0.080     1.982     2.201
    40   1 H        0.926     0.079     1.994     2.208
    41   1 H        0.926     0.078     1.997     2.210
    42   1 H        0.926     0.066     2.134     2.284
    43   1 H        0.926     0.064     2.153     2.294
    44   1 H        0.926     0.077     2.008     2.216
    45   1 H        0.926     0.051     2.306     2.375
    46   1 H        0.926     0.045     2.378     2.411
    47   1 H        0.926     0.055     2.262     2.352
    48   1 H        0.926     0.059     2.213     2.326
    49   1 H        0.926     0.058     2.223     2.331
    50   1 H        0.926     0.052     2.296     2.369
    51   1 H        0.926     0.055     2.259     2.351
    52   1 H        0.926     0.059     2.211     2.326
    53   1 H        0.926     0.058     2.225     2.333
    54   1 H        0.926     0.052     2.300     2.372
    55   1 H        0.926     0.044     2.392     2.418
    56   1 H        0.926     0.049     2.335     2.390
    57   1 H        0.926     0.079     1.991     2.207

molecular dipole:
                 x           y           z       tot (Debye)
 q only:       -0.029       0.930      -1.914
   full:        0.422       0.657      -1.799       4.986

 projected vibrational frequencies (cm⁻¹)
eigval :       -0.00    -0.00    -0.00    -0.00     0.00     0.00
eigval :       11.11    12.77    18.50    23.39    29.73    37.31
eigval :       44.63    54.72    59.89    89.84    95.83    98.68
eigval :      113.40   117.99   122.23   126.95   148.94   153.11
eigval :      175.18   186.10   203.08   222.26   228.93   243.26
eigval :      270.44   279.74   295.32   301.31   312.33   322.78
eigval :      341.71   363.54   368.10   378.41   380.99   384.07
eigval :      387.16   389.64   403.17   426.74   433.29   437.51
eigval :      450.71   479.81   488.56   491.04   500.37   510.02
eigval :      541.41   551.72   589.48   596.55   598.02   605.61
eigval :      613.21   631.85   636.08   658.21   658.98   665.45
eigval :      674.40   678.30   697.29   719.22   732.28   735.60
eigval :      785.81   802.74   805.14   810.45   816.18   841.19
eigval :      862.08   863.68   869.78   889.04   891.24   904.50
eigval :      909.00   910.02   911.34   918.30   920.50   921.63
eigval :      922.18   923.48   928.62   930.44   944.84   985.27
eigval :     1006.63  1012.78  1020.45  1063.26  1077.78  1080.28
eigval :     1088.08  1088.79  1089.02  1134.93  1136.79  1141.32
eigval :     1148.22  1161.69  1165.24  1176.09  1182.44  1189.34
eigval :     1194.04  1195.71  1214.40  1219.04  1226.24  1241.65
eigval :     1258.88  1261.91  1268.76  1291.16  1309.43  1313.44
eigval :     1318.45  1318.97  1323.12  1323.33  1327.62  1375.69
eigval :     1398.64  1407.40  1410.08  1414.82  1439.12  1445.95
eigval :     1452.00  1455.38  1489.18  1550.54  1551.45  1555.04
eigval :     1560.07  1564.16  1565.31  1573.10  1577.36  1584.68
eigval :     1591.26  1663.32  3085.71  3087.17  3090.82  3092.00
eigval :     3093.47  3094.45  3094.86  3095.22  3095.81  3096.65
eigval :     3097.87  3099.45  3101.42  3103.39  3104.10  3105.74
eigval :     3106.10  3106.32  3107.61

   temp. (K)  partition function   enthalpy   heat capacity  entropy
                                   cal/mol     cal/K/mol   cal/K/mol   J/K/mol
 298.15  VIB  0.120E+16            18760.333    113.471    117.726
         ROT  0.141E+09              888.752      2.981     40.273
         INT  0.169E+24            19649.086    116.452    157.999
         TR   0.159E+29             1481.254      4.968     45.256
         TOT                       21130.3396   121.4197   203.2550   850.4190

       T/K    H(0)-H(T)+PV         H(T)/Eh          T*S/Eh         G(T)/Eh
   ------------------------------------------------------------------------
    298.15    0.336733E-01    0.436721E+00    0.965730E-01    0.340148E+00
   ------------------------------------------------------------------------

         :::::::::::::::::::::::::::::::::::::::::::::::::::::
         ::                  THERMODYNAMIC                  ::
         :::::::::::::::::::::::::::::::::::::::::::::::::::::
         :: total free energy        -102.296965450496 Eh   ::
         ::.................................................::
         :: total energy             -102.637113865482 Eh   ::
         :: zero point energy           0.403048089435 Eh   ::
         :: G(RRHO) w/o ZPVE           -0.062899674449 Eh   ::
         :: G(RRHO) contrib.            0.340148414986 Eh   ::
         :::::::::::::::::::::::::::::::::::::::::::::::::::::

           -------------------------------------------------
          | TOTAL ENERGY             -102.637113865482 Eh   |
          | TOTAL ENTHALPY           -102.200392436455 Eh   |
          | TOTAL FREE ENERGY        -102.296965450496 Eh   |
          | GRADIENT NORM               0.000070277997 Eh/α |
          | HOMO-LUMO GAP               1.259040839435 eV   |
           -------------------------------------------------

 * finished run on 2025/07/16 at 13:29:16.234
