   * xtb version 6.7.1 (edcfbbe) compiled by 'albert@albert-system' on 2024-07-22

   ID    Z sym.   atoms
    1    8 O      1, 10, 11
    2    6 C      2-8, 12-19, 21-24, 26-31, 33-38
    3   16 S      9
    4    7 N      20
    5   35 Br     25, 32
    6    1 H      39-57

          program call               : xtb data2507/toluene/PCTXO/PCTXO_toluene_T1_crest.xyz --gfn 2 --uhf 2 --gbsa toluene --ohess vtight --parallel 40 --molden --ceasefiles --namespace data2507/toluene/PCTXO/PCTXO_toluene_T1_finalOpt
      * Solvation model:               GBSA
        Solvent                        toluene
        Solvent mass                       9.2140E+01 g/mol
          :  Hamiltonian                  GFN2-xTB          :
 * total energy  :  -102.5645467 Eh     change       -0.3609699E-09 Eh
 * total energy  :  -102.5650081 Eh     change       -0.4614362E-03 Eh
 * total energy  :  -102.5652174 Eh     change       -0.2093217E-03 Eh
 * total energy  :  -102.5652409 Eh     change       -0.2341809E-04 Eh
 * total energy  :  -102.5652580 Eh     change       -0.1710836E-04 Eh
 * total energy  :  -102.5652656 Eh     change       -0.7610921E-05 Eh
 * total energy  :  -102.5652704 Eh     change       -0.4845529E-05 Eh
 * total energy  :  -102.5652737 Eh     change       -0.3274899E-05 Eh
 * total energy  :  -102.5652770 Eh     change       -0.3289548E-05 Eh
 * total energy  :  -102.5652796 Eh     change       -0.2603872E-05 Eh
 * total energy  :  -102.5652808 Eh     change       -0.1250599E-05 Eh
 * total energy  :  -102.5652815 Eh     change       -0.6624563E-06 Eh
 * total energy  :  -102.5652820 Eh     change       -0.4696311E-06 Eh
 * total energy  :  -102.5652824 Eh     change       -0.3951238E-06 Eh
 * total energy  :  -102.5652826 Eh     change       -0.1968414E-06 Eh
 * total energy  :  -102.5652825 Eh     change        0.4908247E-07 Eh
 * total energy  :  -102.5652827 Eh     change       -0.1533815E-06 Eh
 * total energy  :  -102.5652828 Eh     change       -0.7746216E-07 Eh
   *** GEOMETRY OPTIMIZATION CONVERGED AFTER 18 ITERATIONS ***

 final structure:
================
57
 xtb: 6.7.1 (edcfbbe)
O            5.34122043483850        2.35844077053672        0.14858366288534
C            5.86879762886965        1.21190625512276        0.05743909940785
C            7.28066059891189        1.07878338875188       -0.25453019541671
C            7.97877450730313        2.23375907574272       -0.67132873664261
C            9.29121623354609        2.16543602230757       -1.06828102745869
C            9.97415608527579        0.94922920917000       -1.06950966047631
C            9.32036256876327       -0.19140211734630       -0.63703564770050
C            8.00323027052268       -0.11905242161135       -0.23062825360193
S            7.25719233437346       -1.56460249646930        0.47584472371874
O            7.69581961811313       -2.76080681167316       -0.21776153375276
O            7.50825466081254       -1.55484353595314        1.90852650845883
C            5.52901941718757       -1.29552641623815        0.20821583910430
C            4.67721907868279       -2.38257635106230        0.16704585077314
C            3.31066998905703       -2.19821830017685        0.11704717686194
C            2.78232811630504       -0.89044762560136        0.13343371620239
C            1.33849137190594       -0.66392538268551        0.09641429491568
C            0.49587044674991       -1.49641492898904       -0.65085656768146
C           -0.86324476589198       -1.28694903737134       -0.68485101523446
C           -1.43403854286792       -0.22622648695461        0.03111517330286
N           -2.80941319972877       -0.01075811714304        0.00248184706225
C           -3.68571486952186       -1.09456393817830       -0.04548226575557
C           -3.38509875031675       -2.27752742925119        0.63940456571029
C           -4.25029658115555       -3.35041387716649        0.59359816724977
C           -5.42506028982211       -3.25064706643779       -0.13943452228346
Br          -6.62616180149377       -4.73854853697057       -0.20388401581076
C           -5.74126420620518       -2.08589321202145       -0.82557363113096
C           -4.87552540588731       -1.01345646339877       -0.77782800318616
C           -3.31048378455191        1.29093047289788        0.02708707526726
C           -2.64033633834571        2.31857754415977       -0.64626778845656
C           -3.13530349553530        3.60570595578170       -0.62625523980777
C           -4.30506602675115        3.87742975988292        0.07013029210149
Br          -4.99503810505017        5.66151358635232        0.09713601341160
C           -4.98258413383310        2.87228444404447        0.74718123009412
C           -4.48760026298700        1.58536709207219        0.72425472691602
C           -0.59692782911856        0.61442876889286        0.77719429876732
C            0.76057485409592        0.39717385185338        0.80544200890616
C            3.64845866731349        0.18797409997524        0.15723111407983
C            5.04694445477424        0.02297177673815        0.15682514738139
H            7.43267002800880        3.16580228198653       -0.67549951471938
H            9.79808350156981        3.06423521691161       -1.38715399820829
H           11.00317098106916        0.89697521784171       -1.38807023865678
H            9.81186432910827       -1.15190321624081       -0.59810490754220
H            5.11712436064346       -3.36804706672606        0.19588348116127
H            2.65301500411474       -3.05189604943807        0.11916965260389
H            0.92370146753400       -2.29533322025534       -1.23546853938970
H           -1.49263824683809       -1.92265318890156       -1.28891974110752
H           -2.48036519075991       -2.34400906414077        1.22352189327212
H           -4.02064376962487       -4.25669580077614        1.13125838518523
H           -6.65241835321912       -2.02443825896383       -1.39927607406356
H           -5.10854983693713       -0.11422036158970       -1.32661277967578
H           -1.74117766783882        2.09992599375456       -1.20116596558314
H           -2.62178791859237        4.39291331138725       -1.15531370584119
H           -5.88370494977493        3.09905222418691        1.29453618304273
H           -5.00113230189704        0.80585900732224        1.26542247691142
H           -1.02689663372405        1.41697256334295        1.35704013815441
H            1.38847762265721        1.03200883695092        1.41059837918373
H            3.28350038346260        1.20414331886420        0.12467494259086

          :  Hamiltonian                  GFN2-xTB          :
         :: gradient norm              0.000038093939 Eh/a0 ::
         :: HOMO-LUMO gap              0.703685321311 eV    ::
         :: SCC energy              -104.128917432782 Eh    ::
         :: -> dispersion             -0.082711249008 Eh    ::
         :: -> Gsolv                  -0.075163769800 Eh    ::
         :: repulsion energy           1.563634682115 Eh    ::

    * Orbital Energies and Occupations

         #    Occupation            Energy/Eh            Energy/eV
      -------------------------------------------------------------
         1        2.0000           -0.8507721             -23.1507
       ...           ...                  ...                  ...
        82        2.0000           -0.4294012             -11.6846
        83        2.0000           -0.4291495             -11.6778
        84        2.0000           -0.4247334             -11.5576
        85        2.0000           -0.4244646             -11.5503
        86        2.0000           -0.4206879             -11.4475
        87        2.0000           -0.4196899             -11.4203
        88        2.0000           -0.4171766             -11.3520
        89        2.0000           -0.4160221             -11.3205
        90        2.0000           -0.4123163             -11.2197
        91        2.0000           -0.4068264             -11.0703
        92        1.7865           -0.3854847             -10.4896
        93        1.2135           -0.3830071             -10.4222
        94        1.0000           -0.3030937              -8.2476 (HOMO)
        95        0.0000           -0.2772335              -7.5439 (LUMO)
        96        0.0000           -0.2751469              -7.4871
        97                         -0.2651223              -7.2143
        98                         -0.2606821              -7.0935
        99                         -0.2501651              -6.8073
       100                         -0.2488482              -6.7715
       101                         -0.2458954              -6.6912
       102                         -0.2386413              -6.4938
       103                         -0.2234148              -6.0794
       104                         -0.2177557              -5.9254
       105                         -0.2174022              -5.9158
       ...                                ...                  ...
       186                          1.1597036              31.5571
      -------------------------------------------------------------
                  HL-Gap            0.0258602 Eh            0.7037 eV

     #   Z          covCN         q      C6AA      α(0)
     1   8 O        0.858    -0.473    23.186     6.456
     2   6 C        2.835     0.166    24.420     8.098
     3   6 C        3.008    -0.017    28.415     8.744
     4   6 C        2.927    -0.024    28.595     8.770
     5   6 C        2.915    -0.028    28.699     8.785
     6   6 C        2.920    -0.034    28.850     8.808
     7   6 C        2.968    -0.023    28.572     8.768
     8   6 C        2.971    -0.086    30.142     9.005
     9  16 S        3.852     0.935   108.543    17.535
    10   8 O        0.860    -0.576    25.544     6.776
    11   8 O        0.860    -0.595    25.994     6.836
    12   6 C        2.970    -0.089    30.215     9.016
    13   6 C        2.961    -0.022    28.556     8.765
    14   6 C        2.922    -0.044    29.082     8.844
    15   6 C        2.972     0.015    27.669     8.628
    16   6 C        2.976     0.028    27.383     8.584
    17   6 C        2.921    -0.025    28.628     8.774
    18   6 C        2.917    -0.036    28.897     8.815
    19   6 C        2.927     0.060    26.647     8.465
    20   7 N        2.753     0.007    21.135     6.828
    21   6 C        2.925     0.062    26.614     8.460
    22   6 C        2.923    -0.034    28.857     8.809
    23   6 C        2.982    -0.025    28.632     8.777
    24   6 C        2.915     0.093    25.934     8.351
    25  35 Br       1.052    -0.166   189.629    22.203
    26   6 C        2.982    -0.026    28.635     8.778
    27   6 C        2.923    -0.035    28.877     8.812
    28   6 C        2.926     0.062    26.614     8.460
    29   6 C        2.923    -0.034    28.848     8.808
    30   6 C        2.982    -0.025    28.629     8.777
    31   6 C        2.915     0.093    25.931     8.350
    32  35 Br       1.052    -0.165   189.609    22.202
    33   6 C        2.982    -0.026    28.637     8.778
    34   6 C        2.923    -0.035    28.876     8.812
    35   6 C        2.917    -0.036    28.887     8.814
    36   6 C        2.922    -0.024    28.604     8.771
    37   6 C        2.934    -0.026    28.651     8.778
    38   6 C        3.007    -0.019    28.469     8.752
    39   1 H        0.926     0.061     2.193     2.316
    40   1 H        0.926     0.059     2.207     2.323
    41   1 H        0.926     0.056     2.241     2.341
    42   1 H        0.926     0.044     2.395     2.420
    43   1 H        0.926     0.046     2.366     2.405
    44   1 H        0.926     0.063     2.165     2.301
    45   1 H        0.926     0.063     2.161     2.299
    46   1 H        0.926     0.063     2.164     2.300
    47   1 H        0.926     0.072     2.068     2.249
    48   1 H        0.926     0.074     2.041     2.234
    49   1 H        0.926     0.075     2.030     2.228
    50   1 H        0.926     0.071     2.076     2.253
    51   1 H        0.926     0.071     2.073     2.252
    52   1 H        0.926     0.074     2.047     2.237
    53   1 H        0.926     0.076     2.025     2.225
    54   1 H        0.926     0.071     2.071     2.251
    55   1 H        0.926     0.061     2.186     2.312
    56   1 H        0.926     0.059     2.212     2.326
    57   1 H        0.926     0.067     2.117     2.275

molecular dipole:
                 x           y           z       tot (Debye)
 q only:       -8.682       0.449      -1.380
   full:       -8.140       0.221      -1.279      20.952

 projected vibrational frequencies (cm⁻¹)
eigval :       -0.00    -0.00    -0.00     0.00     0.00     0.00
eigval :       11.62    12.41    17.53    22.64    25.73    38.04
eigval :       46.97    55.96    59.26    92.21    96.12   101.38
eigval :      114.94   123.67   126.06   135.07   148.55   155.08
eigval :      175.68   188.41   211.20   223.46   231.82   246.51
eigval :      275.30   280.83   288.76   302.97   312.52   322.11
eigval :      344.52   355.36   366.04   376.57   380.46   382.03
eigval :      384.75   388.76   405.44   418.49   429.31   442.09
eigval :      454.57   471.42   487.85   491.50   502.71   518.79
eigval :      534.60   536.36   571.64   592.50   593.82   596.62
eigval :      600.71   606.27   635.62   636.96   649.12   656.71
eigval :      667.39   670.44   676.33   695.49   717.99   733.02
eigval :      771.62   788.96   803.32   812.56   816.35   828.87
eigval :      857.38   859.45   861.97   869.01   869.74   899.43
eigval :      903.00   904.09   905.37   912.71   915.03   917.03
eigval :      920.88   923.27   924.44   930.57   937.04   982.08
eigval :     1001.30  1003.26  1011.47  1048.87  1060.14  1069.70
eigval :     1072.63  1081.63  1081.97  1134.85  1136.44  1137.25
eigval :     1139.09  1151.03  1160.39  1164.69  1175.26  1176.39
eigval :     1185.11  1186.25  1208.84  1211.63  1220.32  1224.00
eigval :     1254.05  1256.95  1262.46  1275.62  1292.40  1294.54
eigval :     1309.56  1320.10  1322.05  1331.98  1338.58  1355.87
eigval :     1391.54  1398.09  1406.91  1412.70  1413.09  1417.89
eigval :     1435.78  1436.75  1441.34  1465.54  1484.04  1509.67
eigval :     1517.12  1532.25  1541.80  1545.83  1554.15  1558.68
eigval :     1571.22  1573.12  3078.72  3086.56  3087.37  3089.10
eigval :     3089.48  3092.21  3093.21  3098.88  3099.95  3100.34
eigval :     3101.05  3101.71  3105.90  3106.67  3109.36  3110.65
eigval :     3111.14  3111.43  3112.13

   temp. (K)  partition function   enthalpy   heat capacity  entropy
                                   cal/mol     cal/K/mol   cal/K/mol   J/K/mol
 298.15  VIB  0.120E+16            18834.420    114.519    117.849
         ROT  0.140E+09              888.752      2.981     40.261
         INT  0.168E+24            19723.172    117.500    158.110
         TR   0.159E+29             1481.254      4.968     45.256
         TOT                       21204.4262   122.4678   203.3656   850.8818

       T/K    H(0)-H(T)+PV         H(T)/Eh          T*S/Eh         G(T)/Eh
   ------------------------------------------------------------------------
    298.15    0.337914E-01    0.434018E+00    0.966256E-01    0.337393E+00
   ------------------------------------------------------------------------

         :::::::::::::::::::::::::::::::::::::::::::::::::::::
         ::                  THERMODYNAMIC                  ::
         :::::::::::::::::::::::::::::::::::::::::::::::::::::
         :: total free energy        -102.227890129524 Eh   ::
         ::.................................................::
         :: total energy             -102.565282746127 Eh   ::
         :: zero point energy           0.400226780798 Eh   ::
         :: G(RRHO) w/o ZPVE           -0.062834164195 Eh   ::
         :: G(RRHO) contrib.            0.337392616603 Eh   ::
         :::::::::::::::::::::::::::::::::::::::::::::::::::::

           -------------------------------------------------
          | TOTAL ENERGY             -102.565282746127 Eh   |
          | TOTAL ENTHALPY           -102.131264561312 Eh   |
          | TOTAL FREE ENERGY        -102.227890129524 Eh   |
          | GRADIENT NORM               0.000037154200 Eh/α |
          | HOMO-LUMO GAP               0.703692804798 eV   |
           -------------------------------------------------

 * finished run on 2025/07/16 at 13:37:27.391
