   * xtb version 6.7.1 (edcfbbe) compiled by 'albert@albert-system' on 2024-07-22

   ID    Z sym.   atoms
    1    8 O      1, 10, 11
    2    6 C      2-8, 12-19, 21-24, 26-31, 33-38
    3   16 S      9
    4    7 N      20
    5   35 Br     25, 32
    6    1 H      39-57

          program call               : xtb data2507/toluene/PCTXO/PCTXO_toluene_S0_crest.xyz --gfn 2 --gbsa toluene --ohess vtight --parallel 40 --molden --ceasefiles --namespace data2507/toluene/PCTXO/PCTXO_toluene_S0_finalOpt
      * Solvation model:               GBSA
        Solvent                        toluene
        Solvent mass                       9.2140E+01 g/mol
          :  Hamiltonian                  GFN2-xTB          :
 * total energy  :  -102.6368437 Eh     change       -0.6006218E-09 Eh
 * total energy  :  -102.6370018 Eh     change       -0.1580729E-03 Eh
 * total energy  :  -102.6370715 Eh     change       -0.6975538E-04 Eh
 * total energy  :  -102.6370818 Eh     change       -0.1025823E-04 Eh
 * total energy  :  -102.6370933 Eh     change       -0.1146671E-04 Eh
 * total energy  :  -102.6370973 Eh     change       -0.4048582E-05 Eh
 * total energy  :  -102.6371059 Eh     change       -0.8557593E-05 Eh
 * total energy  :  -102.6371094 Eh     change       -0.3587437E-05 Eh
 * total energy  :  -102.6371236 Eh     change       -0.1417041E-04 Eh
 * total energy  :  -102.6371272 Eh     change       -0.3620507E-05 Eh
 * total energy  :  -102.6371345 Eh     change       -0.1533987E-05 Eh
 * total energy  :  -102.6371359 Eh     change       -0.1446875E-05 Eh
 * total energy  :  -102.6371370 Eh     change       -0.1038984E-05 Eh
 * total energy  :  -102.6371376 Eh     change       -0.5917198E-06 Eh
 * total energy  :  -102.6371380 Eh     change       -0.4672896E-06 Eh
 * total energy  :  -102.6371383 Eh     change       -0.3053737E-06 Eh
 * total energy  :  -102.6371385 Eh     change       -0.1282588E-06 Eh
 * total energy  :  -102.6371384 Eh     change        0.8558217E-08 Eh
 * total energy  :  -102.6371385 Eh     change       -0.7650335E-07 Eh
   *** GEOMETRY OPTIMIZATION CONVERGED AFTER 22 ITERATIONS ***

 final structure:
================
57
 xtb: 6.7.1 (edcfbbe)
O            5.53609127390343        2.28553231963014        0.76361349314669
C            5.93834017850662        1.21654676406560        0.34135890961668
C            7.28894304284565        1.08731436768722       -0.25984495935203
C            7.87208731642194        2.21735736540746       -0.83729360849817
C            9.11571075628719        2.13544034128222       -1.43762244382449
C            9.80079909124344        0.92969446520967       -1.46685258242374
C            9.24105494654661       -0.19645815928309       -0.88028920495772
C            7.99648589022075       -0.11016469902200       -0.29147950962940
S            7.29995980393874       -1.52095740788397        0.55512205579290
O            7.72685229231815       -2.74747945623216       -0.07595867141828
O            7.59543266056797       -1.38411505943550        1.96614024061218
C            5.54738988810053       -1.28214634493855        0.33245692058998
C            4.69033138554625       -2.36269241891753        0.27494155471729
C            3.32426829635544       -2.15535237818211        0.19260827826928
C            2.79986067572777       -0.86017321287974        0.19037603743937
C            1.35069963262276       -0.63538312347739        0.13069712804537
C            0.53112975826073       -1.44467372621980       -0.65688066356989
C           -0.83055674534899       -1.23497073864842       -0.71194593342670
C           -1.41939379185804       -0.21421415815271        0.03552582576163
N           -2.80459691386953       -0.00814290647169       -0.00675423245952
C           -3.67012287655720       -1.10389898182062       -0.05441227918516
C           -3.36439092837874       -2.27823738432215        0.63728970807251
C           -4.21418195714163       -3.36501404112420        0.58806057324028
C           -5.38270914626531       -3.28153485116839       -0.15101392502590
Br          -6.56920404612707       -4.78796213348036       -0.21588529692278
C           -5.70841882991988       -2.12654753427836       -0.84272673471418
C           -4.85188972909321       -1.04475139073114       -0.79650187156049
C           -3.31475390473304        1.29293159569135        0.01217498072060
C           -2.65125068393199        2.32171817122011       -0.66014912605048
C           -3.14931181496808        3.60915232841497       -0.64235060442562
C           -4.32168820034450        3.87498148823322        0.04575223416069
Br          -5.02099185193998        5.66134654046510        0.06668709761861
C           -4.99718222666386        2.87078958857579        0.71951355007703
C           -4.49179428659396        1.58608753219731        0.70428389910295
C           -0.60488463433319        0.59672530738498        0.82697114476810
C            0.75804594954519        0.39216430360641        0.86572019612279
C            3.68182611224058        0.21716272787166        0.25292137577255
C            5.05932819882426        0.02118782552106        0.31610091294902
H            7.32601810807233        3.14841233904029       -0.80689130559585
H            9.55316970074523        3.01556482851519       -1.88324607064300
H           10.76997500833038        0.86498429021850       -1.93653121923616
H            9.74858845370400       -1.14849613685043       -0.87373641412108
H            5.11228164516743       -3.35549407247352        0.29610989481293
H            2.65862276264800       -3.00366655307131        0.15843153022277
H            0.96957582623374       -2.22495872553500       -1.25976487692173
H           -1.44841816483415       -1.85898320043515       -1.34020312932698
H           -2.45817657163415       -2.33568478349782        1.22043564561795
H           -3.97469540556399       -4.26761130889108        1.12852928409900
H           -6.61816105630661       -2.07567557044742       -1.42067243212854
H           -5.09700129622053       -0.14770863242801       -1.34433013693718
H           -1.74323147093244        2.10829911389854       -1.20285930228706
H           -2.63467241888500        4.39884620092152       -1.16744493493249
H           -5.90479414823276        3.09174672322611        1.25954142784623
H           -5.00983978193824        0.80352852403120        1.23743655327704
H           -1.04964468430921        1.38345752197366        1.41784464624951
H            1.36775089972476        1.01426451922513        1.50296869477655
H            3.31447077297469        1.23228223188546        0.23052941057637

          :  Hamiltonian                  GFN2-xTB          :
         :: gradient norm              0.000118730578 Eh/a0 ::
         :: HOMO-LUMO gap              1.269979674850 eV    ::
         :: SCC energy              -104.215158176347 Eh    ::
         :: -> dispersion             -0.082686291578 Eh    ::
         :: -> Gsolv                  -0.057090682979 Eh    ::
         :: repulsion energy           1.578019650908 Eh    ::

    * Orbital Energies and Occupations

         #    Occupation            Energy/Eh            Energy/eV
      -------------------------------------------------------------
         1        2.0000           -0.8406872             -22.8763
       ...           ...                  ...                  ...
        81        2.0000           -0.4395672             -11.9612
        82        2.0000           -0.4350001             -11.8370
        83        2.0000           -0.4310284             -11.7289
        84        2.0000           -0.4301088             -11.7039
        85        2.0000           -0.4285004             -11.6601
        86        2.0000           -0.4236164             -11.5272
        87        2.0000           -0.4213680             -11.4660
        88        2.0000           -0.4135935             -11.2545
        89        2.0000           -0.4134858             -11.2515
        90        2.0000           -0.4101300             -11.1602
        91        2.0000           -0.4077878             -11.0965
        92        2.0000           -0.4043216             -11.0022
        93        2.0000           -0.3673163              -9.9952 (HOMO)
        94                         -0.3206454              -8.7252 (LUMO)
        95                         -0.2777057              -7.5568
        96                         -0.2666608              -7.2562
        97                         -0.2588738              -7.0443
        98                         -0.2571124              -6.9964
        99                         -0.2500225              -6.8035
       100                         -0.2457124              -6.6862
       101                         -0.2429175              -6.6101
       102                         -0.2374348              -6.4609
       103                         -0.2213922              -6.0244
       104                         -0.2079201              -5.6578
       ...                                ...                  ...
       186                          1.1698957              31.8345
      -------------------------------------------------------------
                  HL-Gap            0.0466709 Eh            1.2700 eV

     #   Z          covCN         q      C6AA      α(0)
     1   8 O        0.858    -0.376    21.202     6.174
     2   6 C        2.829     0.226    23.261     7.903
     3   6 C        3.015    -0.014    28.333     8.731
     4   6 C        2.926    -0.010    28.273     8.720
     5   6 C        2.917    -0.017    28.439     8.745
     6   6 C        2.921    -0.012    28.306     8.725
     7   6 C        2.954    -0.018    28.446     8.748
     8   6 C        2.971    -0.070    29.731     8.944
     9  16 S        3.830     0.956   107.917    17.484
    10   8 O        0.860    -0.561    25.170     6.726
    11   8 O        0.860    -0.583    25.706     6.798
    12   6 C        2.971    -0.075    29.868     8.965
    13   6 C        2.950    -0.019    28.483     8.753
    14   6 C        2.926    -0.021    28.541     8.761
    15   6 C        2.973     0.028    27.367     8.581
    16   6 C        2.976     0.007    27.867     8.659
    17   6 C        2.923    -0.030    28.756     8.794
    18   6 C        2.920    -0.045    29.111     8.848
    19   6 C        2.924     0.063    26.586     8.456
    20   7 N        2.752    -0.056    22.323     7.017
    21   6 C        2.922     0.065    26.555     8.451
    22   6 C        2.925    -0.045    29.109     8.848
    23   6 C        2.981    -0.032    28.785     8.801
    24   6 C        2.916     0.078    26.264     8.404
    25  35 Br       1.050    -0.202   190.651    22.263
    26   6 C        2.981    -0.032    28.787     8.801
    27   6 C        2.925    -0.045    29.116     8.849
    28   6 C        2.922     0.064    26.557     8.451
    29   6 C        2.925    -0.044    29.101     8.847
    30   6 C        2.981    -0.032    28.783     8.800
    31   6 C        2.916     0.078    26.261     8.403
    32  35 Br       1.050    -0.201   190.634    22.262
    33   6 C        2.982    -0.032    28.787     8.801
    34   6 C        2.925    -0.045    29.113     8.848
    35   6 C        2.920    -0.044    29.099     8.846
    36   6 C        2.923    -0.029    28.736     8.791
    37   6 C        2.932    -0.019    28.482     8.752
    38   6 C        3.014    -0.015    28.373     8.738
    39   1 H        0.926     0.079     1.988     2.205
    40   1 H        0.926     0.079     1.994     2.208
    41   1 H        0.926     0.078     1.997     2.210
    42   1 H        0.926     0.066     2.129     2.282
    43   1 H        0.926     0.064     2.147     2.291
    44   1 H        0.926     0.077     2.008     2.216
    45   1 H        0.926     0.051     2.305     2.374
    46   1 H        0.926     0.046     2.376     2.410
    47   1 H        0.926     0.055     2.262     2.352
    48   1 H        0.926     0.059     2.214     2.327
    49   1 H        0.926     0.058     2.224     2.332
    50   1 H        0.926     0.052     2.297     2.370
    51   1 H        0.926     0.055     2.260     2.351
    52   1 H        0.926     0.059     2.211     2.325
    53   1 H        0.926     0.058     2.224     2.332
    54   1 H        0.926     0.052     2.298     2.371
    55   1 H        0.926     0.044     2.392     2.419
    56   1 H        0.926     0.049     2.336     2.390
    57   1 H        0.926     0.078     1.998     2.210

molecular dipole:
                 x           y           z       tot (Debye)
 q only:       -0.180       0.745      -2.054
   full:        0.285       0.503      -1.932       5.126

 projected vibrational frequencies (cm⁻¹)
eigval :       -0.00    -0.00    -0.00    -0.00     0.00     0.00
eigval :       11.44    12.52    18.13    23.37    27.61    39.49
eigval :       47.07    57.23    58.75    89.94    97.74    98.30
eigval :      112.94   117.63   122.07   127.45   146.94   152.54
eigval :      175.20   186.22   202.58   222.12   229.20   242.71
eigval :      269.28   279.54   296.56   301.18   312.45   322.79
eigval :      341.09   360.98   367.46   380.30   380.82   385.02
eigval :      387.33   389.90   403.61   426.45   432.81   437.20
eigval :      450.61   478.79   488.70   492.19   499.65   509.93
eigval :      540.29   550.93   589.86   596.57   598.11   605.73
eigval :      613.59   631.71   636.46   658.99   659.43   665.85
eigval :      674.79   678.12   697.24   718.88   731.85   735.01
eigval :      787.69   803.11   806.48   811.08   815.77   841.34
eigval :      863.41   865.09   868.46   890.09   892.22   904.51
eigval :      909.76   910.68   912.36   917.42   921.61   923.35
eigval :      923.81   924.12   929.47   931.58   944.32   985.25
eigval :     1006.74  1012.42  1020.09  1062.28  1077.12  1079.48
eigval :     1088.48  1088.94  1089.37  1135.76  1137.71  1140.19
eigval :     1148.11  1156.17  1164.91  1176.24  1182.88  1190.26
eigval :     1193.77  1196.07  1214.19  1218.25  1224.92  1240.88
eigval :     1259.77  1262.69  1267.86  1290.13  1309.47  1313.88
eigval :     1317.77  1318.75  1323.11  1323.47  1327.07  1375.45
eigval :     1398.76  1407.90  1410.25  1414.72  1438.42  1444.92
eigval :     1452.39  1455.78  1488.78  1550.30  1551.35  1555.08
eigval :     1560.15  1564.17  1565.59  1573.28  1577.55  1584.93
eigval :     1591.18  1666.20  3085.51  3086.92  3090.79  3092.12
eigval :     3093.61  3094.53  3094.98  3095.38  3095.96  3096.15
eigval :     3097.58  3099.21  3101.48  3103.57  3104.23  3105.34
eigval :     3105.80  3106.37  3107.66

   temp. (K)  partition function   enthalpy   heat capacity  entropy
                                   cal/mol     cal/K/mol   cal/K/mol   J/K/mol
 298.15  VIB  0.115E+16            18757.689    113.557    117.769
         ROT  0.141E+09              888.752      2.981     40.268
         INT  0.162E+24            19646.442    116.538    158.038
         TR   0.159E+29             1481.254      4.968     45.256
         TOT                       21127.6956   121.5059   203.2932   850.5786

       T/K    H(0)-H(T)+PV         H(T)/Eh          T*S/Eh         G(T)/Eh
   ------------------------------------------------------------------------
    298.15    0.336691E-01    0.436731E+00    0.965911E-01    0.340140E+00
   ------------------------------------------------------------------------

         :::::::::::::::::::::::::::::::::::::::::::::::::::::
         ::                  THERMODYNAMIC                  ::
         :::::::::::::::::::::::::::::::::::::::::::::::::::::
         :: total free energy        -102.296998588623 Eh   ::
         ::.................................................::
         :: total energy             -102.637138521522 Eh   ::
         :: zero point energy           0.403061954628 Eh   ::
         :: G(RRHO) w/o ZPVE           -0.062922021730 Eh   ::
         :: G(RRHO) contrib.            0.340139932898 Eh   ::
         :::::::::::::::::::::::::::::::::::::::::::::::::::::

           -------------------------------------------------
          | TOTAL ENERGY             -102.637138521522 Eh   |
          | TOTAL ENTHALPY           -102.200407440792 Eh   |
          | TOTAL FREE ENERGY        -102.296998588623 Eh   |
          | GRADIENT NORM               0.000118726206 Eh/α |
          | HOMO-LUMO GAP               1.269979247248 eV   |
           -------------------------------------------------

 * finished run on 2025/07/16 at 13:32:46.759
