   * xtb version 6.7.1 (edcfbbe) compiled by 'albert@albert-system' on 2024-07-22

   ID    Z sym.   atoms
    1    6 C      1-9, 11-17, 19-31
    2    7 N      10, 18
    3    1 H      32-55

          program call               : xtb data2507/gas/BCN/BCN_gas_S0_crest.xyz --gfn 2 --ohess vtight --parallel 40 --molden --ceasefiles --namespace data2507/gas/BCN/BCN_gas_S0_finalOpt
          :  Hamiltonian                  GFN2-xTB          :
 * total energy  :   -80.2100792 Eh     change       -0.1490548E-08 Eh
 * total energy  :   -80.2100795 Eh     change       -0.2251659E-06 Eh
 * total energy  :   -80.2100789 Eh     change        0.5740335E-06 Eh
 * total energy  :   -80.2100798 Eh     change       -0.9362250E-06 Eh
 * total energy  :   -80.2100800 Eh     change       -0.1789941E-06 Eh
 * total energy  :   -80.2100801 Eh     change       -0.1215724E-06 Eh
 * total energy  :   -80.2100803 Eh     change       -0.2149511E-06 Eh
 * total energy  :   -80.2100805 Eh     change       -0.1145312E-06 Eh
 * total energy  :   -80.2100805 Eh     change       -0.4548164E-07 Eh
   *** GEOMETRY OPTIMIZATION CONVERGED AFTER 9 ITERATIONS ***

 final structure:
================
55
 xtb: 6.7.1 (edcfbbe)
C           -3.30804286768335       -0.37113293988026        2.31006904826991
C           -3.76802296914472       -0.10432319871115        0.86116075025158
C           -5.28382773014093        0.08731555460729        0.86874342450431
C           -3.32903552871016       -1.27212246092509        0.00113255424438
C           -4.18142944502643       -2.26323159316835       -0.45889515341445
C           -3.70587671351706       -3.32473764652397       -1.20966292495173
C           -2.36263503952010       -3.39417693611907       -1.53417875229418
C           -1.49872893160359       -2.40689088478234       -1.10479918046656
C           -1.96907833447584       -1.35750351647783       -0.31888898112362
N           -1.12219894364967       -0.31693111924955        0.07385022176287
C            0.24590535300670       -0.48386334532387        0.21742528960087
C            0.68498844288226       -1.71270781040118        0.76591634531581
C            2.00704071712547       -1.96841279798199        0.92729791541605
C            2.96751304399678       -1.02345865639460        0.50617871788475
C            4.33378269864031       -1.32997501871341        0.59826533161125
C            5.28975406513502       -0.43858209243398        0.16467366421967
C            6.66306849388872       -0.74882539953761        0.25552357324007
N            7.78121723986290       -0.99569520482785        0.32730433357950
C            4.87965646713282        0.79204169803093       -0.38983812519071
C            3.55550261263707        1.11066920975320       -0.46689201252297
C            2.53697614927305        0.23467870043432       -0.01004373814959
C            1.14500643982053        0.52684109874825       -0.08520566255135
C            0.63304414028925        1.89635060987334       -0.51486257332849
C            0.80558468103199        2.04073448046022       -2.04158305850325
C            1.36102684472817        3.01501102489908        0.27455918337690
C           -0.85743844601641        2.04998729165781       -0.25275254193718
C           -1.45791243734213        3.29701363015937       -0.37007037971129
C           -2.81292300100160        3.45483945777266       -0.15622537171698
C           -3.59101377569682        2.37415028208431        0.22360965413559
C           -3.02652108780178        1.11820717655776        0.35412578267658
C           -1.66537917771266        0.96484258579553        0.06215409286363
H           -3.57542744305368        0.47053846307061        2.94556399479981
H           -2.23112629120504       -0.51031250809821        2.36181467479510
H           -3.79037188767206       -1.26806351126964        2.69331432979720
H           -5.55224485171917        0.92292994885523        1.51006698987168
H           -5.65862861797040        0.27480070025942       -0.13501602437475
H           -5.77244095306526       -0.79645791905378        1.27114236361676
H           -5.23384471533996       -2.22200942156188       -0.23023083883837
H           -4.38669630111268       -4.09169676114216       -1.54639639956547
H           -1.98741851081212       -4.20820390065548       -2.13597337737322
H           -0.45723390534383       -2.43845815798636       -1.38870725557907
H           -0.05869354104587       -2.43137831570617        1.07610803386392
H            2.34152776568143       -2.89606162086737        1.36715377040358
H            4.62910278410420       -2.28595843087622        1.00730168414598
H            5.62983314849231        1.47829239251677       -0.75488639936313
H            3.29711781224141        2.05583921946955       -0.90950895400133
H            1.83391663774148        1.88928425366369       -2.35512422577939
H            0.18903131241641        1.29751966524103       -2.54556575511307
H            0.47988952346422        3.02636815172263       -2.36583704298479
H            0.66151008954943        3.52483604174225        0.93317272847025
H            2.14699902163625        2.61089873735240        0.90547368677752
H            1.79540669441978        3.75642634078650       -0.39203622746493
H           -0.86473709768552        4.15478769001417       -0.64764398108406
H           -3.26544330939608        4.42835881844128       -0.26963444668269
H           -4.63940908573303        2.52848736479984        0.41785079667118

          :  Hamiltonian                  GFN2-xTB          :
         :: gradient norm              0.000036186330 Eh/a0 ::
         :: HOMO-LUMO gap              2.070145114179 eV    ::
         :: SCC energy               -81.687259971680 Eh    ::
         :: -> dispersion             -0.077207137745 Eh    ::
         :: repulsion energy           1.477179464895 Eh    ::

    * Orbital Energies and Occupations

         #    Occupation            Energy/Eh            Energy/eV
      -------------------------------------------------------------
         1        2.0000           -0.6771597             -18.4265
       ...           ...                  ...                  ...
        63        2.0000           -0.4383570             -11.9283
        64        2.0000           -0.4324952             -11.7688
        65        2.0000           -0.4296130             -11.6904
        66        2.0000           -0.4221809             -11.4881
        67        2.0000           -0.4169179             -11.3449
        68        2.0000           -0.4158636             -11.3162
        69        2.0000           -0.4113047             -11.1922
        70        2.0000           -0.4085683             -11.1177
        71        2.0000           -0.4051014             -11.0234
        72        2.0000           -0.4016818             -10.9303
        73        2.0000           -0.3975429             -10.8177
        74        2.0000           -0.3904890             -10.6257
        75        2.0000           -0.3530423              -9.6068 (HOMO)
        76                         -0.2769659              -7.5366 (LUMO)
        77                         -0.2542739              -6.9191
        78                         -0.2289806              -6.2309
        79                         -0.2272920              -6.1849
        80                         -0.2225408              -6.0556
        81                         -0.2191708              -5.9639
        82                         -0.1981755              -5.3926
        83                         -0.1973212              -5.3694
        84                         -0.1823688              -4.9625
        85                         -0.1218446              -3.3156
        86                         -0.0971265              -2.6429
       ...                                ...                  ...
       148                          1.1791654              32.0867
      -------------------------------------------------------------
                  HL-Gap            0.0760764 Eh            2.0701 eV

     #   Z          covCN         q      C6AA      α(0)
     1   6 C        3.764    -0.100    22.444     6.753
     2   6 C        3.912     0.023    20.136     6.378
     3   6 C        3.759    -0.106    22.577     6.774
     4   6 C        2.987    -0.010    28.257     8.720
     5   6 C        2.923    -0.039    28.958     8.825
     6   6 C        2.919    -0.040    28.993     8.830
     7   6 C        2.920    -0.033    28.828     8.805
     8   6 C        2.921    -0.050    29.249     8.869
     9   6 C        2.941     0.055    26.762     8.484
    10   7 N        2.761    -0.057    22.341     7.020
    11   6 C        2.927     0.059    26.673     8.470
    12   6 C        2.920    -0.046    29.139     8.852
    13   6 C        2.919    -0.038    28.944     8.822
    14   6 C        2.989     0.006    27.889     8.663
    15   6 C        2.931    -0.026    28.642     8.777
    16   6 C        2.968     0.012    27.747     8.640
    17   6 C        1.911     0.110    28.388     8.605
    18   7 N        0.911    -0.245    26.376     7.428
    19   6 C        2.921    -0.027    28.687     8.783
    20   6 C        2.917    -0.040    28.997     8.830
    21   6 C        2.980     0.011    27.773     8.645
    22   6 C        2.969    -0.022    28.547     8.764
    23   6 C        3.905     0.023    20.125     6.377
    24   6 C        3.762    -0.100    22.450     6.754
    25   6 C        3.757    -0.110    22.651     6.786
    26   6 C        2.984    -0.013    28.335     8.732
    27   6 C        2.927    -0.042    29.042     8.838
    28   6 C        2.917    -0.043    29.073     8.842
    29   6 C        2.923    -0.042    29.052     8.839
    30   6 C        2.987    -0.013    28.322     8.730
    31   6 C        2.955     0.048    26.916     8.509
    32   1 H        0.925     0.038     2.477     2.461
    33   1 H        0.925     0.035     2.510     2.477
    34   1 H        0.925     0.038     2.479     2.462
    35   1 H        0.925     0.040     2.443     2.444
    36   1 H        0.925     0.038     2.476     2.461
    37   1 H        0.925     0.040     2.451     2.448
    38   1 H        0.926     0.038     2.477     2.461
    39   1 H        0.926     0.031     2.578     2.511
    40   1 H        0.926     0.032     2.565     2.504
    41   1 H        0.926     0.031     2.570     2.507
    42   1 H        0.926     0.039     2.457     2.451
    43   1 H        0.926     0.037     2.492     2.469
    44   1 H        0.926     0.038     2.477     2.461
    45   1 H        0.926     0.035     2.515     2.480
    46   1 H        0.926     0.050     2.324     2.384
    47   1 H        0.925     0.041     2.436     2.441
    48   1 H        0.925     0.032     2.557     2.501
    49   1 H        0.925     0.040     2.448     2.447
    50   1 H        0.925     0.041     2.439     2.442
    51   1 H        0.925     0.042     2.419     2.432
    52   1 H        0.925     0.038     2.479     2.462
    53   1 H        0.926     0.035     2.517     2.481
    54   1 H        0.926     0.029     2.595     2.519
    55   1 H        0.926     0.037     2.493     2.469

molecular dipole:
                 x           y           z       tot (Debye)
 q only:       -1.988       0.408       0.010
   full:       -2.380       0.448      -0.050       6.158

 projected vibrational frequencies (cm⁻¹)
eigval :       -0.00    -0.00    -0.00     0.00     0.00     0.00
eigval :       28.88    42.53    57.34    70.47    92.46   102.21
eigval :      115.32   127.11   140.58   146.51   170.01   173.45
eigval :      177.83   199.30   204.36   211.95   239.89   272.11
eigval :      279.21   282.27   291.29   304.48   316.79   333.31
eigval :      346.29   356.25   371.19   382.77   399.26   406.28
eigval :      422.14   433.46   454.13   462.98   468.21   486.36
eigval :      502.41   508.20   527.07   529.04   541.49   555.63
eigval :      565.24   591.03   600.02   609.73   614.14   630.65
eigval :      652.29   681.73   695.44   706.35   723.56   726.94
eigval :      737.49   777.82   788.29   803.41   818.09   833.18
eigval :      845.38   862.02   875.60   879.90   898.17   908.46
eigval :      914.65   921.87   922.72   931.05   932.32   933.40
eigval :      954.63   963.26   971.89   975.58   978.83  1009.47
eigval :     1031.98  1046.82  1091.87  1105.61  1114.15  1135.12
eigval :     1144.56  1148.46  1151.98  1161.09  1174.60  1182.62
eigval :     1186.48  1190.85  1203.31  1214.04  1227.20  1241.72
eigval :     1251.95  1255.15  1261.85  1273.40  1284.34  1313.52
eigval :     1322.14  1328.86  1332.53  1338.37  1373.53  1397.70
eigval :     1403.86  1406.77  1409.58  1414.61  1427.22  1443.08
eigval :     1448.02  1461.01  1469.33  1480.24  1484.19  1490.31
eigval :     1493.46  1495.30  1500.90  1507.25  1507.63  1523.75
eigval :     1525.50  1543.89  1579.33  1585.19  1589.91  1594.67
eigval :     1597.74  1607.36  2368.48  3019.86  3026.09  3027.31
eigval :     3028.24  3032.03  3033.50  3034.76  3035.67  3044.46
eigval :     3047.20  3056.03  3057.86  3077.55  3079.68  3082.30
eigval :     3082.99  3086.39  3086.66  3094.74  3095.96  3096.24
eigval :     3113.45  3116.44  3146.90

   temp. (K)  partition function   enthalpy   heat capacity  entropy
                                   cal/mol     cal/K/mol   cal/K/mol   J/K/mol
 298.15  VIB  0.510E+09            14372.197     97.795     84.753
         ROT  0.174E+08              888.752      2.981     36.111
         INT  0.886E+16            15260.950    100.776    120.864
         TR   0.776E+28             1481.254      4.968     43.834
         TOT                       16742.2034   105.7444   164.6983   689.0977

       T/K    H(0)-H(T)+PV         H(T)/Eh          T*S/Eh         G(T)/Eh
   ------------------------------------------------------------------------
    298.15    0.266804E-01    0.466855E+00    0.782535E-01    0.388601E+00
   ------------------------------------------------------------------------

         :::::::::::::::::::::::::::::::::::::::::::::::::::::
         ::                  THERMODYNAMIC                  ::
         :::::::::::::::::::::::::::::::::::::::::::::::::::::
         :: total free energy         -79.821479382069 Eh   ::
         ::.................................................::
         :: total energy              -80.210080506794 Eh   ::
         :: zero point energy           0.440174201548 Eh   ::
         :: G(RRHO) w/o ZPVE           -0.051573076823 Eh   ::
         :: G(RRHO) contrib.            0.388601124725 Eh   ::
         :::::::::::::::::::::::::::::::::::::::::::::::::::::

           -------------------------------------------------
          | TOTAL ENERGY              -80.210080506794 Eh   |
          | TOTAL ENTHALPY            -79.743225905779 Eh   |
          | TOTAL FREE ENERGY         -79.821479382069 Eh   |
          | GRADIENT NORM               0.000036311819 Eh/α |
          | HOMO-LUMO GAP               2.070145261178 eV   |
           -------------------------------------------------

 * finished run on 2025/07/18 at 07:52:11.368
