   * xtb version 6.7.1 (edcfbbe) compiled by 'albert@albert-system' on 2024-07-22

   ID    Z sym.   atoms
    1    6 C      1-9, 11-17, 19-31
    2    7 N      10, 18
    3    1 H      32-55

          program call               : xtb data2507/gas/BCN/BCN.xyz --gfn 2 --ohess vtight --parallel 40 --molden --ceasefiles --namespace data2507/gas/BCN/BCN_gas_S0_preOpt
          :  Hamiltonian                  GFN2-xTB          :
 * total energy  :   -80.1867682 Eh     change       -0.2416158E-08 Eh
 * total energy  :   -80.2014154 Eh     change       -0.1464729E-01 Eh
 * total energy  :   -80.2064085 Eh     change       -0.4993011E-02 Eh
 * total energy  :   -80.2073558 Eh     change       -0.9473671E-03 Eh
 * total energy  :   -80.2078140 Eh     change       -0.4582226E-03 Eh
 * total energy  :   -80.2080718 Eh     change       -0.2577373E-03 Eh
 * total energy  :   -80.2082767 Eh     change       -0.2049555E-03 Eh
 * total energy  :   -80.2084940 Eh     change       -0.2172516E-03 Eh
 * total energy  :   -80.2087382 Eh     change       -0.2441571E-03 Eh
 * total energy  :   -80.2089697 Eh     change       -0.2315453E-03 Eh
 * total energy  :   -80.2100730 Eh     change        0.9495303E-06 Eh
 * total energy  :   -80.2100766 Eh     change       -0.3592966E-05 Eh
 * total energy  :   -80.2100782 Eh     change       -0.1612874E-05 Eh
 * total energy  :   -80.2100795 Eh     change       -0.1304312E-05 Eh
 * total energy  :   -80.2100791 Eh     change        0.4199397E-06 Eh
 * total energy  :   -80.2100800 Eh     change       -0.9095940E-06 Eh
 * total energy  :   -80.2100801 Eh     change       -0.1535557E-06 Eh
 * total energy  :   -80.2100801 Eh     change        0.5900660E-08 Eh
 * total energy  :   -80.2100802 Eh     change       -0.8952239E-07 Eh
   *** GEOMETRY OPTIMIZATION CONVERGED AFTER 44 ITERATIONS ***

 final structure:
================
55
 xtb: 6.7.1 (edcfbbe)
C           -4.89139256081634        0.29804743141719       -0.55790761483033
C           -3.39807273866122       -0.01511098334140       -0.63827642875716
C           -3.05496007671889       -0.35790651913062       -2.10347903103570
C           -2.99828580453443       -1.19071595808751        0.23025506584655
C           -3.89495405136233       -2.09707542750436        0.77342921723627
C           -3.45754136210137       -3.17293938805977        1.52694291636329
C           -2.10594594775343       -3.34196687329395        1.76991510234442
C           -1.19616707039580       -2.43948617157378        1.25686173332331
C           -1.63164412610686       -1.37692830568436        0.46854004861404
N           -0.73221767935538       -0.41884064240310       -0.00817523113454
C            0.60701433583300       -0.69907683826350       -0.22778940287365
C            0.91310613641474       -1.97297615225608       -0.76366222168327
C            2.19847321899707       -2.33875748404774       -0.99454870715122
C            3.25461493495676       -1.46427645227362       -0.65888138696544
C            4.58417921035747       -1.88278367322525       -0.82079108837204
C            5.63232636809907       -1.06116403621459       -0.47031079415283
C            6.96857780279444       -1.48425228197716       -0.63135879156766
N            8.05701178891757       -1.82321374038365       -0.76089424505603
C            5.35545586590490        0.21223225732594        0.06995040435122
C            4.06784787268186        0.63910600850121        0.21388973247403
C            2.95731396890164       -0.16264006860495       -0.15675256833460
C            1.60001509623898        0.24314220839331       -0.00965867100211
C            1.22488719176133        1.66013772842080        0.40694629655771
C            1.99063038790427        2.69554823719473       -0.45673472352913
C            1.49946530452921        1.82907210542203        1.91613057540192
C           -0.26187638764802        1.92684795359613        0.22721729245480
C           -0.75339881804928        3.22112739031751        0.33951210674120
C           -2.10229021343333        3.48213324411407        0.20144593357730
C           -2.98554821349280        2.45775195063050       -0.09525101697096
C           -2.53142762242247        1.15705380969352       -0.21812805162861
C           -1.17099304713823        0.90237454535678       -0.00412784156648
H           -5.13400102991035        1.13466157660176       -1.20813939994389
H           -5.18460822949270        0.54268510197826        0.46059655564223
H           -5.47314655402993       -0.55408370110148       -0.90018685661193
H           -3.29588673880059        0.48469703000572       -2.74825090379648
H           -1.99787791140005       -0.58462393565879       -2.21741371095416
H           -3.62996836370351       -1.22335922120379       -2.42654324200167
H           -4.95332728158995       -1.97721942324661        0.60900585598778
H           -4.17378892473234       -3.87303583331629        1.92941112410445
H           -1.75831062055631       -4.16721962731039        2.37298360899782
H           -0.14437541874387       -2.54739526332741        1.47684618275144
H            0.09729140111360       -2.63684483148185       -1.00759540237701
H            2.43110798238123       -3.30128991334468       -1.42501514220377
H            4.77749882307265       -2.86964750409219       -1.21721900372197
H            6.17839309083471        0.84425635191310        0.37042681483165
H            3.91245306999941        1.61292799042689        0.64236683588122
H            2.70484563640199        2.21354602409533       -1.11752552303967
H            1.29579945857564        3.24139740140491       -1.09096027833294
H            2.51932114159697        3.41775878922137        0.16095142773713
H            2.52960837454687        1.60349427189884        2.17422806167854
H            1.27239249935073        2.84564944555225        2.22870894764992
H            0.85763217548668        1.15090631786153        2.47707641448963
H           -0.07826329148698        4.03539791038248        0.55355842436177
H           -2.46845468476840        4.49189923750750        0.30949145834617
H           -4.02853636844685        2.69097993118027       -0.23111085815709

          :  Hamiltonian                  GFN2-xTB          :
         :: gradient norm              0.000063363014 Eh/a0 ::
         :: HOMO-LUMO gap              2.069560157027 eV    ::
         :: SCC energy               -81.687259137323 Eh    ::
         :: -> dispersion             -0.077206954944 Eh    ::
         :: repulsion energy           1.477178917139 Eh    ::

    * Orbital Energies and Occupations

         #    Occupation            Energy/Eh            Energy/eV
      -------------------------------------------------------------
         1        2.0000           -0.6771554             -18.4263
       ...           ...                  ...                  ...
        63        2.0000           -0.4383576             -11.9283
        64        2.0000           -0.4324835             -11.7685
        65        2.0000           -0.4296159             -11.6904
        66        2.0000           -0.4221811             -11.4881
        67        2.0000           -0.4169154             -11.3448
        68        2.0000           -0.4158619             -11.3162
        69        2.0000           -0.4113157             -11.1925
        70        2.0000           -0.4085614             -11.1175
        71        2.0000           -0.4051044             -11.0235
        72        2.0000           -0.4016747             -10.9301
        73        2.0000           -0.3975540             -10.8180
        74        2.0000           -0.3904910             -10.6258
        75        2.0000           -0.3530381              -9.6067 (HOMO)
        76                         -0.2769831              -7.5371 (LUMO)
        77                         -0.2542908              -6.9196
        78                         -0.2289614              -6.2304
        79                         -0.2272745              -6.1845
        80                         -0.2225415              -6.0557
        81                         -0.2191592              -5.9636
        82                         -0.1981940              -5.3931
        83                         -0.1973401              -5.3699
        84                         -0.1823944              -4.9632
        85                         -0.1218771              -3.3164
        86                         -0.0970914              -2.6420
       ...                                ...                  ...
       148                          1.1791304              32.0858
      -------------------------------------------------------------
                  HL-Gap            0.0760550 Eh            2.0696 eV

     #   Z          covCN         q      C6AA      α(0)
     1   6 C        3.759    -0.106    22.577     6.774
     2   6 C        3.912     0.023    20.136     6.378
     3   6 C        3.764    -0.100    22.444     6.753
     4   6 C        2.987    -0.010    28.257     8.720
     5   6 C        2.923    -0.039    28.958     8.825
     6   6 C        2.919    -0.040    28.993     8.830
     7   6 C        2.920    -0.033    28.828     8.805
     8   6 C        2.921    -0.050    29.250     8.869
     9   6 C        2.941     0.055    26.762     8.484
    10   7 N        2.761    -0.057    22.342     7.020
    11   6 C        2.927     0.059    26.673     8.470
    12   6 C        2.920    -0.046    29.138     8.852
    13   6 C        2.919    -0.038    28.944     8.822
    14   6 C        2.989     0.006    27.889     8.663
    15   6 C        2.931    -0.026    28.641     8.777
    16   6 C        2.968     0.012    27.746     8.640
    17   6 C        1.911     0.110    28.388     8.605
    18   7 N        0.911    -0.245    26.376     7.428
    19   6 C        2.921    -0.027    28.687     8.783
    20   6 C        2.917    -0.040    28.997     8.830
    21   6 C        2.980     0.011    27.773     8.645
    22   6 C        2.969    -0.022    28.546     8.764
    23   6 C        3.905     0.023    20.125     6.377
    24   6 C        3.757    -0.110    22.651     6.786
    25   6 C        3.762    -0.100    22.449     6.754
    26   6 C        2.984    -0.013    28.335     8.732
    27   6 C        2.927    -0.042    29.042     8.838
    28   6 C        2.917    -0.043    29.073     8.842
    29   6 C        2.923    -0.042    29.052     8.839
    30   6 C        2.987    -0.013    28.322     8.730
    31   6 C        2.955     0.048    26.916     8.509
    32   1 H        0.925     0.040     2.443     2.444
    33   1 H        0.925     0.038     2.476     2.461
    34   1 H        0.925     0.040     2.451     2.448
    35   1 H        0.925     0.038     2.477     2.461
    36   1 H        0.925     0.035     2.510     2.477
    37   1 H        0.925     0.038     2.479     2.462
    38   1 H        0.926     0.038     2.477     2.461
    39   1 H        0.926     0.031     2.578     2.511
    40   1 H        0.926     0.032     2.565     2.504
    41   1 H        0.926     0.031     2.570     2.507
    42   1 H        0.926     0.039     2.457     2.451
    43   1 H        0.926     0.037     2.492     2.469
    44   1 H        0.926     0.038     2.477     2.461
    45   1 H        0.926     0.035     2.515     2.480
    46   1 H        0.926     0.050     2.324     2.384
    47   1 H        0.925     0.042     2.418     2.432
    48   1 H        0.925     0.041     2.439     2.442
    49   1 H        0.925     0.038     2.479     2.462
    50   1 H        0.925     0.041     2.436     2.441
    51   1 H        0.925     0.040     2.448     2.447
    52   1 H        0.925     0.032     2.557     2.501
    53   1 H        0.926     0.035     2.516     2.481
    54   1 H        0.926     0.029     2.595     2.519
    55   1 H        0.926     0.037     2.493     2.469

molecular dipole:
                 x           y           z       tot (Debye)
 q only:       -1.945       0.568       0.095
   full:       -2.329       0.641       0.177       6.156

 projected vibrational frequencies (cm⁻¹)
eigval :       -0.00    -0.00    -0.00     0.00     0.00     0.00
eigval :       28.97    42.50    57.18    70.56    92.51   101.89
eigval :      115.25   126.83   139.96   146.46   169.99   173.46
eigval :      177.79   199.16   204.40   211.92   239.86   272.01
eigval :      279.17   282.21   291.28   304.44   316.80   333.27
eigval :      346.35   356.36   371.37   382.73   399.27   406.19
eigval :      422.16   433.52   454.13   463.03   468.22   486.35
eigval :      502.37   508.21   527.05   529.00   541.47   555.66
eigval :      565.25   591.04   599.99   609.77   614.16   630.60
eigval :      652.35   681.73   695.44   706.32   723.54   726.93
eigval :      737.49   777.79   788.24   803.39   818.12   833.19
eigval :      845.40   862.10   875.61   879.86   898.18   908.45
eigval :      914.64   921.87   922.71   931.07   932.35   933.37
eigval :      954.66   963.25   971.84   975.60   978.83  1009.45
eigval :     1031.91  1046.86  1091.80  1105.63  1114.21  1135.20
eigval :     1144.52  1148.45  1152.00  1161.07  1174.57  1182.64
eigval :     1186.47  1190.87  1203.32  1214.08  1227.24  1241.72
eigval :     1252.01  1255.11  1261.86  1273.39  1284.29  1313.56
eigval :     1322.13  1328.83  1332.54  1338.31  1373.50  1397.68
eigval :     1403.83  1406.73  1409.56  1414.49  1427.19  1443.09
eigval :     1448.03  1460.99  1469.33  1480.27  1484.17  1490.29
eigval :     1493.46  1495.29  1500.89  1507.23  1507.62  1523.86
eigval :     1525.56  1543.89  1579.33  1585.18  1589.90  1594.68
eigval :     1597.73  1607.31  2368.45  3019.82  3026.06  3027.67
eigval :     3028.24  3032.02  3033.65  3034.72  3035.73  3044.38
eigval :     3047.18  3056.09  3058.06  3077.57  3079.70  3082.30
eigval :     3083.02  3086.39  3086.70  3094.73  3096.02  3096.29
eigval :     3113.49  3116.46  3146.63

   temp. (K)  partition function   enthalpy   heat capacity  entropy
                                   cal/mol     cal/K/mol   cal/K/mol   J/K/mol
 298.15  VIB  0.514E+09            14373.925     97.794     84.773
         ROT  0.174E+08              888.752      2.981     36.111
         INT  0.893E+16            15262.678    100.775    120.884
         TR   0.776E+28             1481.254      4.968     43.834
         TOT                       16743.9315   105.7435   164.7182   689.1808

       T/K    H(0)-H(T)+PV         H(T)/Eh          T*S/Eh         G(T)/Eh
   ------------------------------------------------------------------------
    298.15    0.266832E-01    0.466855E+00    0.782629E-01    0.388592E+00
   ------------------------------------------------------------------------

         :::::::::::::::::::::::::::::::::::::::::::::::::::::
         ::                  THERMODYNAMIC                  ::
         :::::::::::::::::::::::::::::::::::::::::::::::::::::
         :: total free energy         -79.821488499429 Eh   ::
         ::.................................................::
         :: total energy              -80.210080220182 Eh   ::
         :: zero point energy           0.440171484326 Eh   ::
         :: G(RRHO) w/o ZPVE           -0.051579763573 Eh   ::
         :: G(RRHO) contrib.            0.388591720753 Eh   ::
         :::::::::::::::::::::::::::::::::::::::::::::::::::::

           -------------------------------------------------
          | TOTAL ENERGY              -80.210080220182 Eh   |
          | TOTAL ENTHALPY            -79.743225582603 Eh   |
          | TOTAL FREE ENERGY         -79.821488499429 Eh   |
          | GRADIENT NORM               0.000063320760 Eh/α |
          | HOMO-LUMO GAP               2.069560778140 eV   |
           -------------------------------------------------

 * finished run on 2025/07/18 at 07:50:20.686
