   * xtb version 6.7.1 (edcfbbe) compiled by 'albert@albert-system' on 2024-07-22

   ID    Z sym.   atoms
    1    6 C      1-9, 11-17, 19-31
    2    7 N      10, 18
    3    1 H      32-55

          program call               : xtb data2507/gas/BCN/BCN_gas_T1_crest.xyz --gfn 2 --spinpol --tblite --uhf 2 --ohess vtight --parallel 40 --molden --ceasefiles --namespace data2507/gas/BCN/BCN_gas_T1_finalOpt
 * total energy  :   -80.1294121 Eh     change       -0.2414869E-07 Eh
 * total energy  :   -80.1294451 Eh     change       -0.3302503E-04 Eh
 * total energy  :   -80.1294626 Eh     change       -0.1743721E-04 Eh
 * total energy  :   -80.1294646 Eh     change       -0.2044781E-05 Eh
 * total energy  :   -80.1294651 Eh     change       -0.4587105E-06 Eh
 * total energy  :   -80.1294656 Eh     change       -0.5283349E-06 Eh
 * total energy  :   -80.1294660 Eh     change       -0.3633057E-06 Eh
 * total energy  :   -80.1294664 Eh     change       -0.4217758E-06 Eh
 * total energy  :   -80.1294667 Eh     change       -0.2660718E-06 Eh
 * total energy  :   -80.1294669 Eh     change       -0.2605100E-06 Eh
 * total energy  :   -80.1294669 Eh     change       -0.1316535E-07 Eh
 * total energy  :   -80.1294670 Eh     change       -0.8932392E-07 Eh
   *** GEOMETRY OPTIMIZATION CONVERGED AFTER 12 ITERATIONS ***

 final structure:
================
55
 xtb: 6.7.1 (edcfbbe)
C           -3.37903982876294       -0.36460198168243        2.27445943479082
C           -3.79557353861928       -0.09753569670108        0.81096312740803
C           -5.31081115325685        0.09796149785742        0.77313080318909
C           -3.33520474236149       -1.26987508175827       -0.02820225756138
C           -4.17035676150347       -2.27872812646282       -0.47924130432537
C           -3.67462571081496       -3.34862783416073       -1.20588253678861
C           -2.32386557567110       -3.41400419017860       -1.50952857329024
C           -1.47364759850054       -2.41884971415774       -1.07835379167873
C           -1.96625097262069       -1.35317391130610       -0.32240207509262
N           -1.12473879897580       -0.30789003782543        0.05502680564367
C            0.22198242516539       -0.50141306471753        0.28497415461939
C            0.65604874783491       -1.69451335589084        0.84565500582012
C            1.99578755006072       -1.94168318216517        1.01270993152859
C            2.97054210046657       -1.02158010779600        0.52311552080012
C            4.31485265144387       -1.31775844447820        0.63284264503172
C            5.31265512878014       -0.41970522731846        0.14152406082882
C            6.66820078760624       -0.73296942065477        0.26082449277537
N            7.78801293326015       -0.98993339342223        0.36019706709632
C            4.90018462511359        0.75659791668233       -0.47070148136976
C            3.55940564707599        1.06699329791906       -0.58012265477562
C            2.53272695812177        0.21667960535002       -0.06173637494837
C            1.16879298683901        0.53842084683231       -0.07225295980026
C            0.63594390376433        1.88788243651270       -0.50208831694032
C            0.75960448099157        2.01158904311368       -2.04006410351079
C            1.38008136553081        3.02362013726975        0.24384392120432
C           -0.84260462143354        2.05803832774210       -0.21660936638666
C           -1.43177051551113        3.31269278279032       -0.30119149480220
C           -2.78708496645224        3.47526817691424       -0.09382245574434
C           -3.58250994100069        2.38819556505328        0.23897916429442
C           -3.03593863590154        1.12371275555017        0.33263622229229
C           -1.66623088917020        0.96639699132094        0.06030591406798
H           -3.65865256686642        0.48031135596974        2.90005369075300
H           -2.30505090499303       -0.51255972962027        2.35822905949501
H           -3.87931100311685       -1.25690983454003        2.64466472756959
H           -5.59763691774142        0.93119826676886        1.40905374368437
H           -5.65396714010774        0.28955391945219       -0.24107436533664
H           -5.81373779088948       -0.78528046227952        1.15782550754249
H           -5.22609220406431       -2.24369257783503       -0.26628561420888
H           -4.34442756807494       -4.12585645026215       -1.54023227203371
H           -1.93508610939652       -4.23461033434162       -2.09267542717621
H           -0.42655559293783       -2.44524087620875       -1.33883772656641
H           -0.07539324478640       -2.42236058842131        1.16646977133449
H            2.33187385102891       -2.84817965248892        1.48995719908731
H            4.62735910802359       -2.24014318509307        1.09834257752587
H            5.63954901559767        1.43410244599766       -0.87447039878011
H            3.30695414085028        1.97539296019350       -1.09752452621507
H            0.13611031841851        1.25457439038307       -2.51418509326172
H            0.41500568120921        2.98984862877798       -2.36736407951598
H            1.77923819236230        1.86446439388246       -2.37944357390868
H            1.54971027231860        3.87618921911883       -0.40892418807635
H            0.78843938488766        3.35343303592494        1.09563508002471
H            2.33715799172517        2.68922742705515        0.62914817669929
H           -0.82894561060729        4.17439483736954       -0.53934324459801
H           -3.22941992739145        4.45644993790818       -0.17419626414671
H           -4.63043647524689        2.54944489055666        0.42894631023263

 projected vibrational frequencies (cm⁻¹)
eigval :       -0.00    -0.00     0.00     0.00     0.00     0.00
eigval :       25.03    36.69    54.13    67.63    86.11    93.65
eigval :      111.71   119.71   135.55   147.29   164.21   169.61
eigval :      172.91   195.91   202.98   206.08   239.31   267.73
eigval :      272.33   277.90   286.43   299.73   314.53   332.72
eigval :      337.20   347.98   362.98   368.71   381.48   397.27
eigval :      406.13   424.86   442.88   450.24   466.18   482.53
eigval :      497.26   502.82   506.17   520.62   529.93   552.44
eigval :      556.64   561.90   588.61   600.01   608.31   616.81
eigval :      630.40   676.68   690.72   697.30   702.14   719.81
eigval :      725.14   750.83   774.97   782.75   788.23   796.63
eigval :      800.62   824.64   861.70   874.62   890.30   893.16
eigval :      894.94   909.05   913.87   918.83   926.25   927.56
eigval :      940.50   951.45   963.01   972.51   978.40  1008.33
eigval :     1021.96  1039.94  1083.05  1097.07  1106.83  1122.10
eigval :     1127.15  1132.17  1140.89  1145.09  1154.11  1176.92
eigval :     1178.51  1186.66  1190.77  1199.48  1211.33  1225.39
eigval :     1249.43  1254.09  1267.97  1272.38  1278.70  1283.59
eigval :     1304.67  1314.37  1328.57  1333.09  1341.13  1368.32
eigval :     1395.35  1398.02  1402.14  1412.18  1414.09  1415.13
eigval :     1424.51  1433.66  1434.77  1460.89  1466.54  1470.46
eigval :     1484.68  1490.16  1492.43  1494.76  1497.51  1500.84
eigval :     1504.17  1510.35  1515.77  1525.36  1559.63  1564.42
eigval :     1573.89  1585.19  2290.29  3018.74  3027.89  3029.62
eigval :     3030.61  3031.92  3035.51  3035.80  3036.43  3043.30
eigval :     3051.85  3067.51  3069.15  3073.05  3074.76  3087.10
eigval :     3089.03  3090.39  3093.78  3101.69  3102.46  3107.70
eigval :     3116.58  3119.74  3134.62

   temp. (K)  partition function   enthalpy   heat capacity  entropy
                                   cal/mol     cal/K/mol   cal/K/mol   J/K/mol
 298.15  VIB  0.125E+10            14699.742     99.214     86.972
         ROT  0.174E+08              888.752      2.981     36.116
         INT  0.218E+17            15588.494    102.195    123.088
         TR   0.776E+28             1481.254      4.968     43.834
         TOT                       17069.7480   107.1629   166.9218   698.4008

       T/K    H(0)-H(T)+PV         H(T)/Eh          T*S/Eh         G(T)/Eh
   ------------------------------------------------------------------------
    298.15    0.272024E-01    0.463465E+00    0.793099E-01    0.384156E+00
   ------------------------------------------------------------------------

         :::::::::::::::::::::::::::::::::::::::::::::::::::::
         ::                  THERMODYNAMIC                  ::
         :::::::::::::::::::::::::::::::::::::::::::::::::::::
         :: total free energy         -79.745311502183 Eh   ::
         ::.................................................::
         :: total energy              -80.129467027914 Eh   ::
         :: zero point energy           0.436263079946 Eh   ::
         :: G(RRHO) w/o ZPVE           -0.052107554216 Eh   ::
         :: G(RRHO) contrib.            0.384155525731 Eh   ::
         :::::::::::::::::::::::::::::::::::::::::::::::::::::

           -------------------------------------------------
          | TOTAL ENERGY              -80.129467027914 Eh   |
          | TOTAL ENTHALPY            -79.666001573014 Eh   |
          | TOTAL FREE ENERGY         -79.745311502183 Eh   |
          | GRADIENT NORM               0.000086927382 Eh/α |
           -------------------------------------------------

 * finished run on 2025/07/18 at 07:54:09.002
