   * xtb version 6.7.1 (edcfbbe) compiled by 'albert@albert-system' on 2024-07-22

   ID    Z sym.   atoms
    1    6 C      1-9, 11-17, 19-31
    2    7 N      10, 18
    3    1 H      32-55

          program call               : xtb data2507/gas/BCN/BCN_gas_S0_finalOpt.xtbopt.xyz --gfn 2 --spinpol --tblite --uhf 2 --ohess vtight --parallel 40 --molden --ceasefiles --namespace data2507/gas/BCN/BCN_gas_T1_preOpt
 * total energy  :   -80.1218994 Eh     change        0.1702929E-08 Eh
 * total energy  :   -80.1277665 Eh     change       -0.5867133E-02 Eh
 * total energy  :   -80.1290948 Eh     change       -0.1328274E-02 Eh
 * total energy  :   -80.1288365 Eh     change        0.2583120E-03 Eh
 * total energy  :   -80.1292392 Eh     change       -0.4026996E-03 Eh
 * total energy  :   -80.1292610 Eh     change       -0.2186199E-04 Eh
 * total energy  :   -80.1292925 Eh     change       -0.3149333E-04 Eh
 * total energy  :   -80.1293072 Eh     change       -0.1470334E-04 Eh
 * total energy  :   -80.1293572 Eh     change       -0.5001670E-04 Eh
 * total energy  :   -80.1293762 Eh     change       -0.1898700E-04 Eh
 * total energy  :   -80.1294564 Eh     change       -0.3944318E-05 Eh
 * total energy  :   -80.1294611 Eh     change       -0.4742825E-05 Eh
 * total energy  :   -80.1294629 Eh     change       -0.1837972E-05 Eh
 * total energy  :   -80.1294646 Eh     change       -0.1668943E-05 Eh
 * total energy  :   -80.1294658 Eh     change       -0.1222529E-05 Eh
 * total energy  :   -80.1294664 Eh     change       -0.5495779E-06 Eh
 * total energy  :   -80.1294666 Eh     change       -0.1976697E-06 Eh
 * total energy  :   -80.1294668 Eh     change       -0.2588665E-06 Eh
 * total energy  :   -80.1294669 Eh     change       -0.7066001E-07 Eh
   *** GEOMETRY OPTIMIZATION CONVERGED AFTER 24 ITERATIONS ***

 final structure:
================
55
 xtb: 6.7.1 (edcfbbe)
C           -3.37385810689403       -0.37220973386465        2.28244037297522
C           -3.79084854138890       -0.10001131236169        0.82003506464441
C           -5.30617706941030        0.09523933753516        0.78320476582138
C           -3.33075371006254       -1.26935194354859       -0.02350054445781
C           -4.16578217422735       -2.27768701501752       -0.47602109891635
C           -3.67060075968093       -3.34462614522829       -1.20735378684153
C           -2.32049863899890       -3.40749027610261       -1.51449462669663
C           -1.47037939092761       -2.41307488451856       -1.08154833543742
C           -1.96233043694875       -1.35066809085655       -0.32052875464400
N           -1.12057627245211       -0.30655855152436        0.05939560265122
C            0.22654149374317       -0.50077556115144        0.28630688246822
C            0.66174978631227       -1.69621262577576        0.84111330837625
C            2.00185310317469       -1.94426836849247        1.00391761362952
C            2.97553404165978       -1.02214544507999        0.51594091385697
C            4.32007530611897       -1.31891194977341        0.62110926721764
C            5.31686627334656       -0.41845675824687        0.13211015239183
C            6.67262550180265       -0.73228719664346        0.24751859026823
N            7.79241157751799       -0.98991991830859        0.34554141622013
C            4.90318903628414        0.76060924948359       -0.47387666372718
C            3.56210317516670        1.07122875765980       -0.57934134126690
C            2.53652987397115        0.21868047271186       -0.06248848313843
C            1.17258006314540        0.54050752526823       -0.06865607658203
C            0.63862752258296        1.89168475092302       -0.49178680025801
C            0.75901941901500        2.02168820714277       -2.02949196807362
C            1.38425189346350        3.02440426725160        0.25718391639371
C           -0.83937682059078        2.06044803081651       -0.20259708025563
C           -1.42879622874395        3.31538024263337       -0.28068923879370
C           -2.78381108357453        3.47682766578818       -0.07045161528572
C           -3.57857716164480        2.38817175322499        0.25867728266630
C           -3.03178508254286        1.12329901349359        0.34594593817969
C           -1.66243381695033        0.96747176424486        0.07098284626460
H           -3.65387670974212        0.47021196640592        2.91121914846850
H           -2.29974785432780       -0.51979435300076        2.36539588746265
H           -3.87350586132023       -1.26618648250322        2.64945789833770
H           -5.59315810886156        0.92638168903319        1.42177306323247
H           -5.64952970206115        0.28990065368826       -0.23035246519369
H           -5.80885602302495       -0.78929677452268        1.16522798369014
H           -5.22107020680017       -2.24461235170377       -0.26055246867410
H           -4.34035910162314       -4.12144557489987       -1.54273363685822
H           -1.93223922132691       -4.22552917648374       -2.10158304519019
H           -0.42381411479642       -2.43740845583065       -1.34433673812944
H           -0.06904516691476       -2.42528187486165        1.16058629612908
H            2.33891439033605       -2.85285587010330        1.47647711874212
H            4.63344924429206       -2.24361953888467        1.08143011339411
H            5.64167992374525        1.44007613086718       -0.87589010253766
H            3.30850303579648        1.98179936179591       -1.09235826298461
H            1.77808985723640        1.87685415996352       -2.37154906976436
H            0.13523210814160        1.26602045294603       -2.50536963286243
H            0.41287532569704        3.00094501768000       -2.35216295206731
H            0.79445402223637        3.35058521804369        1.11169510483096
H            2.34214649713631        2.68848425016908        0.63896112993145
H            1.55234151582422        3.87973384609341       -0.39238076602196
H           -0.82650727750930        4.17822675484297       -0.51604360751286
H           -3.22644526659129        4.45827737073336       -0.14579582366857
H           -4.62623476569469        2.54855209112057        0.45084773700394

 projected vibrational frequencies (cm⁻¹)
eigval :       -0.00    -0.00    -0.00     0.00     0.00     0.00
eigval :       25.07    36.46    54.09    67.79    86.11    93.67
eigval :      111.71   119.55   135.46   147.22   164.41   169.48
eigval :      172.95   196.00   203.25   206.19   239.21   267.70
eigval :      272.38   277.84   286.29   299.74   314.58   332.64
eigval :      337.39   348.08   363.00   368.90   381.37   397.68
eigval :      406.32   425.05   442.99   450.37   467.14   482.60
eigval :      497.28   502.84   506.25   520.67   530.10   552.42
eigval :      556.70   562.02   588.60   600.21   608.38   617.01
eigval :      630.44   676.51   690.72   697.28   702.12   719.97
eigval :      725.09   750.89   774.97   782.83   788.22   796.68
eigval :      800.62   824.69   861.65   874.81   890.14   893.21
eigval :      894.96   909.07   913.90   918.87   926.32   927.49
eigval :      940.67   951.35   962.96   972.45   978.24  1008.40
eigval :     1021.95  1040.24  1083.01  1097.01  1106.81  1121.94
eigval :     1127.17  1132.11  1140.83  1145.04  1154.04  1177.03
eigval :     1178.53  1186.46  1191.06  1199.03  1211.50  1224.96
eigval :     1249.46  1254.10  1268.16  1272.72  1279.13  1283.78
eigval :     1304.84  1314.39  1328.57  1333.16  1341.10  1368.27
eigval :     1395.41  1398.09  1402.34  1412.37  1414.24  1415.40
eigval :     1424.56  1433.74  1434.82  1461.00  1466.75  1470.65
eigval :     1484.86  1490.29  1492.41  1494.82  1497.49  1500.70
eigval :     1504.23  1510.35  1515.49  1525.25  1559.59  1564.37
eigval :     1573.89  1585.16  2290.30  3018.66  3027.46  3029.53
eigval :     3030.42  3031.61  3035.31  3035.76  3036.22  3042.88
eigval :     3051.63  3067.29  3069.49  3073.22  3074.96  3087.17
eigval :     3089.09  3090.14  3093.87  3101.88  3102.46  3107.70
eigval :     3116.53  3119.78  3134.53

   temp. (K)  partition function   enthalpy   heat capacity  entropy
                                   cal/mol     cal/K/mol   cal/K/mol   J/K/mol
 298.15  VIB  0.125E+10            14698.014     99.202     86.959
         ROT  0.174E+08              888.752      2.981     36.116
         INT  0.218E+17            15586.766    102.183    123.075
         TR   0.776E+28             1481.254      4.968     43.834
         TOT                       17068.0202   107.1511   166.9096   698.3497

       T/K    H(0)-H(T)+PV         H(T)/Eh          T*S/Eh         G(T)/Eh
   ------------------------------------------------------------------------
    298.15    0.271996E-01    0.463472E+00    0.793041E-01    0.384167E+00
   ------------------------------------------------------------------------

         :::::::::::::::::::::::::::::::::::::::::::::::::::::
         ::                  THERMODYNAMIC                  ::
         :::::::::::::::::::::::::::::::::::::::::::::::::::::
         :: total free energy         -79.745299447351 Eh   ::
         ::.................................................::
         :: total energy              -80.129466905250 Eh   ::
         :: zero point energy           0.436271969945 Eh   ::
         :: G(RRHO) w/o ZPVE           -0.052104512046 Eh   ::
         :: G(RRHO) contrib.            0.384167457899 Eh   ::
         :::::::::::::::::::::::::::::::::::::::::::::::::::::

           -------------------------------------------------
          | TOTAL ENERGY              -80.129466905250 Eh   |
          | TOTAL ENTHALPY            -79.665995313822 Eh   |
          | TOTAL FREE ENERGY         -79.745299447351 Eh   |
          | GRADIENT NORM               0.000151359171 Eh/α |
           -------------------------------------------------

 * finished run on 2025/07/18 at 07:52:14.538
