   * xtb version 6.7.1 (edcfbbe) compiled by 'albert@albert-system' on 2024-07-22

   ID    Z sym.   atoms
    1    6 C      1-8, 10-23, 25-36, 38
    2    7 N      9, 24, 37
    3    1 H      39-61

          program call               : xtb data2507/gas/2CzPy/2CzPy.xyz --gfn 2 --ohess vtight --parallel 40 --molden --ceasefiles --namespace data2507/gas/2CzPy/2CzPy_gas_S0_preOpt
          :  Hamiltonian                  GFN2-xTB          :
 * total energy  :   -95.4922957 Eh     change       -0.4884924E-08 Eh
 * total energy  :   -95.5052633 Eh     change       -0.1296757E-01 Eh
 * total energy  :   -95.5080266 Eh     change       -0.2763320E-02 Eh
 * total energy  :   -95.5085923 Eh     change       -0.5657540E-03 Eh
 * total energy  :   -95.5090800 Eh     change       -0.4876212E-03 Eh
 * total energy  :   -95.5093116 Eh     change       -0.2316058E-03 Eh
 * total energy  :   -95.5095494 Eh     change       -0.2378719E-03 Eh
 * total energy  :   -95.5097612 Eh     change       -0.2117533E-03 Eh
 * total energy  :   -95.5099271 Eh     change       -0.1659625E-03 Eh
 * total energy  :   -95.5100508 Eh     change       -0.1236455E-03 Eh
 * total energy  :   -95.5107386 Eh     change       -0.1555394E-05 Eh
 * total energy  :   -95.5107394 Eh     change       -0.8037392E-06 Eh
 * total energy  :   -95.5107399 Eh     change       -0.5188281E-06 Eh
 * total energy  :   -95.5107403 Eh     change       -0.3761589E-06 Eh
 * total energy  :   -95.5107406 Eh     change       -0.2614655E-06 Eh
 * total energy  :   -95.5107407 Eh     change       -0.1226463E-06 Eh
 * total energy  :   -95.5107409 Eh     change       -0.1769734E-06 Eh
 * total energy  :   -95.5107412 Eh     change       -0.2994138E-06 Eh
 * total energy  :   -95.5107412 Eh     change       -0.5138759E-08 Eh
   *** GEOMETRY OPTIMIZATION CONVERGED AFTER 44 ITERATIONS ***

 final structure:
================
61
 xtb: 6.7.1 (edcfbbe)
C           -4.93426263045271       -2.98866999870997        0.05765389277116
C           -4.17044180248077       -3.49179385252581       -0.98362962203133
C           -2.85468449042741       -3.08330996819739       -1.10753900758991
C           -2.34752057224385       -2.17125556089734       -0.18217032864152
C           -0.96386550471263       -1.67449111431271       -0.27216032987261
C            0.08436759225345       -2.54423392281328       -0.55462592716674
C            1.39316879436117       -2.10651006426929       -0.58157034287062
C            1.68485431048738       -0.77027390994300       -0.31645339576965
N            3.00860146354513       -0.32032291648666       -0.32954643243265
C            4.07056058707927       -0.92042452257258        0.32092893303946
C            4.08257358799942       -2.02236386388644        1.16371219423679
C            5.29291740634550       -2.40184318193322        1.71208245143250
C            6.46610175051488       -1.70138403018136        1.44138759851396
C            6.45533488967468       -0.58784544116825        0.62543831837398
C            5.25082937119319       -0.18712306046268        0.06270811432813
C            4.87505158832453        0.90498073582348       -0.79136132385731
C            5.58678024597990        1.93758975796376       -1.38737552995762
C            4.90778424267995        2.83013846209183       -2.19236870259490
C            3.54034034980513        2.69246612923038       -2.41870678187437
C            2.81085151362194        1.67311565778929       -1.83686573609722
C            3.48279708623192        0.78841881545124       -1.00591362591611
C            0.64704195922112        0.11603409209458       -0.04939297131921
C           -0.66950957613668       -0.32345456724287       -0.03343659405398
N           -1.69401837845055        0.59898967134991        0.20969140749053
C           -1.83604774218667        1.35813651786904        1.35316082469328
C           -0.99253170849846        1.47098221691094        2.44773221820576
C           -1.38279033242230        2.30484487280944        3.47826095633208
C           -2.58472630022708        3.00737359851123        3.42989634559026
C           -3.43641782953351        2.88453123648226        2.35018612810881
C           -3.06580423586864        2.05282281857924        1.30188919677660
C           -3.69264566109940        1.68249282075173        0.06382961781007
C           -4.89125067448489        2.02904385756765       -0.54505917610868
C           -5.19034219245148        1.48268786731656       -1.77731844529053
C           -4.30170178562720        0.61862473694170       -2.41307611852302
C           -3.10099512796549        0.26329105019595       -1.82966327342878
C           -2.81224799936271        0.78083290015493       -0.57549949971169
N           -3.08227614183417       -1.70150542764441        0.82218384627555
C           -4.33298862495747       -2.09862437355534        0.93501504149508
H           -5.96579621284410       -3.27709784730211        0.18453000784068
H           -4.59575207292356       -4.18831049479558       -1.69223788160213
H           -2.23712792554408       -3.44049351444158       -1.91786471114718
H           -0.13015962923824       -3.58767864764035       -0.73276087546059
H            2.19336324542707       -2.79152864182956       -0.81600845901012
H            3.17616032008913       -2.56071293572672        1.39636079626527
H            5.32878127721867       -3.25876710855556        2.36851756098205
H            7.39261000828806       -2.03187190432002        1.88673949561354
H            7.36094620660721       -0.03384928901007        0.42970503846582
H            6.64976812348173        2.03308400389908       -1.22518415843043
H            5.44151560698191        3.64222161725726       -2.66313325449396
H            3.03846160145446        3.39608822515302       -3.06635154429048
H            1.75530335347783        1.56613779907460       -2.03626106769088
H            0.86224552959443        1.15442933150711        0.15300879794244
H           -0.06664400435160        0.91818141582441        2.50098661442873
H           -0.74306360076862        2.41232116350004        4.34198757339691
H           -2.85328521270010        3.65064674019094        4.25485372438383
H           -4.37381865589454        3.41952159545114        2.31900672803271
H           -5.57280141497566        2.71304777535909       -0.06191481709911
H           -6.12088842299829        1.73371204706618       -2.26468260788385
H           -4.55506167402488        0.22096629109115       -3.38505080165504
H           -2.41055127362170       -0.39464667377395       -2.33669975088243
H           -4.87709360062667       -1.67736498705959        1.77043067192955

          :  Hamiltonian                  GFN2-xTB          :
         :: gradient norm              0.000048309890 Eh/a0 ::
         :: HOMO-LUMO gap              2.481619486526 eV    ::
         :: SCC energy               -97.305420216622 Eh    ::
         :: -> dispersion             -0.088785236027 Eh    ::
         :: repulsion energy           1.794679048615 Eh    ::

    * Orbital Energies and Occupations

         #    Occupation            Energy/Eh            Energy/eV
      -------------------------------------------------------------
         1        2.0000           -0.6781119             -18.4524
       ...           ...                  ...                  ...
        77        2.0000           -0.4191691             -11.4062
        78        2.0000           -0.4173345             -11.3562
        79        2.0000           -0.4168802             -11.3439
        80        2.0000           -0.4144374             -11.2774
        81        2.0000           -0.4129158             -11.2360
        82        2.0000           -0.4055303             -11.0350
        83        2.0000           -0.4036253             -10.9832
        84        2.0000           -0.3991498             -10.8614
        85        2.0000           -0.3789432             -10.3116
        86        2.0000           -0.3731970             -10.1552
        87        2.0000           -0.3708825             -10.0922
        88        2.0000           -0.3640157              -9.9054
        89        2.0000           -0.3576909              -9.7333 (HOMO)
        90                         -0.2664930              -7.2516 (LUMO)
        91                         -0.2470745              -6.7232
        92                         -0.2445681              -6.6550
        93                         -0.2435447              -6.6272
        94                         -0.2373713              -6.4592
        95                         -0.2221605              -6.0453
        96                         -0.2199989              -5.9865
        97                         -0.2160290              -5.8784
        98                         -0.1918531              -5.2206
        99                         -0.1862210              -5.0673
       100                         -0.1857812              -5.0554
       ...                                ...                  ...
       175                          0.7528904              20.4872
      -------------------------------------------------------------
                  HL-Gap            0.0911978 Eh            2.4816 eV

     #   Z          covCN         q      C6AA      α(0)
     1   6 C        2.915    -0.040    28.996     8.830
     2   6 C        2.928    -0.011    28.292     8.723
     3   6 C        2.918    -0.043    29.077     8.843
     4   6 C        2.964     0.100    25.777     8.328
     5   6 C        2.980    -0.008    28.218     8.714
     6   6 C        2.923    -0.033    28.818     8.803
     7   6 C        2.920    -0.049    29.209     8.863
     8   6 C        2.912     0.067    26.509     8.443
     9   7 N        2.803    -0.042    22.052     6.974
    10   6 C        3.074     0.046    26.882     8.501
    11   6 C        2.910    -0.051    29.262     8.870
    12   6 C        2.924    -0.033    28.824     8.804
    13   6 C        2.920    -0.040    29.001     8.831
    14   6 C        2.913    -0.032    28.810     8.801
    15   6 C        3.067    -0.016    28.342     8.730
    16   6 C        3.068    -0.016    28.341     8.729
    17   6 C        2.913    -0.032    28.809     8.801
    18   6 C        2.920    -0.040    28.997     8.831
    19   6 C        2.924    -0.033    28.817     8.803
    20   6 C        2.910    -0.051    29.257     8.869
    21   6 C        3.073     0.046    26.884     8.501
    22   6 C        2.925    -0.058    29.434     8.897
    23   6 C        2.916     0.071    26.412     8.427
    24   7 N        2.805    -0.032    21.859     6.944
    25   6 C        3.079     0.052    26.754     8.480
    26   6 C        2.910    -0.048    29.196     8.860
    27   6 C        2.924    -0.033    28.815     8.803
    28   6 C        2.920    -0.041    29.017     8.834
    29   6 C        2.913    -0.032    28.806     8.801
    30   6 C        3.070    -0.014    28.295     8.722
    31   6 C        3.069    -0.015    28.309     8.724
    32   6 C        2.913    -0.033    28.828     8.804
    33   6 C        2.920    -0.042    29.053     8.839
    34   6 C        2.924    -0.035    28.872     8.812
    35   6 C        2.910    -0.050    29.252     8.869
    36   6 C        3.080     0.050    26.790     8.485
    37   7 N        1.844    -0.231    26.895     7.686
    38   6 C        2.906     0.064    26.572     8.452
    39   1 H        0.926     0.036     2.500     2.472
    40   1 H        0.926     0.035     2.513     2.479
    41   1 H        0.926     0.034     2.526     2.485
    42   1 H        0.926     0.042     2.421     2.433
    43   1 H        0.926     0.047     2.359     2.402
    44   1 H        0.926     0.028     2.616     2.529
    45   1 H        0.926     0.030     2.589     2.516
    46   1 H        0.926     0.029     2.602     2.523
    47   1 H        0.926     0.032     2.561     2.503
    48   1 H        0.926     0.032     2.560     2.502
    49   1 H        0.926     0.029     2.600     2.521
    50   1 H        0.926     0.030     2.583     2.513
    51   1 H        0.926     0.028     2.621     2.532
    52   1 H        0.926     0.054     2.270     2.356
    53   1 H        0.926     0.027     2.634     2.538
    54   1 H        0.926     0.029     2.601     2.522
    55   1 H        0.926     0.027     2.622     2.532
    56   1 H        0.926     0.030     2.582     2.513
    57   1 H        0.926     0.031     2.571     2.507
    58   1 H        0.926     0.027     2.631     2.536
    59   1 H        0.926     0.026     2.646     2.544
    60   1 H        0.926     0.018     2.767     2.601
    61   1 H        0.925     0.038     2.472     2.458

molecular dipole:
                 x           y           z       tot (Debye)
 q only:       -0.011      -0.520      -0.251
   full:       -0.244      -0.929      -0.521       2.778

 projected vibrational frequencies (cm⁻¹)
eigval :       -0.00    -0.00     0.00     0.00     0.00     0.00
eigval :       18.86    20.50    23.92    32.63    38.09    53.14
eigval :       74.60    78.15    94.85   100.12   109.84   138.12
eigval :      144.86   146.77   161.74   193.87   199.07   234.16
eigval :      236.16   249.38   272.15   273.52   297.21   305.11
eigval :      365.12   368.50   372.13   395.41   397.39   416.37
eigval :      424.36   427.13   432.41   437.09   456.66   475.94
eigval :      510.77   517.60   518.97   528.50   540.51   541.17
eigval :      542.21   548.93   582.63   588.33   593.11   610.57
eigval :      612.51   626.17   645.87   673.72   674.28   686.08
eigval :      693.75   707.72   709.20   714.49   724.42   754.92
eigval :      756.52   767.88   769.99   771.00   780.30   781.21
eigval :      786.41   839.09   867.05   870.76   872.25   875.00
eigval :      890.81   894.49   896.80   899.89   900.99   902.53
eigval :      903.40   909.07   910.05   916.16   919.51   920.66
eigval :      921.76   924.61   927.79   935.35   988.01  1007.67
eigval :     1012.06  1017.19  1047.93  1069.86  1071.09  1073.30
eigval :     1074.49  1094.52  1109.04  1119.88  1126.80  1151.88
eigval :     1152.14  1155.99  1166.49  1171.81  1178.26  1181.22
eigval :     1181.69  1183.55  1197.64  1231.26  1236.77  1237.66
eigval :     1239.57  1244.04  1250.75  1280.23  1293.66  1297.68
eigval :     1301.64  1303.72  1307.30  1312.15  1343.59  1357.37
eigval :     1359.92  1360.68  1364.14  1372.02  1407.38  1412.65
eigval :     1425.08  1427.82  1429.51  1440.97  1460.27  1476.14
eigval :     1477.11  1488.01  1488.93  1489.80  1548.57  1563.35
eigval :     1574.41  1575.72  1577.09  1587.26  1589.60  1591.87
eigval :     1599.36  1600.06  1614.79  1616.35  3056.45  3068.78
eigval :     3072.23  3074.57  3077.01  3077.59  3077.83  3079.89
eigval :     3082.05  3082.98  3083.44  3084.88  3087.15  3087.56
eigval :     3089.13  3090.76  3092.97  3094.78  3096.11  3097.68
eigval :     3098.45  3098.68  3101.22

   temp. (K)  partition function   enthalpy   heat capacity  entropy
                                   cal/mol     cal/K/mol   cal/K/mol   J/K/mol
 298.15  VIB  0.598E+12            16253.713    107.226     98.708
         ROT  0.336E+08              888.752      2.981     37.421
         INT  0.201E+20            17142.465    110.207    136.128
         TR   0.104E+29             1481.254      4.968     44.408
         TOT                       18623.7189   115.1750   180.5364   755.3644

       T/K    H(0)-H(T)+PV         H(T)/Eh          T*S/Eh         G(T)/Eh
   ------------------------------------------------------------------------
    298.15    0.296788E-01    0.497305E+00    0.857787E-01    0.411526E+00
   ------------------------------------------------------------------------

         :::::::::::::::::::::::::::::::::::::::::::::::::::::
         ::                  THERMODYNAMIC                  ::
         :::::::::::::::::::::::::::::::::::::::::::::::::::::
         :: total free energy         -95.099215269812 Eh   ::
         ::.................................................::
         :: total energy              -95.510741168006 Eh   ::
         :: zero point energy           0.467625792330 Eh   ::
         :: G(RRHO) w/o ZPVE           -0.056099894136 Eh   ::
         :: G(RRHO) contrib.            0.411525898194 Eh   ::
         :::::::::::::::::::::::::::::::::::::::::::::::::::::

           -------------------------------------------------
          | TOTAL ENERGY              -95.510741168006 Eh   |
          | TOTAL ENTHALPY            -95.013436590404 Eh   |
          | TOTAL FREE ENERGY         -95.099215269812 Eh   |
          | GRADIENT NORM               0.000048307664 Eh/α |
          | HOMO-LUMO GAP               2.481619430340 eV   |
           -------------------------------------------------

 * finished run on 2025/09/14 at 08:19:42.185
