   * xtb version 6.7.1 (edcfbbe) compiled by 'albert@albert-system' on 2024-07-22

   ID    Z sym.   atoms
    1    6 C      1-8, 10-23, 25-36, 38
    2    7 N      9, 24, 37
    3    1 H      39-61

          program call               : xtb data2507/gas/2CzPy/2CzPy_gas_S0_finalOpt.xtbopt.xyz --gfn 2 --spinpol --tblite --uhf 2 --ohess vtight --parallel 40 --molden --ceasefiles --namespace data2507/gas/2CzPy/2CzPy_gas_T1_preOpt
 * total energy  :   -95.4072460 Eh     change        0.3345534E-08 Eh
 * total energy  :   -95.4122230 Eh     change       -0.4977077E-02 Eh
 * total energy  :   -95.4150476 Eh     change       -0.2824610E-02 Eh
 * total energy  :   -95.4156273 Eh     change       -0.5796116E-03 Eh
 * total energy  :   -95.4167209 Eh     change       -0.1093673E-02 Eh
 * total energy  :   -95.4172008 Eh     change       -0.4799100E-03 Eh
 * total energy  :   -95.4176001 Eh     change       -0.3992835E-03 Eh
 * total energy  :   -95.4178582 Eh     change       -0.2581079E-03 Eh
 * total energy  :   -95.4180131 Eh     change       -0.1548597E-03 Eh
 * total energy  :   -95.4181451 Eh     change       -0.1320242E-03 Eh
 * total energy  :   -95.4191206 Eh     change       -0.2202465E-05 Eh
 * total energy  :   -95.4191222 Eh     change       -0.1626207E-05 Eh
 * total energy  :   -95.4191237 Eh     change       -0.1535974E-05 Eh
 * total energy  :   -95.4191253 Eh     change       -0.1547589E-05 Eh
 * total energy  :   -95.4191265 Eh     change       -0.1237200E-05 Eh
 * total energy  :   -95.4191274 Eh     change       -0.8674178E-06 Eh
 * total energy  :   -95.4191281 Eh     change       -0.7193295E-06 Eh
 * total energy  :   -95.4191288 Eh     change       -0.7228805E-06 Eh
 * total energy  :   -95.4191289 Eh     change       -0.1214281E-07 Eh
   *** GEOMETRY OPTIMIZATION CONVERGED AFTER 44 ITERATIONS ***

 final structure:
================
61
 xtb: 6.7.1 (edcfbbe)
C           -4.75245875212852        3.70344946641644        0.36161792770263
C           -4.61021419310318        2.41360609127089        0.90570845325575
C           -3.43438045440556        1.73781680713488        0.76729712812306
C           -2.34215611388005        2.32037372178649        0.05174954107158
C           -1.07950101007058        1.73150415595505       -0.13766228401116
C            0.02468032387501        2.58007535391406       -0.46611792528730
C            1.30729196992025        2.14290272924203       -0.46489724679642
C            1.60017965380079        0.78177976206688       -0.17570208740937
N            2.91756533011364        0.33191139416797       -0.20140091306976
C            3.39357612923082       -0.77199875137562       -0.88028505196243
C            2.72197036282308       -1.65642941612890       -1.71422274246647
C            3.45118015004773       -2.67505260022287       -2.29794048384564
C            4.81879727560403       -2.81297652519304       -2.07051203220749
C            5.50012742987477       -1.91776452553464       -1.26680019195919
C            4.79029313979250       -0.88555264338226       -0.67199591690901
C            5.16705185782928        0.21521830889714        0.17120297382669
C            6.37026225562996        0.62948910431261        0.72240080869192
C            6.37649197213021        1.75088485948003        1.53134809743150
C            5.19971149121620        2.44476627824592        1.80615068060419
C            3.98846296537309        2.05058757606449        1.26994342657379
C            3.98027335486921        0.94191230791932        0.43360409208129
C            0.53782997244432       -0.10342002451713        0.02739992035073
C           -0.76869695506334        0.32639945924325        0.02295326295380
N           -1.78982960455771       -0.62220478519880        0.15195333951056
C           -2.83434896145647       -0.79914822414891       -0.73531226322937
C           -3.12732638152747       -0.10250420090523       -1.89883444508379
C           -4.24064249994843       -0.49380477921806       -2.61744484913678
C           -5.03903988398927       -1.55681752530185       -2.20080290743891
C           -4.73785588520092       -2.26808800520317       -1.05472847568520
C           -3.62634827934991       -1.89259141497237       -0.31437363564560
C           -3.01853782732956       -2.39788645884427        0.88650847844082
C           -3.33415851567220       -3.42891922838114        1.75914887467609
C           -2.52623428813038       -3.63372266432379        2.86207046874175
C           -1.42423481552498       -2.81693752955935        3.10732522570148
C           -1.08891731098072       -1.78397789160703        2.25313873681652
C           -1.88358972364467       -1.58744963046851        1.13149316731802
N           -2.51917601692179        3.59126327900934       -0.42634291345983
C           -3.63925639841219        4.23747778529847       -0.27274265674307
H           -5.67901170034737        4.24869731043890        0.41877746370021
H           -5.42784884827960        1.97407110473654        1.45905120119456
H           -3.28229298017099        0.80473737557877        1.28469458037278
H           -0.21829293444674        3.60606704483246       -0.70009437218749
H            2.11963835898697        2.80183877544674       -0.73236904674801
H            1.66863726362302       -1.54383718149245       -1.91941657271765
H            2.95051321194173       -3.37552937437757       -2.94957517809695
H            5.35313794700248       -3.62424070942281       -2.54180613626648
H            6.56379103338492       -2.01272707804196       -1.10890320261899
H            7.27999085945612        0.08248759521177        0.52607720305743
H            7.30366650880774        2.09090734343441        1.96790387615573
H            5.23412620264426        3.30567720556090        2.45700272188682
H            3.07794349206954        2.58057463786446        1.50390796201122
H            0.74552634444908       -1.15204795886323        0.18423901101973
H           -2.50946202231709        0.71788173181499       -2.22898058068671
H           -4.49602332276742        0.03453824107859       -3.52384299156904
H           -5.90206063571254       -1.83086791167228       -2.78916924002440
H           -5.34981138301121       -3.10023153431409       -0.74064745369038
H           -4.19660673596434       -4.05298785302128        1.58005860322127
H           -2.75436545637038       -4.43234371542390        3.55204351215808
H           -0.82152742298356       -2.99255886165397        3.98595949322910
H           -0.24477388479742       -1.14291194428610        2.45754452779057
H           -3.67379037054870        5.22537835609759       -0.71667089110365

 projected vibrational frequencies (cm⁻¹)
eigval :       -0.00    -0.00     0.00     0.00     0.00     0.00
eigval :       17.30    22.39    24.86    31.30    39.26    61.12
eigval :       75.04    79.32    97.93   106.69   115.96   136.91
eigval :      139.70   149.41   155.15   183.64   190.00   231.00
eigval :      240.70   252.53   271.25   271.94   293.01   300.11
eigval :      350.05   366.13   384.79   389.65   393.77   398.44
eigval :      416.21   421.60   426.93   435.58   441.68   447.74
eigval :      486.37   496.29   515.94   516.69   536.55   538.05
eigval :      541.51   544.41   566.93   581.78   584.39   594.32
eigval :      600.40   610.62   617.52   625.42   656.18   672.36
eigval :      672.79   680.44   698.66   706.74   708.15   708.65
eigval :      751.50   754.91   767.60   768.07   775.56   777.56
eigval :      777.90   798.40   807.88   863.01   868.10   869.00
eigval :      870.88   871.65   887.01   889.84   892.72   894.49
eigval :      897.73   898.51   901.97   903.26   906.31   907.76
eigval :      909.07   920.06   920.59   921.29   923.44   979.94
eigval :      997.32  1009.65  1013.07  1066.83  1067.96  1068.45
eigval :     1070.82  1071.84  1089.84  1104.12  1114.05  1132.54
eigval :     1145.52  1145.98  1150.56  1164.70  1174.13  1178.69
eigval :     1179.34  1180.40  1186.96  1190.54  1216.79  1230.11
eigval :     1231.93  1232.67  1239.14  1280.93  1286.81  1290.48
eigval :     1292.85  1293.97  1311.34  1317.30  1333.41  1346.27
eigval :     1348.75  1351.23  1357.56  1362.71  1364.04  1367.47
eigval :     1399.91  1414.66  1417.68  1423.33  1442.29  1447.49
eigval :     1460.76  1465.22  1465.98  1478.82  1484.13  1485.89
eigval :     1523.16  1565.12  1568.28  1575.09  1576.78  1579.15
eigval :     1581.49  1585.81  1597.31  1603.31  3032.73  3067.15
eigval :     3077.56  3078.84  3079.44  3079.84  3080.38  3082.86
eigval :     3084.36  3085.19  3086.14  3086.75  3090.23  3091.36
eigval :     3093.03  3094.10  3094.84  3097.86  3098.68  3099.91
eigval :     3101.48  3106.06  3112.77

   temp. (K)  partition function   enthalpy   heat capacity  entropy
                                   cal/mol     cal/K/mol   cal/K/mol   J/K/mol
 298.15  VIB  0.625E+12            16520.957    109.486     99.978
         ROT  0.348E+08              888.752      2.981     37.492
         INT  0.218E+20            17409.710    112.467    137.469
         TR   0.104E+29             1481.254      4.968     44.408
         TOT                       18890.9636   117.4351   181.8773   760.9744

       T/K    H(0)-H(T)+PV         H(T)/Eh          T*S/Eh         G(T)/Eh
   ------------------------------------------------------------------------
    298.15    0.301047E-01    0.493481E+00    0.864158E-01    0.407065E+00
   ------------------------------------------------------------------------

         :::::::::::::::::::::::::::::::::::::::::::::::::::::
         ::                  THERMODYNAMIC                  ::
         :::::::::::::::::::::::::::::::::::::::::::::::::::::
         :: total free energy         -95.012063853468 Eh   ::
         ::.................................................::
         :: total energy              -95.419128859268 Eh   ::
         :: zero point energy           0.463376089896 Eh   ::
         :: G(RRHO) w/o ZPVE           -0.056311084096 Eh   ::
         :: G(RRHO) contrib.            0.407065005800 Eh   ::
         :::::::::::::::::::::::::::::::::::::::::::::::::::::

           -------------------------------------------------
          | TOTAL ENERGY              -95.419128859268 Eh   |
          | TOTAL ENTHALPY            -94.925648102621 Eh   |
          | TOTAL FREE ENERGY         -95.012063853468 Eh   |
          | GRADIENT NORM               0.000069476721 Eh/α |
           -------------------------------------------------

 * finished run on 2025/09/14 at 08:22:14.424
