   * xtb version 6.7.1 (edcfbbe) compiled by 'albert@albert-system' on 2024-07-22

   ID    Z sym.   atoms
    1    6 C      1-8, 10-23, 25-36, 38
    2    7 N      9, 24, 37
    3    1 H      39-61

          program call               : xtb data2507/gas/2CzPy/2CzPy_gas_T1_crest.xyz --gfn 2 --spinpol --tblite --uhf 2 --ohess vtight --parallel 40 --molden --ceasefiles --namespace data2507/gas/2CzPy/2CzPy_gas_T1_finalOpt
 * total energy  :   -95.4194096 Eh     change        0.3368427E-08 Eh
 * total energy  :   -95.4194348 Eh     change       -0.2518480E-04 Eh
 * total energy  :   -95.4194472 Eh     change       -0.1235179E-04 Eh
 * total energy  :   -95.4194500 Eh     change       -0.2874334E-05 Eh
 * total energy  :   -95.4194533 Eh     change       -0.3208141E-05 Eh
 * total energy  :   -95.4194558 Eh     change       -0.2575707E-05 Eh
 * total energy  :   -95.4194587 Eh     change       -0.2877380E-05 Eh
 * total energy  :   -95.4194609 Eh     change       -0.2235753E-05 Eh
 * total energy  :   -95.4194625 Eh     change       -0.1543423E-05 Eh
 * total energy  :   -95.4194638 Eh     change       -0.1354067E-05 Eh
 * total energy  :   -95.4194650 Eh     change       -0.1183020E-05 Eh
 * total energy  :   -95.4194660 Eh     change       -0.9360986E-06 Eh
 * total energy  :   -95.4194667 Eh     change       -0.7148767E-06 Eh
 * total energy  :   -95.4194674 Eh     change       -0.6878054E-06 Eh
 * total energy  :   -95.4194681 Eh     change       -0.7510480E-06 Eh
 * total energy  :   -95.4194688 Eh     change       -0.6739945E-06 Eh
 * total energy  :   -95.4194692 Eh     change       -0.3901094E-06 Eh
 * total energy  :   -95.4194693 Eh     change       -0.8944568E-07 Eh
   *** GEOMETRY OPTIMIZATION CONVERGED AFTER 18 ITERATIONS ***

 final structure:
================
61
 xtb: 6.7.1 (edcfbbe)
C           -4.88570954854191        2.87980086422882       -2.03467716048201
C           -4.69289696216002        1.49810066630929       -1.85729095323316
C           -3.47652833702017        1.02300792577686       -1.46397529573955
C           -2.39691855249862        1.92541398039216       -1.20865942030321
C           -1.10975676010111        1.55272978252024       -0.77802654019786
C           -0.02232409802281        2.46333232670000       -0.96967198269923
C            1.27034405749472        2.10333897895446       -0.76993709345570
C            1.59292559604094        0.79079379613286       -0.33102116332982
N            2.91762824895878        0.41319161609038       -0.13311608953125
C            3.49088045103768       -0.76995506282722       -0.55504100429470
C            2.93758504956425       -1.80518710455853       -1.29603647828622
C            3.74575169651115       -2.87965531445995       -1.61414567648862
C            5.08052455231072       -2.92618275964644       -1.21625962870519
C            5.64774605818507       -1.88509471930032       -0.50526679837320
C            4.85505238722245       -0.79600942484641       -0.17457771168202
C            5.10749175865293        0.43850439036804        0.51480206781265
C            6.23057815999036        0.97888307421337        1.12313604375188
C            6.12008822373637        2.20923753970163        1.74386754347212
C            4.90329832618190        2.88755621741151        1.77961475320619
C            3.77104963282502        2.37008377983447        1.17944707336568
C            3.88299162737424        1.15126067576643        0.52291439952690
C            0.54999759386398       -0.09341716912853       -0.03314951522626
C           -0.76545103545524        0.27032838528757       -0.19832471660942
N           -1.76307488939736       -0.58821097097268        0.27736669592892
C           -1.88601832644203       -1.93234105372767       -0.00280481022616
C           -1.16167405513297       -2.71761974892399       -0.88914453115613
C           -1.51515750604387       -4.04729345927117       -1.01353766778695
C           -2.57084506622311       -4.58818063476414       -0.28260971421056
C           -3.31441647882714       -3.80545170231278        0.58103884417958
C           -2.97784724884753       -2.46738921632999        0.72273086450699
C           -3.52870493211509       -1.38062817926274        1.48600253305199
C           -4.58498854257011       -1.27904751041308        2.37929607480626
C           -4.84102028656262       -0.05226973959849        2.96232302820063
C           -4.05081203269302        1.05859977334152        2.67506640313686
C           -2.99149291820865        0.98162644629178        1.79150568458996
C           -2.74616413594508       -0.24185074590097        1.18470181333281
N           -2.61783422538801        3.25441913891147       -1.44654380352348
C           -3.78054819346076        3.69674766587985       -1.83169266254409
H           -5.83872121464589        3.29018322117345       -2.32218719681357
H           -5.50526784027236        0.81424493148702       -2.05858852782733
H           -3.29786883262457       -0.03897360207770       -1.42259120206674
H           -0.27531288042561        3.44892115280409       -1.32765354449888
H            2.07292645334273        2.79247955353562       -0.98448738520498
H            1.91247994197265       -1.76579250228748       -1.62883288737433
H            3.33608534102334       -3.69816181900994       -2.18700194873736
H            5.68012213654103       -3.78454242316024       -1.47984613493863
H            6.68746853646370       -1.91294351453727       -0.21626977942667
H            7.16825189138475        0.44405161954170        1.11489192524605
H            6.98339009170543        2.64803944264671        2.22130815781172
H            4.84193823237706        3.83513707496368        2.29362357157286
H            2.82780640400336        2.89087062352979        1.23626642708557
H            0.78181206113594       -1.04728482008089        0.41963499524038
H           -0.35809386465980       -2.29837856010837       -1.47456682071992
H           -0.96482792072310       -4.67941482990250       -1.69442097115461
H           -2.81564112165479       -5.63275401425090       -0.40408175061013
H           -4.14459708996543       -4.22209825413780        1.13105623237638
H           -5.18995456117868       -2.14207939558487        2.61325074395989
H           -5.66094270134956        0.04887461885709        3.65768006039161
H           -4.26901744829203        2.00023572910571        3.15627524203447
H           -2.37842837984388        1.84333241496653        1.57875606680008
H           -3.85111015500786        4.76947775215802       -1.96834504613158

 projected vibrational frequencies (cm⁻¹)
eigval :       -0.00    -0.00    -0.00    -0.00     0.00     0.00
eigval :       15.73    24.07    27.82    30.93    37.60    60.57
eigval :       70.57    77.23    99.31   103.36   118.48   134.15
eigval :      139.82   149.36   151.22   174.98   187.00   232.60
eigval :      243.14   260.11   271.22   272.15   277.14   311.77
eigval :      350.85   373.43   378.37   383.03   392.84   396.52
eigval :      414.36   420.99   426.79   432.77   438.94   442.18
eigval :      477.55   500.68   516.03   516.75   535.64   537.70
eigval :      538.46   556.10   564.28   571.31   584.68   589.57
eigval :      599.55   610.34   623.50   628.72   655.19   671.56
eigval :      672.43   680.34   683.45   699.40   707.09   708.14
eigval :      751.31   755.49   764.33   767.56   771.35   775.10
eigval :      776.30   777.61   809.80   861.54   864.73   867.97
eigval :      868.77   870.99   886.70   889.78   893.28   895.31
eigval :      897.51   899.13   899.65   902.16   904.60   907.44
eigval :      913.12   917.14   920.18   921.62   923.02   979.16
eigval :      996.17  1010.23  1012.36  1064.49  1066.31  1068.17
eigval :     1069.87  1071.62  1088.25  1102.71  1114.22  1134.68
eigval :     1142.57  1146.18  1152.71  1165.43  1174.28  1176.71
eigval :     1179.02  1179.97  1187.65  1193.99  1219.55  1227.71
eigval :     1230.08  1231.99  1239.69  1279.97  1285.97  1290.57
eigval :     1293.37  1294.08  1312.00  1317.21  1331.56  1346.59
eigval :     1349.22  1350.48  1357.05  1362.84  1364.80  1367.46
eigval :     1398.40  1413.83  1417.27  1423.68  1436.95  1440.91
eigval :     1460.27  1465.10  1466.12  1474.99  1484.45  1485.84
eigval :     1521.52  1563.87  1567.83  1570.73  1574.23  1578.56
eigval :     1581.29  1585.13  1595.29  1602.85  3032.42  3066.10
eigval :     3077.44  3079.43  3080.01  3080.24  3080.71  3085.09
eigval :     3085.69  3086.74  3087.16  3088.03  3093.13  3094.28
eigval :     3094.85  3096.22  3098.75  3100.16  3102.05  3102.60
eigval :     3103.52  3105.70  3111.53

   temp. (K)  partition function   enthalpy   heat capacity  entropy
                                   cal/mol     cal/K/mol   cal/K/mol   J/K/mol
 298.15  VIB  0.713E+12            16571.472    109.637    100.384
         ROT  0.347E+08              888.752      2.981     37.485
         INT  0.247E+20            17460.225    112.618    137.868
         TR   0.104E+29             1481.254      4.968     44.408
         TOT                       18941.4785   117.5859   182.2762   762.6435

       T/K    H(0)-H(T)+PV         H(T)/Eh          T*S/Eh         G(T)/Eh
   ------------------------------------------------------------------------
    298.15    0.301852E-01    0.493276E+00    0.866053E-01    0.406670E+00
   ------------------------------------------------------------------------

         :::::::::::::::::::::::::::::::::::::::::::::::::::::
         ::                  THERMODYNAMIC                  ::
         :::::::::::::::::::::::::::::::::::::::::::::::::::::
         :: total free energy         -95.012798936112 Eh   ::
         ::.................................................::
         :: total energy              -95.419469271865 Eh   ::
         :: zero point energy           0.463090460763 Eh   ::
         :: G(RRHO) w/o ZPVE           -0.056420125009 Eh   ::
         :: G(RRHO) contrib.            0.406670335753 Eh   ::
         :::::::::::::::::::::::::::::::::::::::::::::::::::::

           -------------------------------------------------
          | TOTAL ENERGY              -95.419469271865 Eh   |
          | TOTAL ENTHALPY            -94.926193643693 Eh   |
          | TOTAL FREE ENERGY         -95.012798936112 Eh   |
          | GRADIENT NORM               0.000121444465 Eh/α |
           -------------------------------------------------

 * finished run on 2025/09/14 at 08:25:47.516
