   * xtb version 6.7.1 (edcfbbe) compiled by 'albert@albert-system' on 2024-07-22

   ID    Z sym.   atoms
    1    6 C      1-8, 10-23, 25-36, 38
    2    7 N      9, 24, 37
    3    1 H      39-61

          program call               : xtb data2507/gas/2CzPy/2CzPy_gas_S0_crest.xyz --gfn 2 --ohess vtight --parallel 40 --molden --ceasefiles --namespace data2507/gas/2CzPy/2CzPy_gas_S0_finalOpt
          :  Hamiltonian                  GFN2-xTB          :
 * total energy  :   -95.5114836 Eh     change       -0.2803063E-08 Eh
 * total energy  :   -95.5114841 Eh     change       -0.4970153E-06 Eh
 * total energy  :   -95.5114845 Eh     change       -0.4341240E-06 Eh
 * total energy  :   -95.5114857 Eh     change       -0.1148432E-05 Eh
 * total energy  :   -95.5114862 Eh     change       -0.4958816E-06 Eh
 * total energy  :   -95.5114865 Eh     change       -0.2761762E-06 Eh
 * total energy  :   -95.5114868 Eh     change       -0.3661994E-06 Eh
 * total energy  :   -95.5114872 Eh     change       -0.3886555E-06 Eh
 * total energy  :   -95.5114874 Eh     change       -0.1876731E-06 Eh
 * total energy  :   -95.5114874 Eh     change       -0.2167739E-07 Eh
   *** GEOMETRY OPTIMIZATION CONVERGED AFTER 10 ITERATIONS ***

 final structure:
================
61
 xtb: 6.7.1 (edcfbbe)
C           -4.89486162425777        3.23843336812648        0.03959500846684
C           -4.54936670281935        2.27699994035448        0.97654702955158
C           -3.26698507328928        1.76013508566057        0.96570280464675
C           -2.36953813836512        2.21805688018064       -0.00019022994846
C           -0.99455563701799        1.69741102162556       -0.09450810061157
C            0.05638543302980        2.58826045748493       -0.29208260229654
C            1.36471882113821        2.15443339887029       -0.33888688068137
C            1.65270262855546        0.79862826635020       -0.19280467424555
N            2.97614444238161        0.34819283122511       -0.22712613041709
C            3.46064422008477       -0.69241690800992       -0.99778769080578
C            2.80391341830573       -1.48695795211472       -1.92630174496324
C            3.54180867074692       -2.44990310596531       -2.58806844839293
C            4.90285522474404       -2.61899948133850       -2.34493007342819
C            5.56735599838165       -1.81374519972396       -1.44180346593888
C            4.84702840841586       -0.83883995584870       -0.76444850848671
C            5.20832036332222        0.16312577869310        0.19926626723964
C            6.40151883278183        0.49962794806288        0.82461571851575
C            6.39905833157399        1.52997577426011        1.74344809275123
C            5.22369921932900        2.21055248289523        2.05272389538112
C            4.02437228768075        1.89385647868554        1.44363080218524
C            4.02594892834803        0.87654202470371        0.50034932479361
C            0.61143109919902       -0.10838105448345       -0.03137272731972
C           -0.70539946874463        0.33009731879086        0.00723927475073
N           -1.73467862371933       -0.61550645262924        0.12689101037273
C           -2.82989168347111       -0.72267390936065       -0.70746177451279
C           -3.10962022370614       -0.04360140827368       -1.88428172195869
C           -4.28724190824674       -0.35094392781161       -2.53717638590902
C           -5.16092550158718       -1.31920370903372       -2.04632455098344
C           -4.87111586022500       -2.01914566424453       -0.89259479818149
C           -3.69504620843214       -1.72513107849190       -0.21490099035345
C           -3.08404804813869       -2.24257199685113        0.97779819483044
C           -3.45453438576803       -3.21228318493552        1.90014021333556
C           -2.62458899762052       -3.45286239158706        2.97704878381951
C           -1.44391014333031       -2.73337743054339        3.14770383495067
C           -1.05338102903412       -1.76328518305482        2.24425090385301
C           -1.87417962060645       -1.53149763692657        1.15027985593852
N           -2.69471331979927        3.16805141914314       -0.87263117627472
C           -3.91879804157418        3.65776146099419       -0.85105485744683
H           -5.88812591853507        3.65783126766385        0.00814484631145
H           -5.26839504010613        1.93464031178811        1.70674171969590
H           -2.96395830730925        1.02878097064795        1.69924171998855
H           -0.17713183514310        3.63548952380482       -0.40468678355675
H            2.16831785183532        2.85528947527671       -0.50441875609304
H            1.75429365026154       -1.35232165559078       -2.13963456653962
H            3.05191502872963       -3.08290150624399       -3.31313336102252
H            5.44343325521149       -3.38509875104416       -2.88051465953943
H            6.62589488468027       -1.93179956258443       -1.26590958101989
H            7.30867515661602       -0.03939531444350        0.59680493077883
H            7.31672747812654        1.80975424278965        2.23902582427485
H            5.24909837423369        3.00156252008065        2.78769915462890
H            3.11600732657860        2.41606543111948        1.70405414572799
H            0.82271237083353       -1.16294877796907        0.06280340311396
H           -2.43436356980902        0.70099446006650       -2.27724770592537
H           -4.53424183810430        0.16949459444031       -3.45058313696588
H           -6.07289255502807       -1.52829408239216       -2.58559171183721
H           -5.54004140296335       -2.78118994808522       -0.52182702375308
H           -4.37577492977291       -3.76112207556307        1.77538813079810
H           -2.89386451961547       -4.20398304526550        3.70460979389313
H           -0.82103573067019       -2.93585893649671        4.00645177497738
H           -0.14370849558319       -1.20019180826664        2.39151309446664
H           -4.12411744733224        4.42311936328858       -1.58875500122935

          :  Hamiltonian                  GFN2-xTB          :
         :: gradient norm              0.000110627178 Eh/a0 ::
         :: HOMO-LUMO gap              2.662376935300 eV    ::
         :: SCC energy               -97.305428707435 Eh    ::
         :: -> dispersion             -0.088509847936 Eh    ::
         :: repulsion energy           1.793941289094 Eh    ::

    * Orbital Energies and Occupations

         #    Occupation            Energy/Eh            Energy/eV
      -------------------------------------------------------------
         1        2.0000           -0.6785132             -18.4633
       ...           ...                  ...                  ...
        77        2.0000           -0.4206964             -11.4477
        78        2.0000           -0.4193439             -11.4109
        79        2.0000           -0.4190622             -11.4033
        80        2.0000           -0.4180288             -11.3751
        81        2.0000           -0.4161854             -11.3250
        82        2.0000           -0.4066073             -11.0643
        83        2.0000           -0.4053157             -11.0292
        84        2.0000           -0.4019922             -10.9388
        85        2.0000           -0.3790067             -10.3133
        86        2.0000           -0.3787300             -10.3058
        87        2.0000           -0.3714649             -10.1081
        88        2.0000           -0.3646380              -9.9223
        89        2.0000           -0.3635592              -9.8929 (HOMO)
        90                         -0.2657188              -7.2306 (LUMO)
        91                         -0.2481457              -6.7524
        92                         -0.2460125              -6.6943
        93                         -0.2443837              -6.6500
        94                         -0.2393866              -6.5140
        95                         -0.2223783              -6.0512
        96                         -0.2219511              -6.0396
        97                         -0.2197569              -5.9799
        98                         -0.1942175              -5.2849
        99                         -0.1887544              -5.1363
       100                         -0.1860480              -5.0626
       ...                                ...                  ...
       175                          0.7460487              20.3010
      -------------------------------------------------------------
                  HL-Gap            0.0978404 Eh            2.6624 eV

     #   Z          covCN         q      C6AA      α(0)
     1   6 C        2.914    -0.040    29.003     8.831
     2   6 C        2.928    -0.011    28.289     8.722
     3   6 C        2.917    -0.040    29.005     8.832
     4   6 C        2.965     0.099    25.795     8.331
     5   6 C        2.981    -0.009    28.232     8.716
     6   6 C        2.925    -0.027    28.666     8.780
     7   6 C        2.920    -0.047    29.169     8.857
     8   6 C        2.912     0.066    26.514     8.444
     9   7 N        2.803    -0.042    22.055     6.975
    10   6 C        3.073     0.047    26.881     8.501
    11   6 C        2.910    -0.050    29.253     8.869
    12   6 C        2.924    -0.033    28.817     8.803
    13   6 C        2.920    -0.040    28.998     8.831
    14   6 C        2.913    -0.032    28.810     8.802
    15   6 C        3.068    -0.016    28.344     8.730
    16   6 C        3.067    -0.016    28.343     8.730
    17   6 C        2.913    -0.032    28.810     8.801
    18   6 C        2.920    -0.040    29.003     8.831
    19   6 C        2.924    -0.033    28.826     8.805
    20   6 C        2.910    -0.051    29.266     8.871
    21   6 C        3.074     0.046    26.884     8.501
    22   6 C        2.925    -0.058    29.450     8.900
    23   6 C        2.914     0.062    26.603     8.458
    24   7 N        2.804    -0.047    22.137     6.988
    25   6 C        3.077     0.047    26.870     8.499
    26   6 C        2.910    -0.050    29.240     8.867
    27   6 C        2.925    -0.033    28.824     8.804
    28   6 C        2.920    -0.041    29.022     8.834
    29   6 C        2.913    -0.034    28.837     8.806
    30   6 C        3.068    -0.018    28.383     8.736
    31   6 C        3.068    -0.017    28.365     8.733
    32   6 C        2.913    -0.033    28.818     8.803
    33   6 C        2.920    -0.041    29.015     8.833
    34   6 C        2.924    -0.033    28.829     8.805
    35   6 C        2.909    -0.052    29.286     8.874
    36   6 C        3.075     0.047    26.875     8.500
    37   7 N        1.844    -0.231    26.899     7.686
    38   6 C        2.906     0.061    26.627     8.461
    39   1 H        0.926     0.036     2.503     2.474
    40   1 H        0.926     0.035     2.513     2.479
    41   1 H        0.926     0.034     2.532     2.488
    42   1 H        0.926     0.058     2.225     2.333
    43   1 H        0.926     0.049     2.335     2.390
    44   1 H        0.926     0.028     2.615     2.529
    45   1 H        0.926     0.030     2.583     2.513
    46   1 H        0.926     0.029     2.601     2.522
    47   1 H        0.926     0.032     2.562     2.503
    48   1 H        0.926     0.032     2.561     2.503
    49   1 H        0.926     0.029     2.604     2.523
    50   1 H        0.926     0.030     2.592     2.517
    51   1 H        0.926     0.027     2.626     2.534
    52   1 H        0.926     0.052     2.289     2.366
    53   1 H        0.926     0.031     2.578     2.511
    54   1 H        0.926     0.030     2.586     2.515
    55   1 H        0.926     0.028     2.609     2.526
    56   1 H        0.926     0.031     2.570     2.507
    57   1 H        0.926     0.031     2.571     2.508
    58   1 H        0.926     0.028     2.609     2.526
    59   1 H        0.926     0.029     2.595     2.519
    60   1 H        0.926     0.025     2.654     2.548
    61   1 H        0.925     0.038     2.472     2.459

molecular dipole:
                 x           y           z       tot (Debye)
 q only:       -0.136       0.313       0.185
   full:       -0.472       0.287       0.435       1.786

 projected vibrational frequencies (cm⁻¹)
eigval :       -0.00    -0.00    -0.00    -0.00     0.00     0.00
eigval :       18.49    21.08    22.98    33.35    35.78    54.36
eigval :       71.59    77.39    99.79   101.02   110.04   138.67
eigval :      144.68   147.60   160.96   195.50   197.88   233.33
eigval :      236.82   249.47   272.10   272.96   296.75   309.81
eigval :      359.02   367.93   375.94   395.32   396.91   415.62
eigval :      424.22   427.73   430.95   436.95   452.23   477.40
eigval :      512.27   517.69   518.95   528.37   540.21   541.16
eigval :      541.88   549.35   583.99   588.35   593.69   606.88
eigval :      614.49   625.38   644.97   673.13   673.82   685.96
eigval :      692.95   707.59   709.16   718.17   720.46   754.78
eigval :      756.07   768.86   770.05   772.87   780.89   781.34
eigval :      786.46   840.17   867.52   871.95   874.38   874.82
eigval :      894.23   896.65   897.73   899.60   902.71   903.25
eigval :      903.97   908.83   910.01   916.61   919.84   922.51
eigval :      923.00   924.80   928.21   937.52   988.74  1006.99
eigval :     1011.87  1016.45  1047.62  1069.93  1071.01  1073.46
eigval :     1074.44  1096.12  1112.21  1119.88  1128.44  1148.18
eigval :     1152.34  1153.26  1168.45  1170.37  1177.99  1181.20
eigval :     1181.29  1183.18  1197.23  1227.95  1236.28  1236.79
eigval :     1237.66  1247.61  1248.81  1279.21  1291.34  1297.02
eigval :     1301.30  1302.87  1306.03  1313.60  1341.96  1357.36
eigval :     1358.67  1360.36  1362.86  1371.37  1405.38  1415.30
eigval :     1424.43  1428.12  1428.57  1438.97  1457.89  1475.58
eigval :     1476.70  1488.03  1488.64  1490.64  1549.20  1560.68
eigval :     1574.19  1575.46  1578.16  1586.70  1589.56  1590.34
eigval :     1599.37  1600.01  1614.76  1615.67  3052.25  3073.37
eigval :     3076.35  3076.77  3077.53  3077.59  3081.00  3081.89
eigval :     3083.18  3083.89  3088.28  3088.84  3090.68  3091.87
eigval :     3092.28  3095.94  3096.26  3096.61  3097.53  3098.17
eigval :     3098.48  3098.62  3107.58

   temp. (K)  partition function   enthalpy   heat capacity  entropy
                                   cal/mol     cal/K/mol   cal/K/mol   J/K/mol
 298.15  VIB  0.621E+12            16252.035    107.187     98.673
         ROT  0.340E+08              888.752      2.981     37.442
         INT  0.211E+20            17140.787    110.167    136.116
         TR   0.104E+29             1481.254      4.968     44.408
         TOT                       18622.0409   115.1356   180.5235   755.3105

       T/K    H(0)-H(T)+PV         H(T)/Eh          T*S/Eh         G(T)/Eh
   ------------------------------------------------------------------------
    298.15    0.296761E-01    0.497402E+00    0.857726E-01    0.411630E+00
   ------------------------------------------------------------------------

         :::::::::::::::::::::::::::::::::::::::::::::::::::::
         ::                  THERMODYNAMIC                  ::
         :::::::::::::::::::::::::::::::::::::::::::::::::::::
         :: total free energy         -95.099857537468 Eh   ::
         ::.................................................::
         :: total energy              -95.511487418333 Eh   ::
         :: zero point energy           0.467726328797 Eh   ::
         :: G(RRHO) w/o ZPVE           -0.056096447932 Eh   ::
         :: G(RRHO) contrib.            0.411629880865 Eh   ::
         :::::::::::::::::::::::::::::::::::::::::::::::::::::

           -------------------------------------------------
          | TOTAL ENERGY              -95.511487418333 Eh   |
          | TOTAL ENTHALPY            -95.014084978435 Eh   |
          | TOTAL FREE ENERGY         -95.099857537468 Eh   |
          | GRADIENT NORM               0.000110672360 Eh/α |
          | HOMO-LUMO GAP               2.662373406584 eV   |
           -------------------------------------------------

 * finished run on 2025/09/14 at 08:22:07.147
