   * xtb version 6.7.1 (edcfbbe) compiled by 'albert@albert-system' on 2024-07-22

   ID    Z sym.   atoms
    1    9 F      1, 3, 4
    2    6 C      2, 5-8, 10-18, 20-26, 28-45, 47-62
    3    7 N      9, 19, 27, 46
    4    1 H      63-97

          program call               : xtb data2507/gas/PPI-PIM-2/PPI-PIM-2_gas_S0_crest.xyz --gfn 2 --ohess vtight --parallel 40 --molden --ceasefiles --namespace data2507/gas/PPI-PIM-2/PPI-PIM-2_gas_S0_finalOpt
          :  Hamiltonian                  GFN2-xTB          :
 * total energy  :  -161.5988349 Eh     change       -0.2651575E-08 Eh
 * total energy  :  -161.5988360 Eh     change       -0.1128385E-05 Eh
 * total energy  :  -161.5988379 Eh     change       -0.1864253E-05 Eh
 * total energy  :  -161.5988415 Eh     change       -0.3620485E-05 Eh
 * total energy  :  -161.5988442 Eh     change       -0.2704358E-05 Eh
 * total energy  :  -161.5988469 Eh     change       -0.2735402E-05 Eh
 * total energy  :  -161.5988496 Eh     change       -0.2607181E-05 Eh
 * total energy  :  -161.5988511 Eh     change       -0.1518905E-05 Eh
 * total energy  :  -161.5988519 Eh     change       -0.8287498E-06 Eh
 * total energy  :  -161.5988527 Eh     change       -0.7463734E-06 Eh
 * total energy  :  -161.5988855 Eh     change       -0.2381071E-06 Eh
 * total energy  :  -161.5988858 Eh     change       -0.2591003E-06 Eh
 * total energy  :  -161.5988863 Eh     change       -0.5200922E-06 Eh
 * total energy  :  -161.5988859 Eh     change        0.4388669E-06 Eh
 * total energy  :  -161.5988868 Eh     change       -0.9463972E-06 Eh
 * total energy  :  -161.5988869 Eh     change       -0.1335470E-06 Eh
 * total energy  :  -161.5988871 Eh     change       -0.1338392E-06 Eh
 * total energy  :  -161.5988871 Eh     change       -0.1270283E-07 Eh
 * total energy  :  -161.5988872 Eh     change       -0.9537533E-07 Eh
   *** GEOMETRY OPTIMIZATION CONVERGED AFTER 72 ITERATIONS ***

 final structure:
================
97
 xtb: 6.7.1 (edcfbbe)
F           -3.65442553666958       -5.22596856213573       -2.74130406845944
C           -3.79377954141673       -5.03955929897639       -1.41997379335580
F           -4.68565701541398       -5.94613801550965       -0.99660863832100
F           -2.61324920413313       -5.38777430400044       -0.86758648453044
C           -4.17743201937400       -3.63045306329379       -1.06974569611872
C           -3.68278491853679       -2.58028641886646       -1.83314566291084
C           -3.99989172236655       -1.27986601026101       -1.49386269767755
C           -4.80723762539803       -1.02792629289775       -0.38761182903207
N           -5.08460094786395        0.29557133258519       -0.01969614837777
C           -4.13033788703576        1.23468992307306        0.32937939937456
C           -2.69827551544099        0.99094408040590        0.36187804696009
C           -2.14065869227666       -0.22096155636836        0.76687032595325
C           -0.77103977984750       -0.38904367366821        0.77740952289652
C            0.08192685672587        0.64665769684295        0.40105431707151
C            1.53817821237196        0.45941277963252        0.40940596848700
C            2.38203729058333        1.46887938758826        0.86896086069159
C            3.75117344167244        1.29698099823891        0.88045130521226
C            4.30411035895176        0.10765695971616        0.41706451325778
N            5.69734033634977       -0.06571075202003        0.40232245357808
C            6.41874164020857       -1.10936875476564        0.92556783565119
C            5.86929656259751       -2.21544832983926        1.69193375060496
C            4.76479670486098       -2.07238413442805        2.52995591709908
C            4.29212181423924       -3.15716388864171        3.24479708583872
C            4.91607713630330       -4.38936074022983        3.14351697857145
C            6.03124263218638       -4.53143928865272        2.33305703799608
C            6.50747873226057       -3.45342327694855        1.61351641813696
N            7.69669519257604       -0.96348357618871        0.68208722836185
C            7.84493374672414        0.19755292448915       -0.01277398183428
C            9.15883689260762        0.62465666594334       -0.46948841066611
C            9.32546013877070        1.42441244246485       -1.59840653137924
C           10.59192556486364        1.80500962657346       -2.00013202823380
C           11.70666543637222        1.38925494797378       -1.29058503069559
C           11.54980909495941        0.57736067683024       -0.17889150021744
C           10.28673717166305        0.19494801974263        0.22836734173946
C            6.60381598306770        0.78579502182232       -0.19312828189789
C            6.20993370425840        2.03003320531254       -0.84029380255999
C            6.87827220812161        3.21423961665939       -0.53031553498866
C            6.50617326063723        4.40253392811791       -1.12813436987103
C            5.46169105196628        4.42845537019343       -2.03862394607711
C            4.79619337090411        3.25627264332398       -2.35521484598690
C            5.16566122593690        2.06309960454994       -1.76279741606242
C            3.47313820708897       -0.90634314715650       -0.04953753548728
C            2.10473888489620       -0.73146165707370       -0.04311335941284
C           -0.47889188056933        1.86784176652892        0.02781651952849
C           -1.84620240659358        2.03841869555236        0.00861939615797
N           -4.66874167053752        2.38052491449298        0.65155746292192
C           -6.01224855012064        2.21901381812771        0.52552845207996
C           -7.03339435379194        3.16998487497283        0.80315819198630
C           -6.72251633767902        4.45056305612974        1.27197529661092
C           -7.72401539010409        5.34077160712677        1.56857769613185
C           -9.05300578503433        4.95561402984362        1.40305899479301
C           -9.36938003815931        3.70106959342268        0.93675918973780
C           -8.37430530241270        2.76612093268626        0.61216354496197
C           -8.67292258679851        1.44805612908714        0.07934961836236
C           -9.98795994929665        1.05093918243449       -0.20185501438498
C          -10.27867051769964       -0.17379946097080       -0.75418362263043
C           -9.25220859283824       -1.05708892363765       -1.07258803611871
C           -7.95091104937949       -0.71116085497107       -0.80433919367720
C           -7.63517970710572        0.51873551351379       -0.20897737033965
C           -6.30613653231959        0.92696413846670        0.09618879813576
C           -5.29811371420263       -2.08575675483084        0.37638520342473
C           -4.98395894667473       -3.38612796045988        0.03543817403683
H           -3.06034576801334       -2.78375944091214       -2.69058501408075
H           -3.62272044433314       -0.45439148145057       -2.07741600573161
H           -2.77258234525707       -1.02911597355259        1.10346901402000
H           -0.35474644497087       -1.32870066026741        1.10938917271040
H            1.95940372075510        2.38824280480528        1.24517095043392
H            4.39742480584533        2.07831243478208        1.25156161197924
H            4.28482537049949       -1.11118035677459        2.64139248772542
H            3.43439723184157       -3.03669670543651        3.89055671455374
H            4.54005223208831       -5.23354146023628        3.70238138062875
H            6.52918705041820       -5.48726640960995        2.26231806644077
H            7.37675248508637       -3.54479420267145        0.98120424882084
H            8.46351730888666        1.73721866179755       -2.16893054258381
H           10.71039893910110        2.42620087648901       -2.87647895546199
H           12.69419026235792        1.69119782309319       -1.60799223424192
H           12.41727011140969        0.24235042509873        0.37149253525363
H           10.14799316604518       -0.44088344010273        1.08907169643925
H            7.68964115299171        3.19049849070129        0.18242063638949
H            7.03013016383496        5.31386420826529       -0.88005118138838
H            5.17023283663370        5.35909306922166       -2.50245480298935
H            3.98650142233713        3.26916976577800       -3.07029437814414
H            4.65225110279087        1.14959697162632       -2.02729012786928
H            3.90768791486660       -1.82538231709460       -0.41409585349666
H            1.46719402416767       -1.51714670602616       -0.41999807317964
H            0.16622011518737        2.68072011516718       -0.27106120278789
H           -2.28220851294999        2.98130198409708       -0.28204916019047
H           -5.68112264707311        4.70337570515647        1.39640084827190
H           -7.48984036501529        6.33010840369294        1.93250516072660
H           -9.84496731998962        5.65011264131551        1.64327544349085
H          -10.41186322631068        3.44772935336605        0.82802674514832
H          -10.80585175995318        1.72122616969964        0.00650171621831
H          -11.30438048097258       -0.44411203641789       -0.95633341327914
H           -9.47547089880561       -2.00780054965497       -1.53319111408505
H           -7.15846731849655       -1.39046707391441       -1.07625652743443
H           -5.92189683530621       -1.87948656331005        1.23302239886715
H           -5.36035750229748       -4.20933046573106        0.62263627527270

          :  Hamiltonian                  GFN2-xTB          :
         :: gradient norm              0.000173506978 Eh/a0 ::
         :: HOMO-LUMO gap              2.033095281298 eV    ::
         :: SCC energy              -164.377056486641 Eh    ::
         :: -> dispersion             -0.140708563934 Eh    ::
         :: repulsion energy           2.778169303951 Eh    ::

    * Orbital Energies and Occupations

         #    Occupation            Energy/Eh            Energy/eV
      -------------------------------------------------------------
         1        2.0000           -0.8844027             -24.0658
       ...           ...                  ...                  ...
       136        2.0000           -0.4122424             -11.2177
       137        2.0000           -0.4102938             -11.1647
       138        2.0000           -0.4078895             -11.0992
       139        2.0000           -0.4065858             -11.0638
       140        2.0000           -0.4056536             -11.0384
       141        2.0000           -0.3979523             -10.8288
       142        2.0000           -0.3945291             -10.7357
       143        2.0000           -0.3915252             -10.6539
       144        2.0000           -0.3895954             -10.6014
       145        2.0000           -0.3876909             -10.5496
       146        2.0000           -0.3738883             -10.1740
       147        2.0000           -0.3723348             -10.1317
       148        2.0000           -0.3599015              -9.7934 (HOMO)
       149                         -0.2851866              -7.7603 (LUMO)
       150                         -0.2734541              -7.4411
       151                         -0.2717227              -7.3940
       152                         -0.2568134              -6.9882
       153                         -0.2554337              -6.9507
       154                         -0.2501311              -6.8064
       155                         -0.2423138              -6.5937
       156                         -0.2397406              -6.5237
       157                         -0.2382639              -6.4835
       158                         -0.2337326              -6.3602
       159                         -0.2272415              -6.1836
       ...                                ...                  ...
       283                          0.7195580              19.5802
      -------------------------------------------------------------
                  HL-Gap            0.0747148 Eh            2.0331 eV

     #   Z          covCN         q      C6AA      α(0)
     1   9 F        0.791    -0.205    11.291     3.969
     2   6 C        3.336     0.486    17.279     6.583
     3   9 F        0.791    -0.204    11.279     3.967
     4   9 F        0.791    -0.210    11.343     3.978
     5   6 C        2.977    -0.026    28.658     8.781
     6   6 C        2.921    -0.020    28.506     8.756
     7   6 C        2.923    -0.034    28.841     8.807
     8   6 C        2.912     0.081    26.198     8.393
     9   7 N        2.841    -0.045    22.099     6.982
    10   6 C        3.185     0.127    24.808     8.128
    11   6 C        2.974     0.000    28.022     8.683
    12   6 C        2.920    -0.035    28.881     8.813
    13   6 C        2.924    -0.034    28.843     8.807
    14   6 C        2.977     0.012    27.733     8.638
    15   6 C        2.976     0.009    27.802     8.649
    16   6 C        2.925    -0.032    28.800     8.801
    17   6 C        2.920    -0.038    28.957     8.824
    18   6 C        2.914     0.066    26.514     8.444
    19   7 N        2.851    -0.037    21.953     6.959
    20   6 C        3.157     0.120    25.075     8.187
    21   6 C        2.974     0.003    27.953     8.672
    22   6 C        2.922    -0.034    28.856     8.809
    23   6 C        2.919    -0.029    28.731     8.790
    24   6 C        2.920    -0.029    28.734     8.790
    25   6 C        2.918    -0.027    28.682     8.782
    26   6 C        2.928    -0.028    28.708     8.787
    27   7 N        1.914    -0.289    28.339     7.893
    28   6 C        3.165     0.052    26.498     8.412
    29   6 C        2.974     0.010    27.780     8.646
    30   6 C        2.923    -0.037    28.923     8.819
    31   6 C        2.919    -0.030    28.759     8.794
    32   6 C        2.920    -0.032    28.804     8.801
    33   6 C        2.918    -0.030    28.743     8.792
    34   6 C        2.927    -0.030    28.748     8.793
    35   6 C        3.069     0.013    27.654     8.623
    36   6 C        2.972     0.009    27.813     8.651
    37   6 C        2.925    -0.032    28.804     8.801
    38   6 C        2.919    -0.028    28.704     8.786
    39   6 C        2.920    -0.031    28.774     8.797
    40   6 C        2.919    -0.030    28.739     8.791
    41   6 C        2.924    -0.034    28.848     8.808
    42   6 C        2.920    -0.039    28.964     8.825
    43   6 C        2.925    -0.032    28.798     8.800
    44   6 C        2.923    -0.032    28.795     8.800
    45   6 C        2.926    -0.027    28.688     8.784
    46   7 N        1.895    -0.282    28.167     7.868
    47   6 C        3.205     0.058    26.118     8.324
    48   6 C        2.986     0.003    27.942     8.671
    49   6 C        2.922    -0.030    28.761     8.795
    50   6 C        2.917    -0.029    28.727     8.789
    51   6 C        2.918    -0.031    28.784     8.798
    52   6 C        2.922    -0.034    28.850     8.808
    53   6 C        2.979    -0.000    28.034     8.685
    54   6 C        2.980     0.003    27.944     8.671
    55   6 C        2.922    -0.033    28.818     8.803
    56   6 C        2.916    -0.032    28.793     8.799
    57   6 C        2.917    -0.031    28.768     8.795
    58   6 C        2.919    -0.041    29.010     8.832
    59   6 C        2.978    -0.002    28.079     8.692
    60   6 C        3.068     0.019    27.510     8.600
    61   6 C        2.922    -0.032    28.808     8.802
    62   6 C        2.920    -0.022    28.547     8.762
    63   1 H        0.926     0.066     2.135     2.285
    64   1 H        0.926     0.059     2.213     2.327
    65   1 H        0.926     0.025     2.655     2.548
    66   1 H        0.926     0.038     2.479     2.462
    67   1 H        0.926     0.042     2.421     2.433
    68   1 H        0.926     0.042     2.428     2.437
    69   1 H        0.926     0.025     2.664     2.552
    70   1 H        0.926     0.030     2.584     2.514
    71   1 H        0.926     0.033     2.545     2.495
    72   1 H        0.926     0.036     2.507     2.476
    73   1 H        0.926     0.052     2.292     2.368
    74   1 H        0.926     0.025     2.660     2.550
    75   1 H        0.926     0.026     2.644     2.543
    76   1 H        0.926     0.027     2.631     2.536
    77   1 H        0.926     0.029     2.601     2.522
    78   1 H        0.926     0.049     2.328     2.386
    79   1 H        0.926     0.034     2.532     2.488
    80   1 H        0.926     0.033     2.551     2.497
    81   1 H        0.926     0.031     2.573     2.508
    82   1 H        0.926     0.029     2.602     2.523
    83   1 H        0.926     0.024     2.677     2.558
    84   1 H        0.926     0.041     2.432     2.439
    85   1 H        0.926     0.041     2.438     2.442
    86   1 H        0.926     0.041     2.434     2.440
    87   1 H        0.926     0.055     2.261     2.351
    88   1 H        0.926     0.052     2.297     2.370
    89   1 H        0.926     0.033     2.547     2.496
    90   1 H        0.926     0.031     2.574     2.509
    91   1 H        0.926     0.033     2.547     2.496
    92   1 H        0.926     0.037     2.485     2.465
    93   1 H        0.926     0.032     2.553     2.499
    94   1 H        0.926     0.030     2.580     2.512
    95   1 H        0.926     0.022     2.706     2.572
    96   1 H        0.926     0.063     2.169     2.303
    97   1 H        0.926     0.067     2.119     2.276

molecular dipole:
                 x           y           z       tot (Debye)
 q only:       -1.143       1.056       0.244
   full:       -1.665       0.859      -0.002       4.762

 projected vibrational frequencies (cm⁻¹)
eigval :       -0.00    -0.00    -0.00    -0.00     0.00     0.00
eigval :        5.91     7.89     9.03    11.94    16.61    17.64
eigval :       23.32    30.83    32.15    35.53    41.77    46.11
eigval :       50.41    53.30    56.81    68.69    73.44    76.77
eigval :       81.68    88.99    94.35   102.64   114.44   121.69
eigval :      124.93   132.98   134.69   148.71   174.03   185.69
eigval :      187.31   206.59   218.94   230.34   237.68   240.82
eigval :      241.74   259.47   261.94   265.41   272.23   277.92
eigval :      307.30   337.66   351.75   353.81   370.98   371.68
eigval :      372.45   374.65   375.43   376.56   378.50   385.59
eigval :      393.72   396.56   402.37   411.55   414.86   431.56
eigval :      442.24   448.30   456.89   472.21   474.80   483.93
eigval :      496.45   499.41   511.94   519.42   523.62   528.82
eigval :      535.02   545.33   552.08   561.68   585.17   585.45
eigval :      586.96   589.79   598.83   601.66   604.74   624.13
eigval :      631.62   641.83   645.34   651.96   653.15   659.54
eigval :      661.36   669.26   673.11   674.30   677.23   682.33
eigval :      684.47   686.80   690.12   701.49   710.77   721.57
eigval :      735.18   746.42   759.01   763.28   764.26   765.93
eigval :      766.31   781.05   783.04   805.50   810.38   828.75
eigval :      835.26   862.77   868.95   872.29   875.07   875.76
eigval :      877.72   878.37   878.63   901.77   902.34   902.78
eigval :      908.13   914.00   914.95   915.86   922.78   924.37
eigval :      925.22   927.75   928.07   929.53   929.91   930.07
eigval :      931.50   931.73   932.12   932.28   938.71   942.82
eigval :      944.75   956.44   975.22   981.15   995.37  1012.28
eigval :     1016.65  1026.37  1029.91  1035.44  1068.25  1069.02
eigval :     1073.90  1079.86  1081.65  1082.49  1083.81  1085.76
eigval :     1108.70  1110.77  1119.05  1120.48  1121.72  1131.59
eigval :     1135.10  1138.60  1144.17  1151.58  1164.88  1171.40
eigval :     1181.25  1181.82  1181.95  1182.72  1185.74  1188.56
eigval :     1191.31  1195.89  1199.33  1201.59  1203.50  1208.95
eigval :     1217.39  1248.25  1255.84  1260.27  1264.32  1266.72
eigval :     1271.88  1272.40  1279.23  1282.41  1283.60  1284.94
eigval :     1289.55  1311.58  1313.34  1316.59  1319.57  1320.02
eigval :     1321.37  1322.13  1326.25  1332.60  1339.05  1346.79
eigval :     1368.35  1375.18  1394.53  1401.46  1407.54  1407.91
eigval :     1414.32  1419.92  1429.86  1430.02  1432.08  1435.29
eigval :     1435.88  1450.80  1462.02  1466.97  1486.75  1489.35
eigval :     1500.76  1513.80  1517.54  1536.76  1544.27  1555.94
eigval :     1559.18  1563.84  1567.04  1571.45  1573.19  1578.64
eigval :     1580.68  1582.81  1589.86  1591.57  1594.52  1597.00
eigval :     1597.95  1600.12  1601.96  1604.96  3068.45  3071.74
eigval :     3073.20  3073.36  3075.05  3076.41  3078.86  3079.69
eigval :     3080.90  3082.18  3084.20  3084.32  3084.87  3086.37
eigval :     3086.79  3087.93  3088.08  3089.57  3091.33  3092.92
eigval :     3094.01  3094.92  3095.96  3097.07  3098.41  3099.52
eigval :     3100.01  3103.29  3106.15  3106.45  3106.99  3108.10
eigval :     3109.61  3110.65  3113.35

   temp. (K)  partition function   enthalpy   heat capacity  entropy
                                   cal/mol     cal/K/mol   cal/K/mol   J/K/mol
 298.15  VIB  0.282E+26            29529.247    179.980    188.415
         ROT  0.246E+09              888.752      2.981     41.376
         INT  0.695E+34            30417.999    182.961    229.791
         TR   0.223E+29             1481.254      4.968     45.928
         TOT                       31899.2532   187.9289   275.7192  1153.6092

       T/K    H(0)-H(T)+PV         H(T)/Eh          T*S/Eh         G(T)/Eh
   ------------------------------------------------------------------------
    298.15    0.508347E-01    0.778285E+00    0.131003E+00    0.647282E+00
   ------------------------------------------------------------------------

         :::::::::::::::::::::::::::::::::::::::::::::::::::::
         ::                  THERMODYNAMIC                  ::
         :::::::::::::::::::::::::::::::::::::::::::::::::::::
         :: total free energy        -160.951605005100 Eh   ::
         ::.................................................::
         :: total energy             -161.598887182691 Eh   ::
         :: zero point energy           0.727450583310 Eh   ::
         :: G(RRHO) w/o ZPVE           -0.080168405719 Eh   ::
         :: G(RRHO) contrib.            0.647282177591 Eh   ::
         :::::::::::::::::::::::::::::::::::::::::::::::::::::

           -------------------------------------------------
          | TOTAL ENERGY             -161.598887182691 Eh   |
          | TOTAL ENTHALPY           -160.820601903698 Eh   |
          | TOTAL FREE ENERGY        -160.951605005100 Eh   |
          | GRADIENT NORM               0.000173722298 Eh/α |
          | HOMO-LUMO GAP               2.033094480132 eV   |
           -------------------------------------------------

 * finished run on 2025/08/26 at 02:49:45.825
