   * xtb version 6.7.1 (edcfbbe) compiled by 'albert@albert-system' on 2024-07-22

   ID    Z sym.   atoms
    1    9 F      1, 3, 4
    2    6 C      2, 5-8, 10-18, 20-26, 28-45, 47-62
    3    7 N      9, 19, 27, 46
    4    1 H      63-97

          program call               : xtb data2507/gas/PPI-PIM-2/PPI-PIM-2_gas_T1_crest.xyz --gfn 2 --spinpol --tblite --uhf 2 --ohess vtight --parallel 40 --molden --ceasefiles --namespace data2507/gas/PPI-PIM-2/PPI-PIM-2_gas_T1_finalOpt
 * total energy  :  -161.5175707 Eh     change        0.2666155E-08 Eh
 * total energy  :  -161.5175835 Eh     change       -0.1286057E-04 Eh
 * total energy  :  -161.5175916 Eh     change       -0.8082417E-05 Eh
 * total energy  :  -161.5175939 Eh     change       -0.2313004E-05 Eh
 * total energy  :  -161.5175974 Eh     change       -0.3463691E-05 Eh
 * total energy  :  -161.5176004 Eh     change       -0.3036645E-05 Eh
 * total energy  :  -161.5176034 Eh     change       -0.2962422E-05 Eh
 * total energy  :  -161.5176055 Eh     change       -0.2153796E-05 Eh
 * total energy  :  -161.5176072 Eh     change       -0.1722710E-05 Eh
 * total energy  :  -161.5176087 Eh     change       -0.1431071E-05 Eh
 * total energy  :  -161.5176140 Eh     change       -0.1370071E-05 Eh
 * total energy  :  -161.5176149 Eh     change       -0.9167254E-06 Eh
 * total energy  :  -161.5176155 Eh     change       -0.5415795E-06 Eh
 * total energy  :  -161.5176160 Eh     change       -0.5027651E-06 Eh
 * total energy  :  -161.5176165 Eh     change       -0.5654327E-06 Eh
 * total energy  :  -161.5176172 Eh     change       -0.6465918E-06 Eh
 * total energy  :  -161.5176178 Eh     change       -0.6410780E-06 Eh
 * total energy  :  -161.5176183 Eh     change       -0.5103331E-06 Eh
 * total energy  :  -161.5176183 Eh     change       -0.2212971E-08 Eh
   *** GEOMETRY OPTIMIZATION CONVERGED AFTER 22 ITERATIONS ***

 final structure:
================
97
 xtb: 6.7.1 (edcfbbe)
F           -4.19367644133077       -5.41174837082523       -2.68980327548535
C           -4.29292201673372       -5.19281428896022       -1.36771255546133
F           -5.25202303930069       -6.01701297321300       -0.91712978812844
F           -3.13592558343518       -5.64660484370132       -0.83373427470845
C           -4.54539452444599       -3.75686230622245       -1.03185795599871
C           -3.97788751209381       -2.75692009111081       -1.82016129283577
C           -4.17159057744652       -1.43393748585150       -1.49369867996775
C           -4.93829411590244       -1.09147120411137       -0.37254193124953
N           -5.11014550449859        0.24862464801393       -0.03485248248476
C           -4.06354866503208        1.18234215928645        0.15283372366649
C           -2.68839039980176        0.92712020726911        0.21674310133797
C           -2.08506336299849       -0.35276900542683        0.38580213210268
C           -0.73082350369557       -0.49052674963300        0.42242573855938
C            0.14545830796520        0.61733217744333        0.31058708068991
C            1.57378294147313        0.44718523359403        0.32696515775874
C            2.43479674091403        1.47588027482160        0.75853922905956
C            3.79771943344267        1.30877829399200        0.78330504326139
C            4.36429205981672        0.10250270839334        0.36794617905119
N            5.75493372898346       -0.07397873381382        0.37668881217446
C            6.45621046888232       -1.11919588145511        0.93452668682869
C            5.88243442685875       -2.20718007599490        1.70517104032220
C            4.75855840959966       -2.04438952567793        2.51478863326018
C            4.26424066459912       -3.11455799064941        3.23624402541318
C            4.88455312207104       -4.35136458977003        3.17035739347832
C            6.01869598663279       -4.51254261858126        2.38983361534628
C            6.51812829758747       -3.44929254060240        1.66469493453146
N            7.74161435684018       -0.98603314727461        0.72154932458590
C            7.91771422518661        0.16549313083587        0.02186218312071
C            9.24295654134915        0.56819357423558       -0.41355575119122
C            9.44533165505916        1.37171317711444       -1.53567703432221
C           10.72605936755667        1.72305820617389       -1.91652053783727
C           11.82037948476595        1.27640491343437       -1.19304642667018
C           11.62848617338218        0.46141032790429       -0.08843093630844
C           10.35167190582287        0.10569517575653        0.29739339370118
C            6.67964192271003        0.76498588900682       -0.19421598499421
C            6.32065057840816        2.00522389519246       -0.86730377818228
C            6.99738920197584        3.18429484475053       -0.55440426713305
C            6.65955768249468        4.36870354147006       -1.17983476485157
C            5.64386039638917        4.39463240724557       -2.12225403139903
C            4.97036788883080        3.22717961102028       -2.44136441901956
C            5.30313111734281        2.03847168158415       -1.81974717630764
C            3.53267003199808       -0.92970735673475       -0.07356449772601
C            2.17078808989635       -0.76076186974406       -0.08752021912066
C           -0.45688398721495        1.89835057485667        0.20908310926804
C           -1.80653168161887        2.05032364516068        0.16905281144572
N           -4.56748630432892        2.41212253977487        0.37567669545883
C           -5.88387637523473        2.28975919508015        0.40161964616810
C           -6.84331761279959        3.30470660617599        0.68979995761456
C           -6.43389221528988        4.59456548161796        1.03497018409489
C           -7.36448593959931        5.55550048320329        1.36179362808217
C           -8.71362870532084        5.22311084326142        1.35455098096229
C           -9.12766016856867        3.95272334747661        1.00682788516590
C           -8.21190185120250        2.95540351246499        0.65109331812582
C           -8.61568698091775        1.62233132839094        0.22801977290298
C           -9.96005234248051        1.29113560706454        0.05699725690221
C          -10.36225684088122        0.05131297938198       -0.39686309419345
C           -9.40987228425490       -0.90980624169804       -0.72868395098403
C           -8.07771658584850       -0.63339079790358       -0.56734665117969
C           -7.64000850614894        0.61271076691482       -0.06480814208197
C           -6.28622859161643        0.94770217803793        0.12115584725981
C           -5.50335341350383       -2.10215135988113        0.41499339759177
C           -5.30412985378664       -3.42521488269971        0.08976256398580
H           -3.39680345979525       -3.02481667044415       -2.68887349133336
H           -3.73684772400876       -0.65140672346188       -2.09591724680353
H           -2.70278321891878       -1.22035364610142        0.55124638310003
H           -0.31516827978685       -1.47187158692152        0.59564518495989
H            2.01886609897948        2.40382134413635        1.11796219234971
H            4.43843819201684        2.10216493099506        1.13932821459155
H            4.28214318474819       -1.07904930642288        2.59960181049479
H            3.39208018183909       -2.97936503464721        3.85891803797256
H            4.49087268703258       -5.18427707142473        3.73371033495916
H            6.51287670204520       -5.47185754460706        2.34676412194189
H            7.40100333374885       -3.55596465006125        1.05398701175597
H            8.60026912211943        1.70600917627805       -2.11857142139679
H           10.87251419250384        2.34504023960180       -2.78778885623388
H           12.81915268246060        1.55620556385365       -1.49452161315255
H           12.47967642192535        0.10327145299685        0.47228610522898
H           10.18455260108893       -0.53102542767739        1.15223127238582
H            7.78571766583804        3.16056753436294        0.18380986477387
H            7.18820137538862        5.27640009530073       -0.92873859610739
H            5.37979184077438        5.32199045779176       -2.60825522016001
H            4.18237634458675        3.24101748946665       -3.17984453336872
H            4.78285688739889        1.12882349558903       -2.08300206069069
H            3.97367501028076       -1.85601617887731       -0.41204015085057
H            1.55119878695490       -1.55950848386672       -0.46381932384017
H            0.17299171862876        2.77020857555359        0.11897812686634
H           -2.25617752590914        3.02519906958749        0.07069808411132
H           -5.37547193475652        4.80257468504665        1.04380033347323
H           -7.05214811110733        6.55368669385249        1.62894318092104
H           -9.45093464186131        5.96571768988550        1.62298152972592
H          -10.18537019527761        3.74381868026759        1.02123079884011
H          -10.72349594531681        2.02213540317381        0.26893238332669
H          -11.41334597085424       -0.16491632566265       -0.51327594188953
H           -9.71923741371784       -1.86801051089207       -1.11826025633189
H           -7.34842775324628       -1.37185854846545       -0.85578077411538
H           -6.08359232908271       -1.83428417791842        1.28501851553115
H           -5.72957399031938       -4.20614008633845        0.70072361530702

 projected vibrational frequencies (cm⁻¹)
eigval :       -0.00    -0.00    -0.00     0.00     0.00     0.00
eigval :        6.55     7.48    10.27    13.99    15.75    17.36
eigval :       23.08    31.87    33.03    35.69    42.76    46.38
eigval :       50.09    52.78    55.73    65.34    74.65    80.15
eigval :       83.35    89.64    98.58   104.86   116.47   125.04
eigval :      128.25   134.10   136.95   150.54   173.82   181.22
eigval :      187.98   202.86   220.40   226.52   237.20   240.55
eigval :      241.71   255.30   259.28   260.64   269.06   281.60
eigval :      302.61   321.81   344.65   353.13   365.85   369.66
eigval :      371.66   374.14   375.53   376.21   379.16   381.64
eigval :      386.60   390.71   395.69   404.80   410.04   413.11
eigval :      428.53   446.30   448.23   457.80   461.22   476.37
eigval :      483.28   492.79   497.92   505.54   513.94   520.55
eigval :      525.73   525.80   548.35   557.04   582.29   584.09
eigval :      586.03   588.54   589.42   593.95   599.79   609.87
eigval :      622.46   624.69   636.29   646.69   650.20   656.12
eigval :      659.16   659.64   663.32   669.65   670.29   671.95
eigval :      674.69   678.50   685.23   686.55   690.74   716.26
eigval :      728.46   740.75   754.13   754.99   758.25   762.57
eigval :      764.27   775.01   776.39   793.74   799.34   816.62
eigval :      817.81   821.03   846.56   850.72   864.36   868.08
eigval :      875.62   876.33   877.31   898.24   902.64   902.82
eigval :      903.21   908.09   909.57   912.25   913.57   914.19
eigval :      916.10   917.69   919.26   923.42   923.92   929.32
eigval :      929.64   929.85   930.90   931.61   932.08   932.90
eigval :      938.13   942.44   958.62   974.01   981.89   989.33
eigval :      999.78  1008.36  1011.25  1026.86  1041.68  1050.71
eigval :     1060.63  1068.35  1080.56  1081.13  1081.92  1083.46
eigval :     1090.97  1104.51  1106.40  1119.14  1120.35  1121.68
eigval :     1133.68  1135.20  1140.51  1150.93  1155.90  1160.71
eigval :     1170.48  1180.25  1180.51  1180.96  1181.40  1183.85
eigval :     1186.27  1193.38  1195.17  1197.48  1200.81  1202.55
eigval :     1215.92  1228.29  1241.69  1249.55  1251.79  1258.76
eigval :     1262.12  1264.18  1272.99  1276.52  1279.04  1280.60
eigval :     1282.52  1286.05  1307.32  1314.81  1317.96  1322.05
eigval :     1324.22  1326.85  1328.54  1328.90  1332.88  1335.13
eigval :     1351.29  1359.41  1389.77  1392.85  1396.06  1404.44
eigval :     1411.40  1414.53  1423.19  1425.40  1428.82  1430.47
eigval :     1433.26  1440.39  1444.85  1451.39  1458.02  1462.74
eigval :     1475.99  1478.00  1483.90  1485.04  1505.82  1509.82
eigval :     1514.34  1530.42  1534.29  1541.63  1546.36  1555.32
eigval :     1564.35  1574.85  1576.20  1577.82  1579.10  1580.20
eigval :     1588.76  1592.19  1594.90  1595.27  3071.81  3075.49
eigval :     3076.44  3076.48  3077.09  3077.56  3080.81  3081.45
eigval :     3082.93  3083.62  3084.18  3084.51  3087.36  3087.53
eigval :     3089.27  3089.44  3089.95  3092.50  3093.75  3094.66
eigval :     3095.11  3096.30  3097.55  3100.41  3102.37  3103.86
eigval :     3104.81  3105.83  3106.15  3107.40  3108.31  3111.86
eigval :     3113.20  3113.90  3126.65

   temp. (K)  partition function   enthalpy   heat capacity  entropy
                                   cal/mol     cal/K/mol   cal/K/mol   J/K/mol
 298.15  VIB  0.240E+26            29796.087    182.057    189.369
         ROT  0.254E+09              888.752      2.981     41.437
         INT  0.609E+34            30684.839    185.038    230.806
         TR   0.223E+29             1481.254      4.968     45.928
         TOT                       32166.0933   190.0060   276.7346  1157.8575

       T/K    H(0)-H(T)+PV         H(T)/Eh          T*S/Eh         G(T)/Eh
   ------------------------------------------------------------------------
    298.15    0.512599E-01    0.774372E+00    0.131486E+00    0.642887E+00
   ------------------------------------------------------------------------

         :::::::::::::::::::::::::::::::::::::::::::::::::::::
         ::                  THERMODYNAMIC                  ::
         :::::::::::::::::::::::::::::::::::::::::::::::::::::
         :: total free energy        -160.874731668296 Eh   ::
         ::.................................................::
         :: total energy             -161.517618341783 Eh   ::
         :: zero point energy           0.723112266908 Eh   ::
         :: G(RRHO) w/o ZPVE           -0.080225593421 Eh   ::
         :: G(RRHO) contrib.            0.642886673487 Eh   ::
         :::::::::::::::::::::::::::::::::::::::::::::::::::::

           -------------------------------------------------
          | TOTAL ENERGY             -161.517618341783 Eh   |
          | TOTAL ENTHALPY           -160.743246142342 Eh   |
          | TOTAL FREE ENERGY        -160.874731668296 Eh   |
          | GRADIENT NORM               0.000071023166 Eh/α |
           -------------------------------------------------

 * finished run on 2025/08/26 at 02:57:43.217
