   * xtb version 6.7.1 (edcfbbe) compiled by 'albert@albert-system' on 2024-07-22

   ID    Z sym.   atoms
    1    9 F      1, 3, 4
    2    6 C      2, 5-8, 10-18, 20-26, 28-45, 47-62
    3    7 N      9, 19, 27, 46
    4    1 H      63-97

          program call               : xtb data2507/gas/PPI-PIM-2/PPI-PIM-2_gas_S0_finalOpt.xtbopt.xyz --gfn 2 --spinpol --tblite --uhf 2 --ohess vtight --parallel 40 --molden --ceasefiles --namespace data2507/gas/PPI-PIM-2/PPI-PIM-2_gas_T1_preOpt
 * total energy  :  -161.5064784 Eh     change       -0.7685540E-07 Eh
 * total energy  :  -161.5117450 Eh     change       -0.5266658E-02 Eh
 * total energy  :  -161.5145683 Eh     change       -0.2823289E-02 Eh
 * total energy  :  -161.5152917 Eh     change       -0.7234068E-03 Eh
 * total energy  :  -161.5161575 Eh     change       -0.8657943E-03 Eh
 * total energy  :  -161.5165738 Eh     change       -0.4162600E-03 Eh
 * total energy  :  -161.5168418 Eh     change       -0.2680503E-03 Eh
 * total energy  :  -161.5170159 Eh     change       -0.1740540E-03 Eh
 * total energy  :  -161.5171432 Eh     change       -0.1273352E-03 Eh
 * total energy  :  -161.5172252 Eh     change       -0.8197426E-04 Eh
 * total energy  :  -161.5176160 Eh     change       -0.8850071E-06 Eh
 * total energy  :  -161.5176168 Eh     change       -0.7886846E-06 Eh
 * total energy  :  -161.5176176 Eh     change       -0.8286014E-06 Eh
 * total energy  :  -161.5176188 Eh     change       -0.1132265E-05 Eh
 * total energy  :  -161.5176196 Eh     change       -0.8624136E-06 Eh
 * total energy  :  -161.5176204 Eh     change       -0.7488567E-06 Eh
 * total energy  :  -161.5176210 Eh     change       -0.6359502E-06 Eh
 * total energy  :  -161.5176217 Eh     change       -0.6477255E-06 Eh
 * total energy  :  -161.5176217 Eh     change       -0.6065676E-08 Eh
   *** GEOMETRY OPTIMIZATION CONVERGED AFTER 68 ITERATIONS ***

 final structure:
================
97
 xtb: 6.7.1 (edcfbbe)
F           -4.08281771755021       -5.43910279292312       -2.76232595133090
C           -4.19730710902208       -5.23807268611197       -1.43843390815848
F           -5.14434989630186       -6.08539019975586       -1.00610653843467
F           -3.03632257224602       -5.67636539795944       -0.90027554434096
C           -4.47917682125372       -3.81098586913150       -1.08839126064230
C           -3.90765536857236       -2.79269247169754       -1.84987664049196
C           -4.12777635276656       -1.47706519028014       -1.51078697679581
C           -4.92519128893145       -1.16048422469673       -0.40349442797808
N           -5.12205735215046        0.17248500810265       -0.05138234024254
C           -4.09140883083073        1.11583581206579        0.17272045605302
C           -2.71474221818765        0.87633024236173        0.25948710191920
C           -2.09842626087628       -0.39842425655107        0.42104022947927
C           -0.74315464101738       -0.52113974219172        0.46899905097490
C            0.12132686162806        0.59792460943007        0.37765644387106
C            1.55137652630559        0.44403166586796        0.39398209883644
C            2.40059320893590        1.47786064670387        0.83670248462715
C            3.76571009569601        1.32909421775531        0.85193189486666
C            4.34653822365220        0.13681247849696        0.41632756621991
N            5.74002391203201       -0.01628940054173        0.40721180536506
C            6.46770849434434       -1.05377568179724        0.94499981837384
C            5.92434802810156       -2.16056795988542        1.71071100496426
C            4.80382962587093       -2.03008660344126        2.53077506047093
C            4.33848536932222       -3.11775883676196        3.24531613805836
C            4.98473489802804       -4.34015778490707        3.16225113245197
C            6.11595097145834       -4.46902700717044        2.37151014504716
C            6.58644325913173       -3.38819488998753        1.65310348937842
N            7.74747591091986       -0.89465268835034        0.71609558672632
C            7.89302368937844        0.26663050585783        0.02550096420025
C            9.20478658155469        0.69774219552697       -0.42324306189660
C            9.37750205086044        1.52344795036012       -1.53420738735014
C           10.64652680160128        1.90274479800088       -1.92724708716526
C           11.75863483519720        1.46187593468155       -1.22776135913038
C           11.59646271492106        0.62445593495267       -0.13520396350426
C           10.33147697751575        0.24126252498720        0.26303710858423
C            6.64123002270830        0.84504355384000       -0.16804196815658
C            6.24777518501058        2.08344472746325       -0.82529796747503
C            6.90301433518514        3.27418289896843       -0.51099564369467
C            6.53088175183645        4.45638772460788       -1.12101729668371
C            5.50155529677280        4.46855676833623       -2.04880537716044
C            4.84924715560061        3.28953410151022       -2.36933420630945
C            5.21673037488675        2.10292657196599       -1.76351976155830
C            3.52664246721599       -0.90190585237900       -0.03168258675867
C            2.16253043923233       -0.75125312947384       -0.03655382088522
C           -0.49512245676243        1.87352872825056        0.29208198075347
C           -1.84593774864144        2.01049813898621        0.24089450590768
N           -4.61504716950833        2.33636136309511        0.40045133501550
C           -5.93017674358665        2.19841554465541        0.39311658547732
C           -6.90817259899535        3.19878434149948        0.66958229208336
C           -6.52227384412170        4.48870220709153        1.04070279572118
C           -7.47169675829133        5.43562142125218        1.35390036471612
C           -8.81646597499527        5.08912882781254        1.30602455878414
C           -9.20709520742224        3.81861360532256        0.93269225132648
C           -8.27128231800757        2.83510646769456        0.59087400610978
C           -8.64892804791773        1.50246504215481        0.14302910937887
C           -9.98479955173194        1.15749157287575       -0.06380810918112
C          -10.36117418199448       -0.08145496493246       -0.54152150822903
C           -9.38971796933130       -1.02729908168782       -0.86174618839687
C           -8.06521525225905       -0.73732721800236       -0.66504624837287
C           -7.65462403213400        0.50765769750193       -0.13754123197593
C           -6.30974104162550        0.85576137721121        0.08539067311774
C           -5.49454482719025       -2.18939635748474        0.35673748016756
C           -5.26907976055756       -3.50513166008779        0.01887824713465
H           -3.30243116327107       -3.04085305234942       -2.70791540370545
H           -3.69021789058809       -0.68052716744990       -2.09222983493328
H           -2.70789744288190       -1.27466772939905        0.57088190644268
H           -0.31781203863328       -1.49970008238061        0.63426513863878
H            1.97420884440736        2.39521805959982        1.21068824894658
H            4.39757998478153        2.12652882139127        1.21468437706417
H            4.30736515010034       -1.07619851423938        2.62898865584929
H            3.46860412007956       -3.00761018089260        3.87606070880965
H            4.61348805290761       -5.18693995492162        3.72013087061504
H            6.63035584855947       -5.41694867481356        2.31505032537864
H            7.46641911389059       -3.46965497821192        1.03439174777231
H            8.51876130788673        1.85351699390799       -2.09918257962383
H           10.76975706960365        2.54230883567833       -2.78934096558689
H           12.74809749030888        1.76364945291468       -1.53861146365354
H           12.46163713142110        0.27040221129797        0.40638736637223
H           10.18746405243723       -0.41279941183771        1.10893389197315
H            7.70196051214056        3.26120852886813        0.21599345616567
H            7.04338221382005        5.37310352410842       -0.86923144463535
H            5.21039187196736        5.39423774542802       -2.52236254962193
H            4.05058058504846        3.29262681204347       -3.09637971641916
H            4.71287896741704        1.18452137072092       -2.02825401301120
H            3.97837240957337       -1.81795526175290       -0.38368632923668
H            1.55196640955073       -1.55383133898052       -0.41936736450284
H            0.12503677152503        2.75412471146554        0.22228757150726
H           -2.30609455350897        2.98147313184715        0.15318911413680
H           -5.46681498406696        4.70793912017610        1.07994968155866
H           -7.17754528613361        6.43374051995759        1.64119046835654
H           -9.56881494705223        5.82076001751669        1.56259391918820
H          -10.26251432556010        3.59866246472220        0.91544751726439
H          -10.76185955138745        1.87673256055644        0.13863276863384
H          -11.40654483403576       -0.30865507457794       -0.68532624407415
H           -9.67822424939026       -1.98430663282440       -1.26982924422638
H           -7.32038532755457       -1.46376939460793       -0.94418198421918
H           -6.09878593458011       -1.94143869699647        1.21627306928237
H           -5.69777508699294       -4.29998884989921        0.60923799310637

 projected vibrational frequencies (cm⁻¹)
eigval :       -0.00    -0.00    -0.00     0.00     0.00     0.00
eigval :        6.63     7.31     9.93    15.05    16.86    17.46
eigval :       23.44    31.90    33.39    35.94    42.89    46.84
eigval :       50.14    53.42    55.74    65.23    74.84    80.45
eigval :       83.18    89.15    98.48   104.33   116.59   125.03
eigval :      128.46   133.89   137.30   150.81   173.87   181.22
eigval :      188.07   202.91   220.16   226.42   237.42   240.97
eigval :      241.75   255.44   259.10   260.94   268.81   281.61
eigval :      302.72   321.93   344.78   353.32   365.64   369.73
eigval :      371.65   374.22   375.70   376.21   379.34   381.85
eigval :      386.51   390.88   395.64   404.82   409.97   412.88
eigval :      428.48   446.42   448.25   457.75   461.14   476.49
eigval :      483.11   492.83   497.91   505.55   513.80   520.63
eigval :      525.70   525.96   548.49   557.09   582.36   584.23
eigval :      586.18   588.65   589.45   594.05   599.85   609.95
eigval :      622.53   624.67   636.40   646.62   650.27   656.09
eigval :      659.23   659.58   663.36   669.63   670.17   671.96
eigval :      674.68   678.54   685.24   686.64   690.60   716.29
eigval :      728.48   740.83   754.21   754.91   758.40   762.74
eigval :      764.34   774.92   776.42   793.87   799.11   816.31
eigval :      817.64   820.42   846.28   850.44   864.26   867.84
eigval :      875.74   876.35   877.48   898.18   902.80   903.00
eigval :      903.35   907.83   909.43   911.74   913.33   913.90
eigval :      916.02   917.61   919.26   923.38   924.01   929.46
eigval :      929.79   930.06   931.06   931.79   932.24   933.08
eigval :      938.24   942.46   958.68   974.06   981.75   989.15
eigval :      999.64  1008.12  1011.44  1026.59  1041.43  1050.61
eigval :     1060.24  1068.67  1080.22  1081.07  1081.63  1083.14
eigval :     1090.82  1104.35  1106.82  1119.00  1120.24  1121.49
eigval :     1133.58  1135.16  1140.55  1150.89  1155.74  1160.91
eigval :     1170.40  1180.47  1180.75  1181.12  1181.57  1184.07
eigval :     1186.33  1193.12  1195.35  1197.68  1200.97  1202.53
eigval :     1216.43  1228.72  1241.66  1249.58  1251.68  1258.90
eigval :     1262.34  1264.27  1273.19  1276.81  1278.97  1280.76
eigval :     1282.54  1286.15  1307.30  1314.81  1317.87  1322.11
eigval :     1324.36  1326.92  1328.58  1328.92  1332.89  1335.47
eigval :     1351.58  1359.65  1389.89  1392.90  1396.15  1404.55
eigval :     1411.59  1414.63  1423.39  1425.53  1429.19  1430.81
eigval :     1433.54  1440.75  1445.58  1451.96  1458.45  1462.61
eigval :     1476.20  1478.18  1484.14  1485.40  1505.77  1509.98
eigval :     1514.62  1530.24  1534.27  1541.88  1546.50  1555.29
eigval :     1564.50  1574.81  1576.19  1577.82  1579.23  1580.31
eigval :     1589.14  1592.14  1594.79  1595.23  3072.09  3075.96
eigval :     3076.75  3076.88  3077.41  3077.89  3081.03  3081.65
eigval :     3082.98  3083.83  3084.49  3084.71  3087.80  3087.96
eigval :     3089.78  3089.95  3090.15  3092.69  3093.91  3095.28
eigval :     3095.40  3096.47  3097.80  3100.81  3102.64  3103.97
eigval :     3105.27  3106.36  3106.60  3107.77  3108.50  3112.28
eigval :     3113.26  3113.56  3126.79

   temp. (K)  partition function   enthalpy   heat capacity  entropy
                                   cal/mol     cal/K/mol   cal/K/mol   J/K/mol
 298.15  VIB  0.206E+26            29789.410    182.094    189.254
         ROT  0.253E+09              888.752      2.981     41.434
         INT  0.522E+34            30678.163    185.075    230.688
         TR   0.223E+29             1481.254      4.968     45.928
         TOT                       32159.4165   190.0431   276.6166  1157.3640

       T/K    H(0)-H(T)+PV         H(T)/Eh          T*S/Eh         G(T)/Eh
   ------------------------------------------------------------------------
    298.15    0.512493E-01    0.774414E+00    0.131429E+00    0.642985E+00
   ------------------------------------------------------------------------

         :::::::::::::::::::::::::::::::::::::::::::::::::::::
         ::                  THERMODYNAMIC                  ::
         :::::::::::::::::::::::::::::::::::::::::::::::::::::
         :: total free energy        -160.874637131031 Eh   ::
         ::.................................................::
         :: total energy             -161.517621654666 Eh   ::
         :: zero point energy           0.723164715531 Eh   ::
         :: G(RRHO) w/o ZPVE           -0.080180191895 Eh   ::
         :: G(RRHO) contrib.            0.642984523635 Eh   ::
         :::::::::::::::::::::::::::::::::::::::::::::::::::::

           -------------------------------------------------
          | TOTAL ENERGY             -161.517621654666 Eh   |
          | TOTAL ENTHALPY           -160.743207646726 Eh   |
          | TOTAL FREE ENERGY        -160.874637131031 Eh   |
          | GRADIENT NORM               0.000059587203 Eh/α |
           -------------------------------------------------

 * finished run on 2025/08/26 at 02:50:05.866
