   * xtb version 6.7.1 (edcfbbe) compiled by 'albert@albert-system' on 2024-07-22

   ID    Z sym.   atoms
    1    9 F      1, 3, 4
    2    6 C      2, 5-8, 10-18, 20-26, 28-45, 47-62
    3    7 N      9, 19, 27, 46
    4    1 H      63-97

          program call               : xtb data2507/gas/PPI-PIM-2/PPI-PIM-2.xyz --gfn 2 --ohess vtight --parallel 40 --molden --ceasefiles --namespace data2507/gas/PPI-PIM-2/PPI-PIM-2_gas_S0_preOpt
          :  Hamiltonian                  GFN2-xTB          :
 * total energy  :  -161.5715076 Eh     change       -0.3428113E-08 Eh
 * total energy  :  -161.5858586 Eh     change       -0.1435097E-01 Eh
 * total energy  :  -161.5900070 Eh     change       -0.4148388E-02 Eh
 * total energy  :  -161.5915245 Eh     change       -0.1517555E-02 Eh
 * total energy  :  -161.5927276 Eh     change       -0.1203045E-02 Eh
 * total energy  :  -161.5935687 Eh     change       -0.8410583E-03 Eh
 * total energy  :  -161.5943078 Eh     change       -0.7391443E-03 Eh
 * total energy  :  -161.5950523 Eh     change       -0.7444720E-03 Eh
 * total energy  :  -161.5956968 Eh     change       -0.6445639E-03 Eh
 * total energy  :  -161.5962538 Eh     change       -0.5569605E-03 Eh
 * total energy  :  -161.5988415 Eh     change       -0.6273491E-06 Eh
 * total energy  :  -161.5988421 Eh     change       -0.5554098E-06 Eh
 * total energy  :  -161.5988427 Eh     change       -0.6094026E-06 Eh
 * total energy  :  -161.5988433 Eh     change       -0.5730067E-06 Eh
 * total energy  :  -161.5988438 Eh     change       -0.5036887E-06 Eh
 * total energy  :  -161.5988443 Eh     change       -0.4803190E-06 Eh
 * total energy  :  -161.5988448 Eh     change       -0.5074125E-06 Eh
 * total energy  :  -161.5988453 Eh     change       -0.5407387E-06 Eh
 * total energy  :  -161.5988453 Eh     change       -0.9920768E-08 Eh
   *** GEOMETRY OPTIMIZATION CONVERGED AFTER 68 ITERATIONS ***

 final structure:
================
97
 xtb: 6.7.1 (edcfbbe)
F           -2.73484663232895       -5.20267348017582       -2.53574331510253
C           -4.01216564278367       -5.14534725269284       -2.12419770364165
F           -4.76255993489183       -5.49043989549824       -3.18951421678570
F           -4.16735779566293       -6.12536150390108       -1.22333385354024
C           -4.38225814810466       -3.79100033179905       -1.59118521778290
C           -3.89334387901006       -2.65849819504870       -2.23114970115569
C           -4.23995440578311       -1.40610844447747       -1.76475357644191
C           -5.07743530653537       -1.28443629052067       -0.65872487503729
N           -5.38332053408465       -0.01153978860760       -0.15923691030473
C           -4.44914461912308        0.89984554879426        0.30031775179300
C           -3.01419564928993        0.67155837162052        0.32829879344106
C           -2.44888509984292       -0.56604609286071        0.63210807091339
C           -1.07788525126161       -0.72084192699845        0.64750734222230
C           -0.23136105569371        0.35218070667182        0.37521690236072
C            1.22640435912042        0.17759489561198        0.38959309409748
C            2.05426112544055        1.15197969691055        0.94420194726267
C            3.42441727455437        0.98900384510878        0.96526857214067
C            3.99451818683941       -0.15550012466374        0.41758999669217
N            5.38895432712603       -0.31989424324247        0.41617347399801
C            6.10711870732912       -1.39620955029218        0.87345776914395
C            5.54982495008292       -2.55935121546033        1.54360025023405
C            4.42739133006008       -2.48491431639195        2.36659602637417
C            3.94719815799839       -3.62240312494900        2.98843938816878
C            4.58121105230881       -4.84043362970079        2.80872580270154
C            5.71379295206385       -4.91591556500115        2.01360750570571
C            6.19763705157261       -3.78479869394303        1.38657785741273
N            7.38846696127994       -1.22567734665861        0.66651348537503
C            7.54217431369175       -0.01481067460058        0.06398547765442
C            8.86162753477029        0.45226479274524       -0.33373053016617
C            9.04394694745413        1.33906969221356       -1.39306979323897
C           10.31516867165005        1.75579029980859       -1.74019539472604
C           11.41938824387858        1.29029163573903       -1.04526452683732
C           11.24729029209473        0.39248746324122       -0.00411808484093
C            9.97934845801141       -0.02623363820001        0.34863926762946
C            6.30070020388450        0.57884258461687       -0.09566861733275
C            5.90898382692605        1.86554894477665       -0.65514758796666
C            6.56190721824527        3.02782161500752       -0.24541278611999
C            6.19068227948430        4.25487197288833       -0.75966421947675
C            5.16229518649588        4.34158655607530       -1.68461493553151
C            4.51214077813520        3.19182673355310       -2.09987268563725
C            4.88093127573626        1.96030824470652       -1.59149246217850
C            3.17991003645422       -1.13299483137271       -0.14567671683101
C            1.81035055529680       -0.96783973531718       -0.14999133214387
C           -0.80063088980372        1.59574080926877        0.10233505002778
C           -2.16952372475752        1.75425245520421        0.08010234754167
N           -5.00982100669216        1.99642650418882        0.73512393567269
C           -6.34922147504056        1.82829937608182        0.57531016345038
C           -7.38961265951475        2.72688565842658        0.94176248328801
C           -7.10613714032966        3.95452802700701        1.54913096768452
C           -8.12616779820004        4.79000724723518        1.92986932528440
C           -9.44651263162790        4.40199413139107        1.71055265676975
C           -9.73600795509789        3.19998581829663        1.10825592674271
C           -8.72136749647625        2.32315067574924        0.69437335573664
C           -8.99155991765233        1.06627371482621        0.01791707625498
C          -10.29647825658060        0.68055546683455       -0.32055007064503
C          -10.55954917223613       -0.48009954162155       -1.00847903591211
C           -9.51422306138645       -1.30484301017930       -1.41144557962910
C           -8.22210843420923       -0.96938519308048       -1.09064086390354
C           -7.93473091885336        0.19153965282655       -0.35821040244426
C           -6.61645301572230        0.58507836759100        0.00701263190485
C           -5.56858135211987       -2.42423343808469       -0.02390054434795
C           -5.22548685016572       -3.67678407222453       -0.49271371547620
H           -3.24377034307046       -2.76161672736492       -3.08645161346018
H           -3.86405636947395       -0.51816026062426       -2.24893379754361
H           -3.07708416490811       -1.40655904179699        0.88674265871793
H           -0.65538997683176       -1.68154844944411        0.90241220515593
H            1.61808137742027        2.03461182178121        1.38700129116319
H            4.05811202730396        1.74192110458675        1.40958952448061
H            3.93896561311821       -1.53718168665158        2.53954575693666
H            3.07561950271260       -3.55471800778820        3.62328482317259
H            4.19938919047081       -5.72587796310363        3.29513948995197
H            6.21941302278390       -5.86127148975394        1.88244157826801
H            7.08033621844240       -3.82434890342658        0.76765256130985
H            8.19067011779703        1.69196524090333       -1.95309710811694
H           10.44568508448161        2.44472195779874       -2.56252846835114
H           12.41067284888274        1.62071604461691       -1.31965844070452
H           12.10669395084039        0.01880199046897        0.53386371545718
H            9.82890181330464       -0.72849480759282        1.15395054704380
H            7.36066494245944        2.95642094378893        0.47830174539351
H            6.70265565057818        5.14872192087641       -0.43484743716052
H            4.87149047102547        5.30225078331537       -2.08301257502258
H            3.71510849700603        3.25250219001117       -2.82661506819378
H            4.37990375062279        1.06563482312642       -1.93287756575564
H            3.62810747233039       -2.01632473908818       -0.57605888069885
H            1.18589807844820       -1.72358073066500       -0.60244515167013
H           -0.16082638933522        2.43795008986422       -0.11578827760340
H           -2.61174418819510        2.71496607537141       -0.13237491472700
H           -6.07064396417566        4.21043104843475        1.71086975230521
H           -7.91308607373327        5.73814426422717        2.40072299700351
H          -10.25300413767391        5.05249685381477        2.01658820991092
H          -10.77272238766581        2.94161512568674        0.96251033533810
H          -11.12835003181201        1.30973719371985       -0.04892662149965
H          -11.57820266287221       -0.74359855025208       -1.25124733552450
H           -9.71563828496288       -2.20141250985033       -1.97838806462650
H           -7.41478254494258       -1.60031354435271       -1.42766756208062
H           -6.21651635808924       -2.31904652925340        0.83319446341302
H           -5.59970629940687       -4.56252788883571       -0.00336421279670

          :  Hamiltonian                  GFN2-xTB          :
         :: gradient norm              0.000059968673 Eh/a0 ::
         :: HOMO-LUMO gap              2.035830990037 eV    ::
         :: SCC energy              -164.377022690661 Eh    ::
         :: -> dispersion             -0.140713707497 Eh    ::
         :: repulsion energy           2.778177382164 Eh    ::

    * Orbital Energies and Occupations

         #    Occupation            Energy/Eh            Energy/eV
      -------------------------------------------------------------
         1        2.0000           -0.8843178             -24.0635
       ...           ...                  ...                  ...
       136        2.0000           -0.4123106             -11.2195
       137        2.0000           -0.4103835             -11.1671
       138        2.0000           -0.4079749             -11.1016
       139        2.0000           -0.4067586             -11.0685
       140        2.0000           -0.4057733             -11.0417
       141        2.0000           -0.3981262             -10.8336
       142        2.0000           -0.3945936             -10.7374
       143        2.0000           -0.3916546             -10.6575
       144        2.0000           -0.3896383             -10.6026
       145        2.0000           -0.3877200             -10.5504
       146        2.0000           -0.3739972             -10.1770
       147        2.0000           -0.3724450             -10.1347
       148        2.0000           -0.3599964              -9.7960 (HOMO)
       149                         -0.2851811              -7.7602 (LUMO)
       150                         -0.2734677              -7.4414
       151                         -0.2716084              -7.3908
       152                         -0.2568314              -6.9887
       153                         -0.2553737              -6.9491
       154                         -0.2502732              -6.8103
       155                         -0.2425286              -6.5995
       156                         -0.2399134              -6.5284
       157                         -0.2385872              -6.4923
       158                         -0.2338316              -6.3629
       159                         -0.2273381              -6.1862
       ...                                ...                  ...
       283                          0.7195461              19.5798
      -------------------------------------------------------------
                  HL-Gap            0.0748154 Eh            2.0358 eV

     #   Z          covCN         q      C6AA      α(0)
     1   9 F        0.791    -0.207    11.305     3.972
     2   6 C        3.336     0.486    17.279     6.583
     3   9 F        0.791    -0.209    11.329     3.976
     4   9 F        0.791    -0.204    11.279     3.967
     5   6 C        2.977    -0.027    28.660     8.781
     6   6 C        2.921    -0.020    28.500     8.754
     7   6 C        2.922    -0.034    28.842     8.807
     8   6 C        2.912     0.081    26.201     8.393
     9   7 N        2.841    -0.044    22.096     6.982
    10   6 C        3.185     0.127    24.803     8.127
    11   6 C        2.974     0.000    28.019     8.683
    12   6 C        2.920    -0.035    28.877     8.812
    13   6 C        2.924    -0.034    28.842     8.807
    14   6 C        2.977     0.012    27.733     8.638
    15   6 C        2.976     0.009    27.802     8.649
    16   6 C        2.925    -0.032    28.799     8.801
    17   6 C        2.920    -0.038    28.956     8.824
    18   6 C        2.914     0.066    26.512     8.443
    19   7 N        2.851    -0.037    21.954     6.959
    20   6 C        3.157     0.120    25.077     8.188
    21   6 C        2.974     0.003    27.953     8.672
    22   6 C        2.922    -0.034    28.858     8.809
    23   6 C        2.919    -0.029    28.732     8.790
    24   6 C        2.920    -0.029    28.736     8.791
    25   6 C        2.918    -0.027    28.683     8.782
    26   6 C        2.928    -0.028    28.708     8.787
    27   7 N        1.914    -0.289    28.338     7.893
    28   6 C        3.165     0.052    26.498     8.412
    29   6 C        2.974     0.010    27.781     8.646
    30   6 C        2.923    -0.037    28.924     8.820
    31   6 C        2.919    -0.030    28.759     8.794
    32   6 C        2.920    -0.032    28.804     8.801
    33   6 C        2.918    -0.030    28.743     8.792
    34   6 C        2.927    -0.030    28.749     8.793
    35   6 C        3.069     0.013    27.653     8.623
    36   6 C        2.972     0.009    27.813     8.651
    37   6 C        2.925    -0.032    28.804     8.801
    38   6 C        2.919    -0.028    28.705     8.786
    39   6 C        2.920    -0.031    28.774     8.797
    40   6 C        2.919    -0.030    28.739     8.791
    41   6 C        2.924    -0.034    28.849     8.808
    42   6 C        2.920    -0.039    28.963     8.825
    43   6 C        2.925    -0.032    28.798     8.800
    44   6 C        2.923    -0.032    28.793     8.800
    45   6 C        2.926    -0.027    28.687     8.783
    46   7 N        1.895    -0.282    28.163     7.868
    47   6 C        3.206     0.058    26.116     8.323
    48   6 C        2.986     0.003    27.942     8.671
    49   6 C        2.922    -0.030    28.761     8.795
    50   6 C        2.917    -0.029    28.727     8.789
    51   6 C        2.918    -0.031    28.784     8.798
    52   6 C        2.922    -0.034    28.850     8.808
    53   6 C        2.979    -0.000    28.034     8.685
    54   6 C        2.980     0.003    27.945     8.671
    55   6 C        2.922    -0.033    28.818     8.803
    56   6 C        2.916    -0.032    28.792     8.799
    57   6 C        2.917    -0.031    28.768     8.795
    58   6 C        2.919    -0.041    29.009     8.832
    59   6 C        2.978    -0.002    28.079     8.692
    60   6 C        3.068     0.019    27.510     8.600
    61   6 C        2.922    -0.033    28.812     8.802
    62   6 C        2.919    -0.022    28.553     8.763
    63   1 H        0.926     0.065     2.142     2.289
    64   1 H        0.926     0.059     2.214     2.327
    65   1 H        0.926     0.025     2.657     2.549
    66   1 H        0.926     0.037     2.486     2.466
    67   1 H        0.926     0.042     2.420     2.433
    68   1 H        0.926     0.042     2.428     2.437
    69   1 H        0.926     0.025     2.664     2.552
    70   1 H        0.926     0.030     2.586     2.515
    71   1 H        0.926     0.033     2.547     2.496
    72   1 H        0.926     0.036     2.506     2.476
    73   1 H        0.926     0.052     2.291     2.367
    74   1 H        0.926     0.025     2.659     2.550
    75   1 H        0.926     0.026     2.644     2.543
    76   1 H        0.926     0.027     2.631     2.536
    77   1 H        0.926     0.029     2.601     2.522
    78   1 H        0.926     0.049     2.328     2.386
    79   1 H        0.926     0.034     2.532     2.488
    80   1 H        0.926     0.033     2.550     2.497
    81   1 H        0.926     0.031     2.573     2.508
    82   1 H        0.926     0.029     2.602     2.523
    83   1 H        0.926     0.024     2.676     2.558
    84   1 H        0.926     0.041     2.431     2.438
    85   1 H        0.926     0.041     2.437     2.441
    86   1 H        0.926     0.041     2.433     2.439
    87   1 H        0.926     0.054     2.266     2.354
    88   1 H        0.926     0.052     2.297     2.370
    89   1 H        0.926     0.033     2.547     2.496
    90   1 H        0.926     0.031     2.574     2.509
    91   1 H        0.926     0.033     2.546     2.495
    92   1 H        0.926     0.037     2.486     2.465
    93   1 H        0.926     0.032     2.553     2.499
    94   1 H        0.926     0.031     2.577     2.510
    95   1 H        0.926     0.022     2.702     2.571
    96   1 H        0.926     0.063     2.169     2.303
    97   1 H        0.926     0.067     2.114     2.274

molecular dipole:
                 x           y           z       tot (Debye)
 q only:       -1.112       1.016       0.385
   full:       -1.623       0.841       0.103       4.653

 projected vibrational frequencies (cm⁻¹)
eigval :       -0.00    -0.00    -0.00     0.00     0.00     0.00
eigval :        5.92     7.87     9.00    11.94    16.77    17.55
eigval :       23.38    30.83    32.02    35.45    41.74    46.48
eigval :       50.64    53.60    56.63    68.68    73.58    76.70
eigval :       82.27    88.86    94.93   102.68   114.61   121.54
eigval :      125.00   132.71   135.00   149.02   171.86   186.09
eigval :      187.19   206.60   219.42   230.20   238.51   240.87
eigval :      241.93   259.51   261.78   265.54   272.22   278.18
eigval :      308.07   337.27   351.86   354.85   369.31   370.28
eigval :      371.17   373.85   376.37   376.72   379.50   385.52
eigval :      394.74   396.44   402.47   411.56   414.77   431.61
eigval :      442.37   448.26   456.76   472.21   474.76   483.75
eigval :      496.50   499.14   512.50   519.38   523.69   528.84
eigval :      535.06   545.38   552.17   561.68   585.16   585.44
eigval :      586.95   589.79   598.71   601.68   604.66   624.09
eigval :      631.66   641.79   645.21   652.10   653.20   659.52
eigval :      661.34   669.23   673.17   674.37   677.75   682.30
eigval :      684.54   686.74   690.10   700.45   710.82   722.16
eigval :      735.18   746.36   759.02   763.37   764.60   766.00
eigval :      766.40   780.88   783.11   805.24   810.27   828.84
eigval :      835.23   863.00   868.88   872.35   875.00   875.87
eigval :      877.73   878.40   878.60   901.84   902.34   902.78
eigval :      908.29   913.91   914.92   915.82   922.63   924.46
eigval :      925.15   927.96   928.11   929.54   929.91   930.09
eigval :      931.50   931.66   932.11   932.29   938.69   942.84
eigval :      944.77   956.48   975.22   981.16   995.43  1012.30
eigval :     1016.64  1026.97  1031.76  1035.48  1064.52  1068.44
eigval :     1074.77  1079.75  1081.62  1082.47  1083.80  1085.77
eigval :     1108.60  1110.87  1119.05  1120.49  1121.74  1131.75
eigval :     1135.02  1138.42  1144.22  1151.60  1164.96  1171.44
eigval :     1181.25  1181.81  1181.95  1182.71  1185.72  1188.49
eigval :     1191.32  1195.93  1199.31  1201.60  1203.68  1208.77
eigval :     1217.46  1248.15  1255.80  1260.27  1264.30  1266.71
eigval :     1272.05  1272.28  1279.21  1282.44  1283.55  1284.93
eigval :     1289.43  1311.68  1313.43  1316.61  1319.46  1319.99
eigval :     1321.27  1322.13  1326.04  1332.49  1339.06  1346.74
eigval :     1368.37  1375.18  1394.46  1401.52  1407.62  1407.99
eigval :     1414.37  1419.88  1429.85  1430.02  1432.10  1435.29
eigval :     1435.84  1450.86  1462.02  1467.16  1486.87  1489.36
eigval :     1500.84  1513.88  1517.80  1536.78  1544.95  1555.90
eigval :     1559.12  1563.85  1567.09  1571.46  1573.35  1578.64
eigval :     1580.64  1582.80  1589.91  1591.64  1594.50  1596.99
eigval :     1597.93  1600.12  1602.05  1604.97  3068.49  3071.85
eigval :     3073.17  3073.28  3075.04  3076.47  3078.84  3079.77
eigval :     3080.45  3082.31  3084.22  3084.37  3084.89  3086.38
eigval :     3086.88  3087.94  3088.13  3089.64  3091.52  3092.81
eigval :     3093.24  3094.97  3095.88  3097.05  3098.38  3099.47
eigval :     3099.77  3103.36  3106.16  3106.53  3106.64  3108.42
eigval :     3109.34  3110.24  3113.34

   temp. (K)  partition function   enthalpy   heat capacity  entropy
                                   cal/mol     cal/K/mol   cal/K/mol   J/K/mol
 298.15  VIB  0.277E+26            29527.258    179.995    188.394
         ROT  0.246E+09              888.752      2.981     41.375
         INT  0.681E+34            30416.010    182.975    229.769
         TR   0.223E+29             1481.254      4.968     45.928
         TOT                       31897.2643   187.9436   275.6975  1153.5184

       T/K    H(0)-H(T)+PV         H(T)/Eh          T*S/Eh         G(T)/Eh
   ------------------------------------------------------------------------
    298.15    0.508315E-01    0.778285E+00    0.130993E+00    0.647292E+00
   ------------------------------------------------------------------------

         :::::::::::::::::::::::::::::::::::::::::::::::::::::
         ::                  THERMODYNAMIC                  ::
         :::::::::::::::::::::::::::::::::::::::::::::::::::::
         :: total free energy        -160.951553524549 Eh   ::
         ::.................................................::
         :: total energy             -161.598845308496 Eh   ::
         :: zero point energy           0.727453043397 Eh   ::
         :: G(RRHO) w/o ZPVE           -0.080161259449 Eh   ::
         :: G(RRHO) contrib.            0.647291783947 Eh   ::
         :::::::::::::::::::::::::::::::::::::::::::::::::::::

           -------------------------------------------------
          | TOTAL ENERGY             -161.598845308496 Eh   |
          | TOTAL ENTHALPY           -160.820560738881 Eh   |
          | TOTAL FREE ENERGY        -160.951553524549 Eh   |
          | GRADIENT NORM               0.000059981139 Eh/α |
          | HOMO-LUMO GAP               2.035829805316 eV   |
           -------------------------------------------------

 * finished run on 2025/08/26 at 02:43:37.565
