   * xtb version 6.7.1 (edcfbbe) compiled by 'albert@albert-system' on 2024-07-22

   ID    Z sym.   atoms
    1    6 C      1-9, 11-13, 15, 17-38
    2    7 N      10, 14, 16
    3    1 H      39-69

          program call               : xtb data2507/gas/Pra-2DMAC/Pra-2DMAC_gas_S0_crest.xyz --gfn 2 --ohess vtight --parallel 40 --molden --ceasefiles --namespace data2507/gas/Pra-2DMAC/Pra-2DMAC_gas_S0_finalOpt
          :  Hamiltonian                  GFN2-xTB          :
 * total energy  :   -99.5953269 Eh     change       -0.2080682E-08 Eh
 * total energy  :   -99.5953274 Eh     change       -0.4686945E-06 Eh
 * total energy  :   -99.5953279 Eh     change       -0.4554771E-06 Eh
 * total energy  :   -99.5953288 Eh     change       -0.9512769E-06 Eh
 * total energy  :   -99.5953295 Eh     change       -0.6455588E-06 Eh
 * total energy  :   -99.5953296 Eh     change       -0.1711795E-06 Eh
 * total energy  :   -99.5953296 Eh     change       -0.5730243E-08 Eh
   *** GEOMETRY OPTIMIZATION CONVERGED AFTER 7 ITERATIONS ***

 final structure:
================
69
 xtb: 6.7.1 (edcfbbe)
C            6.28813680905493        0.04103658546113       -0.13744315089488
C            4.94360263116221        0.31001750794330        0.56280528290111
C            5.17245588138907        1.06138660761676        1.88706432736559
C            4.27832661970632       -1.01756461739501        0.87142661394505
C            4.92407005000449       -1.92765397363509        1.69715748417335
C            4.35482819444743       -3.13891318665368        2.04306777750453
C            3.09328980739122       -3.45101081992718        1.57028711429208
C            2.43025212864625       -2.56603029324132        0.74666142888636
C            3.01727718015531       -1.35481982568402        0.36887954777390
N            2.33383796357754       -0.49167265803226       -0.47486184688885
C            1.05808019686671       -0.86844734627395       -0.96540034198257
C            0.93078201741202       -1.86981091495274       -1.93028705633819
C           -0.34753143422336       -2.19602791094285       -2.33896117926974
N           -1.43874201747757       -1.59096016261826       -1.90772065848195
C           -1.32601446529531       -0.61151980709625       -1.01287845584994
N           -2.47567833658457       -0.01191491190376       -0.55775312168864
C           -2.45071289179825        1.21394160613052        0.13111306909007
C           -1.68420642069029        2.27533518898868       -0.33843584038348
C           -1.71449834849209        3.49219932016027        0.31368993480342
C           -2.53231407470648        3.66024344488349        1.41742807157033
C           -3.31849957165789        2.61291500694591        1.86675227650288
C           -3.28661782681933        1.37692397292983        1.23928298123434
C           -4.08538494202871        0.16582192965762        1.67943929236572
C           -5.18362718580314        0.52130046223695        2.68096905610041
C           -3.12597621478111       -0.83570608606658        2.35534038860209
C           -4.62718186067577       -0.47042536730987        0.41096196806435
C           -5.91407044255425       -0.96940018957384        0.28776096573738
C           -6.33342036960788       -1.57811449723155       -0.88309312523967
C           -5.46770161368707       -1.68397575290995       -1.95561999865841
C           -4.18546742129430       -1.17518460768529       -1.86362833392776
C           -3.76045094838188       -0.58114124701040       -0.68317165702652
C           -0.07601877875370       -0.24318308402857       -0.48520700208544
C            2.85441661415983        0.74125750833915       -0.83990964621578
C            2.15392715032230        1.55470976684443       -1.73573247801196
C            2.63725304958762        2.79289763070323       -2.10153732719399
C            3.84095698197327        3.24062483171419       -1.58875751347465
C            4.55434779337438        2.42305433020720       -0.73238215760111
C            4.09097816647532        1.17210444329765       -0.34818832516298
H            6.93690968535196       -0.56618291386677        0.48771846804687
H            6.80349410404981        0.97131643657751       -0.35988532058043
H            6.11816633852341       -0.48910332861441       -1.07280939813121
H            4.21794068842405        1.24784953100251        2.37606197288920
H            5.79485556913206        0.47960237252387        2.56131494411160
H            5.66065471589734        2.01620560923387        1.71250501668845
H            5.90164448210383       -1.68824103559698        2.08770759886527
H            4.88705431833958       -3.82530701469799        2.68378754964249
H            2.61980370601137       -4.38235598299926        1.84317800134148
H            1.44102362951828       -2.81434621694056        0.39405858508980
H            1.79959522488622       -2.37169033189463       -2.32349286031756
H           -0.51849322696622       -2.97890091747302       -3.06625360103057
H           -1.07400516984091        2.14572300470302       -1.21966584773532
H           -1.11027732185957        4.30984135793288       -0.04912445199100
H           -2.56495114624994        4.61114437107527        1.92755103918532
H           -3.95580858260053        2.77270342434801        2.72121204514193
H           -4.74689983496093        0.95841363665978        3.57560829468448
H           -5.89183654516339        1.22570003452243        2.25045746154838
H           -5.71633296063896       -0.37506959531703        2.98809073073847
H           -2.68168939158117       -0.38508520664758        3.24074658981841
H           -2.32561187001386       -1.13567713657528        1.68422711722399
H           -3.67341773024253       -1.72761406475358        2.65271155405966
H           -6.60741720897361       -0.89548695438351        1.10978983034773
H           -7.33842181946564       -1.96697591692810       -0.95311018602066
H           -5.79234151243536       -2.15126961638566       -2.87315422138950
H           -3.50755672630898       -1.24197137010675       -2.69631121949196
H            0.00749720475828        0.50574966111646        0.28638459670648
H            1.22526111884837        1.20544660646363       -2.15987224193146
H            2.07389088199147        3.40337679845720       -2.79171129263778
H            4.22872029937678        4.20992115044667       -1.86265140546181
H            5.50322409249560        2.77499693543034       -0.35653753094723

          :  Hamiltonian                  GFN2-xTB          :
         :: gradient norm              0.000108095718 Eh/a0 ::
         :: HOMO-LUMO gap              2.654572621311 eV    ::
         :: SCC energy              -101.369611259599 Eh    ::
         :: -> dispersion             -0.096005095100 Eh    ::
         :: repulsion energy           1.774281618008 Eh    ::

    * Orbital Energies and Occupations

         #    Occupation            Energy/Eh            Energy/eV
      -------------------------------------------------------------
         1        2.0000           -0.6739725             -18.3397
       ...           ...                  ...                  ...
        81        2.0000           -0.4157675             -11.3136
        82        2.0000           -0.4115588             -11.1991
        83        2.0000           -0.4070715             -11.0770
        84        2.0000           -0.4057368             -11.0407
        85        2.0000           -0.4026662             -10.9571
        86        2.0000           -0.4008805             -10.9085
        87        2.0000           -0.3998340             -10.8800
        88        2.0000           -0.3954890             -10.7618
        89        2.0000           -0.3950579             -10.7501
        90        2.0000           -0.3901619             -10.6168
        91        2.0000           -0.3698243             -10.0634
        92        2.0000           -0.3584893              -9.7550
        93        2.0000           -0.3444096              -9.3719 (HOMO)
        94                         -0.2468559              -6.7173 (LUMO)
        95                         -0.2382307              -6.4826
        96                         -0.2270270              -6.1777
        97                         -0.2219858              -6.0405
        98                         -0.2217309              -6.0336
        99                         -0.2167670              -5.8985
       100                         -0.2166682              -5.8958
       101                         -0.2155690              -5.8659
       102                         -0.2030114              -5.5242
       103                         -0.1865864              -5.0773
       104                         -0.1114468              -3.0326
       ...                                ...                  ...
       183                          0.6822728              18.5656
      -------------------------------------------------------------
                  HL-Gap            0.0975538 Eh            2.6546 eV

     #   Z          covCN         q      C6AA      α(0)
     1   6 C        3.761    -0.103    22.505     6.763
     2   6 C        3.909     0.022    20.152     6.381
     3   6 C        3.761    -0.103    22.504     6.763
     4   6 C        2.980    -0.014    28.363     8.736
     5   6 C        2.928    -0.036    28.903     8.817
     6   6 C        2.917    -0.045    29.109     8.847
     7   6 C        2.920    -0.033    28.825     8.804
     8   6 C        2.924    -0.058    29.447     8.899
     9   6 C        2.927     0.059    26.676     8.470
    10   7 N        2.754    -0.073    22.666     7.071
    11   6 C        2.936     0.084    26.135     8.384
    12   6 C        2.914    -0.067    29.657     8.930
    13   6 C        2.903     0.060    26.658     8.466
    14   7 N        1.843    -0.262    27.664     7.795
    15   6 C        2.899     0.150    24.740     8.155
    16   7 N        2.759    -0.064    22.487     7.043
    17   6 C        2.946     0.055    26.763     8.485
    18   6 C        2.921    -0.046    29.144     8.853
    19   6 C        2.919    -0.033    28.811     8.802
    20   6 C        2.919    -0.038    28.940     8.822
    21   6 C        2.923    -0.038    28.950     8.824
    22   6 C        2.987    -0.007    28.180     8.708
    23   6 C        3.911     0.022    20.141     6.379
    24   6 C        3.759    -0.106    22.584     6.775
    25   6 C        3.763    -0.098    22.420     6.749
    26   6 C        2.987    -0.009    28.227     8.715
    27   6 C        2.923    -0.040    28.986     8.829
    28   6 C        2.918    -0.038    28.946     8.823
    29   6 C        2.921    -0.032    28.798     8.800
    30   6 C        2.920    -0.045    29.123     8.850
    31   6 C        2.941     0.060    26.660     8.468
    32   6 C        2.920    -0.076    29.905     8.968
    33   6 C        2.928     0.059    26.677     8.470
    34   6 C        2.925    -0.057    29.429     8.896
    35   6 C        2.920    -0.033    28.824     8.804
    36   6 C        2.917    -0.045    29.113     8.848
    37   6 C        2.928    -0.036    28.899     8.816
    38   6 C        2.980    -0.014    28.358     8.735
    39   1 H        0.925     0.039     2.464     2.455
    40   1 H        0.925     0.039     2.466     2.456
    41   1 H        0.925     0.031     2.570     2.507
    42   1 H        0.925     0.031     2.576     2.510
    43   1 H        0.925     0.039     2.465     2.455
    44   1 H        0.925     0.039     2.465     2.455
    45   1 H        0.926     0.029     2.596     2.520
    46   1 H        0.926     0.026     2.651     2.546
    47   1 H        0.926     0.027     2.631     2.536
    48   1 H        0.926     0.023     2.686     2.563
    49   1 H        0.926     0.038     2.470     2.458
    50   1 H        0.925     0.039     2.457     2.451
    51   1 H        0.926     0.034     2.524     2.484
    52   1 H        0.926     0.035     2.519     2.482
    53   1 H        0.926     0.033     2.548     2.496
    54   1 H        0.926     0.040     2.452     2.449
    55   1 H        0.925     0.040     2.449     2.447
    56   1 H        0.925     0.039     2.468     2.457
    57   1 H        0.925     0.041     2.434     2.440
    58   1 H        0.925     0.037     2.484     2.465
    59   1 H        0.925     0.035     2.520     2.482
    60   1 H        0.925     0.039     2.457     2.451
    61   1 H        0.926     0.037     2.487     2.466
    62   1 H        0.926     0.031     2.577     2.511
    63   1 H        0.926     0.034     2.527     2.486
    64   1 H        0.926     0.063     2.166     2.302
    65   1 H        0.926     0.040     2.446     2.446
    66   1 H        0.926     0.021     2.722     2.580
    67   1 H        0.926     0.026     2.641     2.541
    68   1 H        0.926     0.025     2.652     2.547
    69   1 H        0.926     0.029     2.596     2.519

molecular dipole:
                 x           y           z       tot (Debye)
 q only:       -0.468       0.246       0.449
   full:       -0.070       0.302       0.526       1.553

 projected vibrational frequencies (cm⁻¹)
eigval :       -0.00    -0.00    -0.00     0.00     0.00     0.00
eigval :       10.06    16.13    16.74    38.99    44.71    63.17
eigval :       70.63    73.19    98.69   101.72   123.98   126.53
eigval :      129.17   148.64   169.52   179.60   190.44   195.17
eigval :      212.74   220.47   223.27   239.48   258.35   274.06
eigval :      278.15   284.90   307.33   314.50   317.66   331.69
eigval :      342.33   346.71   361.05   369.50   385.61   397.49
eigval :      407.83   410.44   417.53   426.03   438.60   449.30
eigval :      453.05   491.68   493.08   503.73   514.99   542.50
eigval :      544.41   547.47   549.70   559.13   574.51   586.69
eigval :      599.22   617.87   623.04   646.10   668.08   682.61
eigval :      686.48   690.90   693.62   698.64   720.85   726.32
eigval :      766.62   774.46   776.48   777.73   782.92   810.74
eigval :      812.93   826.55   865.66   866.36   869.73   870.53
eigval :      886.78   898.23   906.90   909.77   912.38   913.54
eigval :      914.36   915.89   916.84   920.75   921.08   924.14
eigval :      929.77   938.60   942.84   957.24   967.09  1007.45
eigval :     1009.62  1014.52  1018.02  1074.61  1077.50  1084.56
eigval :     1090.50  1101.90  1109.02  1114.71  1120.40  1124.56
eigval :     1139.16  1141.36  1151.97  1160.36  1164.92  1175.91
eigval :     1182.73  1184.42  1188.55  1188.76  1191.14  1214.68
eigval :     1233.57  1237.14  1246.18  1251.13  1259.08  1269.32
eigval :     1272.06  1275.07  1293.34  1295.81  1300.43  1301.63
eigval :     1323.46  1326.03  1328.88  1333.94  1336.71  1346.18
eigval :     1398.33  1402.95  1414.98  1420.76  1423.55  1435.97
eigval :     1439.77  1440.70  1444.08  1454.89  1459.18  1480.78
eigval :     1481.47  1490.28  1491.25  1493.79  1495.44  1498.15
eigval :     1500.81  1505.58  1507.97  1525.10  1533.99  1573.82
eigval :     1576.32  1578.20  1586.57  1590.02  1591.08  1593.72
eigval :     1600.49  1603.89  3024.77  3025.76  3028.04  3029.44
eigval :     3031.34  3035.38  3038.85  3041.59  3046.36  3047.85
eigval :     3050.61  3051.96  3056.91  3076.82  3077.95  3078.94
eigval :     3081.66  3082.13  3082.71  3087.74  3090.64  3093.51
eigval :     3093.89  3097.63  3099.76  3100.72  3102.87  3110.00
eigval :     3110.47  3112.09  3139.37

   temp. (K)  partition function   enthalpy   heat capacity  entropy
                                   cal/mol     cal/K/mol   cal/K/mol   J/K/mol
 298.15  VIB  0.157E+14            18381.417    120.348    111.784
         ROT  0.329E+08              888.752      2.981     37.381
         INT  0.516E+21            19270.169    123.329    149.165
         TR   0.106E+29             1481.254      4.968     44.457
         TOT                       20751.4234   128.2969   193.6220   810.1145

       T/K    H(0)-H(T)+PV         H(T)/Eh          T*S/Eh         G(T)/Eh
   ------------------------------------------------------------------------
    298.15    0.330695E-01    0.589459E+00    0.919961E-01    0.497463E+00
   ------------------------------------------------------------------------

         :::::::::::::::::::::::::::::::::::::::::::::::::::::
         ::                  THERMODYNAMIC                  ::
         :::::::::::::::::::::::::::::::::::::::::::::::::::::
         :: total free energy         -99.097866872831 Eh   ::
         ::.................................................::
         :: total energy              -99.595329641591 Eh   ::
         :: zero point energy           0.556389331622 Eh   ::
         :: G(RRHO) w/o ZPVE           -0.058926562861 Eh   ::
         :: G(RRHO) contrib.            0.497462768760 Eh   ::
         :::::::::::::::::::::::::::::::::::::::::::::::::::::

           -------------------------------------------------
          | TOTAL ENERGY              -99.595329641591 Eh   |
          | TOTAL ENTHALPY            -99.005870811858 Eh   |
          | TOTAL FREE ENERGY         -99.097866872831 Eh   |
          | GRADIENT NORM               0.000108085259 Eh/α |
          | HOMO-LUMO GAP               2.654572764497 eV   |
           -------------------------------------------------

 * finished run on 2025/09/04 at 10:21:16.122
