   * xtb version 6.7.1 (edcfbbe) compiled by 'albert@albert-system' on 2024-07-22

   ID    Z sym.   atoms
    1    6 C      1-9, 11-13, 15, 17-38
    2    7 N      10, 14, 16
    3    1 H      39-69

          program call               : xtb data2507/gas/Pra-2DMAC/Pra-2DMAC_gas_S0_finalOpt.xtbopt.xyz --gfn 2 --spinpol --tblite --uhf 2 --ohess vtight --parallel 40 --molden --ceasefiles --namespace data2507/gas/Pra-2DMAC/Pra-2DMAC_gas_T1_preOpt
 * total energy  :   -99.4827901 Eh     change        0.2300276E-07 Eh
 * total energy  :   -99.4864140 Eh     change       -0.3623938E-02 Eh
 * total energy  :   -99.4874267 Eh     change       -0.1012637E-02 Eh
 * total energy  :   -99.4875572 Eh     change       -0.1304904E-03 Eh
 * total energy  :   -99.4876716 Eh     change       -0.1144816E-03 Eh
 * total energy  :   -99.4877386 Eh     change       -0.6697574E-04 Eh
 * total energy  :   -99.4878665 Eh     change       -0.1279228E-03 Eh
 * total energy  :   -99.4879969 Eh     change       -0.1303864E-03 Eh
 * total energy  :   -99.4881251 Eh     change       -0.1282045E-03 Eh
 * total energy  :   -99.4882444 Eh     change       -0.1192447E-03 Eh
 * total energy  :   -99.4904063 Eh     change       -0.8439669E-06 Eh
 * total energy  :   -99.4904070 Eh     change       -0.7507449E-06 Eh
 * total energy  :   -99.4904077 Eh     change       -0.6822252E-06 Eh
 * total energy  :   -99.4904083 Eh     change       -0.5898580E-06 Eh
 * total energy  :   -99.4904088 Eh     change       -0.4604237E-06 Eh
 * total energy  :   -99.4904092 Eh     change       -0.4836911E-06 Eh
 * total energy  :   -99.4904096 Eh     change       -0.3801094E-06 Eh
 * total energy  :   -99.4904100 Eh     change       -0.3743070E-06 Eh
 * total energy  :   -99.4904100 Eh     change       -0.1819082E-07 Eh
   *** GEOMETRY OPTIMIZATION CONVERGED AFTER 152 ITERATIONS ***

 final structure:
================
69
 xtb: 6.7.1 (edcfbbe)
C            6.27449732300980       -0.04275340155482       -0.09527653619090
C            4.93211983271995        0.05998937220528        0.65317288116595
C            5.16980876551946        0.47659231797866        2.11700686178351
C            4.26022315617919       -1.29721463546933        0.64166283896573
C            4.89925724649984       -2.38311286938294        1.22249807598505
C            4.31855393275358       -3.63806525456702        1.26759951077340
C            3.05328854635226       -3.82089368303144        0.73342482716158
C            2.39632911354260       -2.76217875521356        0.14893026445574
C            2.99117170296651       -1.49383574545555        0.07652590099742
N            2.31310470364493       -0.46280872695545       -0.54156563112504
C            1.04997491080157       -0.72023124661458       -1.12962896741989
C            0.93271709332426       -1.49825460370816       -2.33198596094114
C           -0.30671314048655       -1.71263746997732       -2.84340054094986
N           -1.44042052836268       -1.22286259197421       -2.30395585501735
C           -1.35042907830562       -0.51125681846572       -1.12589213452334
N           -2.51190544745697       -0.03815560754310       -0.51006826946962
C           -2.56664635927042        1.29421189733331       -0.12012063146195
C           -1.83872960608491        2.25964850766246       -0.82333469907741
C           -1.91753746950196        3.58741291884351       -0.47217084310484
C           -2.73587222656135        3.97581030304440        0.58065616896374
C           -3.47361409548231        3.02591424212581        1.26888641584565
C           -3.40482849765318        1.68281601677554        0.94058733986374
C           -4.12022001674253        0.58831623255827        1.70270330805702
C           -5.28044057236848        1.11759329306376        2.54592363235846
C           -3.09308522236809       -0.06973329666707        2.65284510719263
C           -4.54912614699421       -0.47031535270306        0.70621620355025
C           -5.73423840427854       -1.17864400948499        0.80388031062965
C           -6.02029142523229       -2.22784658658264       -0.05616422092360
C           -5.10058508580840       -2.59954170212562       -1.02309719887480
C           -3.91590016596351       -1.90584910615804       -1.14704676919238
C           -3.64636248405369       -0.81787200312317       -0.31552509372036
C           -0.13270493895026       -0.24213407298616       -0.54601173993647
C            2.84309193148873        0.81064280104092       -0.60686430413068
C            2.13718505175549        1.81846280932261       -1.27917184692142
C            2.62130878668841        3.10454853369446       -1.34324928600497
C            3.83025506226471        3.41658064987135       -0.74226269941804
C            4.54612931109415        2.42052334901789       -0.10316035609757
C            4.08296222343310        1.11474968957884       -0.02496814096827
H            6.92145662162437       -0.78171999098229        0.36904617714890
H            6.79243326071600        0.91223894426996       -0.09489567803410
H            6.10017430834250       -0.33857128323235       -1.12808667993140
H            4.21800307606135        0.54992058982121        2.63985591350419
H            5.78874831396572       -0.25285545972319        2.63180308772972
H            5.66574786494627        1.44171880448047        2.16958234091525
H            5.87814865383492       -2.25298532068464        1.65872793487482
H            4.84532406968864       -4.46174393914036        1.72468880968651
H            2.57732429453431       -4.78907314613462        0.77523465143549
H            1.40685814048491       -2.90136911599745       -0.25646928979729
H            1.81843616571346       -1.86487557378861       -2.82471895607936
H           -0.45434222195027       -2.26399142816575       -3.76179836602730
H           -1.23322998085076        1.94949707560353       -1.66080493573535
H           -1.35174393241848        4.32403431151287       -1.02201367120621
H           -2.80226069033320        5.01536663346783        0.86288052270298
H           -4.10635431599925        3.35438515872363        2.07742359179837
H           -4.91871176029675        1.83787105397820        3.27489533687326
H           -6.03090577603104        1.59338782775215        1.91869401743917
H           -5.74312327868302        0.30704493750949        3.10265460638479
H           -2.72210813665790        0.66450362423004        3.36514123983033
H           -2.24839913346316       -0.46951994511382        2.09683627112437
H           -3.56115398688650       -0.88610137394448        3.19894215692169
H           -6.45511237088954       -0.92840280482273        1.56516764574964
H           -6.94989496989851       -2.76700869720208        0.04791064860585
H           -5.30566794326818       -3.43257516057113       -1.67843369239972
H           -3.19019078595621       -2.17103124685160       -1.90168730928413
H           -0.09307418170088        0.30797159462683        0.38389517745686
H            1.20560248391635        1.57030406619040       -1.76081566547096
H            2.05805434263530        3.86361077342846       -1.86490352986827
H            4.21873780629231        4.42279046897259       -0.78059684004594
H            5.49634463581252        2.67455553756307        0.34186438630045

 projected vibrational frequencies (cm⁻¹)
eigval :       -0.00    -0.00    -0.00    -0.00     0.00     0.00
eigval :        8.41    13.47    17.94    29.20    42.99    54.94
eigval :       64.80    72.40    95.73   100.20   103.92   114.50
eigval :      129.79   142.89   167.29   176.06   191.50   193.80
eigval :      205.91   211.33   219.32   236.19   256.72   264.05
eigval :      267.63   283.35   296.36   305.52   317.15   327.99
eigval :      337.55   349.86   352.72   365.02   368.56   383.43
eigval :      385.23   404.72   408.38   414.58   423.50   436.82
eigval :      451.36   464.47   495.94   500.59   507.85   516.68
eigval :      525.91   530.30   544.02   544.68   553.53   575.68
eigval :      581.44   593.36   597.75   608.79   614.72   659.00
eigval :      672.55   682.73   685.00   695.93   708.61   716.67
eigval :      739.11   750.58   765.21   769.86   773.99   774.40
eigval :      813.64   823.99   829.39   842.62   859.51   860.77
eigval :      864.66   870.15   871.47   886.52   899.48   903.30
eigval :      904.85   905.77   910.50   911.69   914.89   919.67
eigval :      920.34   922.55   935.52   937.00   957.21   960.09
eigval :      965.30   967.73  1006.60  1013.26  1068.14  1071.99
eigval :     1074.52  1081.26  1095.11  1104.82  1106.13  1112.98
eigval :     1119.53  1134.86  1137.05  1143.88  1152.72  1153.66
eigval :     1170.28  1176.55  1179.39  1182.87  1183.75  1187.15
eigval :     1209.93  1229.66  1235.35  1238.94  1241.78  1251.75
eigval :     1256.44  1267.97  1276.21  1289.71  1290.95  1294.44
eigval :     1301.05  1312.12  1322.49  1328.70  1330.84  1337.47
eigval :     1337.63  1375.89  1395.01  1401.07  1411.31  1413.78
eigval :     1418.63  1420.06  1430.22  1432.13  1441.06  1453.85
eigval :     1459.00  1469.52  1480.53  1488.12  1488.95  1489.94
eigval :     1492.55  1498.70  1502.25  1503.89  1515.90  1526.93
eigval :     1537.91  1547.27  1548.61  1559.66  1565.35  1570.40
eigval :     1580.93  1589.39  3025.30  3027.28  3027.82  3029.80
eigval :     3033.39  3035.93  3040.70  3040.73  3043.11  3049.45
eigval :     3050.32  3052.98  3056.77  3063.60  3066.17  3079.98
eigval :     3080.21  3081.21  3083.02  3085.12  3085.37  3091.58
eigval :     3092.66  3096.32  3096.73  3098.69  3100.49  3109.32
eigval :     3110.79  3111.27  3115.83

   temp. (K)  partition function   enthalpy   heat capacity  entropy
                                   cal/mol     cal/K/mol   cal/K/mol   J/K/mol
 298.15  VIB  0.689E+14            18860.291    122.542    115.146
         ROT  0.335E+08              888.752      2.981     37.413
         INT  0.231E+22            19749.044    125.523    152.559
         TR   0.106E+29             1481.254      4.968     44.457
         TOT                       21230.2978   130.4907   197.0159   824.3147

       T/K    H(0)-H(T)+PV         H(T)/Eh          T*S/Eh         G(T)/Eh
   ------------------------------------------------------------------------
    298.15    0.338326E-01    0.584424E+00    0.936086E-01    0.490815E+00
   ------------------------------------------------------------------------

         :::::::::::::::::::::::::::::::::::::::::::::::::::::
         ::                  THERMODYNAMIC                  ::
         :::::::::::::::::::::::::::::::::::::::::::::::::::::
         :: total free energy         -98.999594565077 Eh   ::
         ::.................................................::
         :: total energy              -99.490410004327 Eh   ::
         :: zero point energy           0.550591437477 Eh   ::
         :: G(RRHO) w/o ZPVE           -0.059775998227 Eh   ::
         :: G(RRHO) contrib.            0.490815439250 Eh   ::
         :::::::::::::::::::::::::::::::::::::::::::::::::::::

           -------------------------------------------------
          | TOTAL ENERGY              -99.490410004327 Eh   |
          | TOTAL ENTHALPY            -98.905985933810 Eh   |
          | TOTAL FREE ENERGY         -98.999594565077 Eh   |
          | GRADIENT NORM               0.000061964418 Eh/α |
           -------------------------------------------------

 * finished run on 2025/09/04 at 10:21:34.569
