   * xtb version 6.7.1 (edcfbbe) compiled by 'albert@albert-system' on 2024-07-22

   ID    Z sym.   atoms
    1    6 C      1-9, 11-13, 15, 17-38
    2    7 N      10, 14, 16
    3    1 H      39-69

          program call               : xtb data2507/gas/Pra-2DMAC/Pra-2DMAC.xyz --gfn 2 --ohess vtight --parallel 40 --molden --ceasefiles --namespace data2507/gas/Pra-2DMAC/Pra-2DMAC_gas_S0_preOpt
          :  Hamiltonian                  GFN2-xTB          :
 * total energy  :   -99.5636306 Eh     change       -0.1640629E-08 Eh
 * total energy  :   -99.5814287 Eh     change       -0.1779811E-01 Eh
 * total energy  :   -99.5874386 Eh     change       -0.6009970E-02 Eh
 * total energy  :   -99.5883963 Eh     change       -0.9576875E-03 Eh
 * total energy  :   -99.5887962 Eh     change       -0.3998435E-03 Eh
 * total energy  :   -99.5888938 Eh     change       -0.9764416E-04 Eh
 * total energy  :   -99.5889388 Eh     change       -0.4502389E-04 Eh
 * total energy  :   -99.5889843 Eh     change       -0.4550356E-04 Eh
 * total energy  :   -99.5890077 Eh     change       -0.2333848E-04 Eh
 * total energy  :   -99.5890583 Eh     change       -0.5063676E-04 Eh
 * total energy  :   -99.5952399 Eh     change       -0.9006306E-06 Eh
 * total energy  :   -99.5952408 Eh     change       -0.8975750E-06 Eh
 * total energy  :   -99.5952417 Eh     change       -0.8952023E-06 Eh
 * total energy  :   -99.5952426 Eh     change       -0.8911772E-06 Eh
 * total energy  :   -99.5952435 Eh     change       -0.8879445E-06 Eh
 * total energy  :   -99.5952443 Eh     change       -0.8829350E-06 Eh
 * total energy  :   -99.5952452 Eh     change       -0.8786616E-06 Eh
 * total energy  :   -99.5952461 Eh     change       -0.8722673E-06 Eh
 * total energy  :   -99.5952461 Eh     change       -0.7401411E-08 Eh
   *** GEOMETRY OPTIMIZATION CONVERGED AFTER 380 ITERATIONS ***

 final structure:
================
69
 xtb: 6.7.1 (edcfbbe)
C            6.13251347101702        0.54193372326125        0.39712456022114
C            4.70017233152507        0.56103710582129        0.96152974760993
C            4.69983064984594        1.11446107042683        2.39834022661099
C            4.16622534577124       -0.85802567045244        0.99394242552361
C            4.82723573643856       -1.81590921443461        1.75087185000635
C            4.36787790390041       -3.11523216701786        1.85643777132778
C            3.19946738046412       -3.47151556225363        1.20831030971195
C            2.52466052448610       -2.54050909666849        0.44739558514369
C            3.00785029731069       -1.23611082700933        0.30697754945520
N            2.32093060590255       -0.32581046985360       -0.48455063772405
C            1.14722726780027       -0.74304183151913       -1.15926546215405
C            1.21595251472806       -1.64112456799115       -2.22713486565452
C            0.02475790390948       -2.02703070908185       -2.80916757024689
N           -1.15900189689131       -1.56592120566828       -2.44830395149475
C           -1.23305793724525       -0.68110733387512       -1.45690241702439
N           -2.47231108358386       -0.22225593735272       -1.07431394377529
C           -2.61587570146469        0.97291229375054       -0.34804343829162
C           -1.89972748837615        2.10911288758178       -0.71026579343574
C           -2.09271324997687        3.29524223861337       -0.03061320622252
C           -3.02328380053963        3.35738135610167        0.99197206835480
C           -3.75678221217570        2.23412129364188        1.33408986350523
C           -3.56137904777540        1.02758518471434        0.67937107453208
C           -4.28701493702965       -0.26121323472967        1.01077483281532
C           -5.49982805333784       -0.03456458955966        1.91260304128489
C           -3.30797376706404       -1.19727808041108        1.74967935321903
C           -4.65004161015101       -0.90150669973843       -0.31799084627571
C           -5.86828919238697       -1.51224433797821       -0.56898690037577
C           -6.12257139629466       -2.12470130062293       -1.78449370563495
C           -5.15706503511057       -2.12296059002957       -2.77366443806854
C           -3.94190679593062       -1.50077444302122       -2.55500649086443
C           -3.68185823148413       -0.90051039313312       -1.33033190251778
C           -0.08596595503364       -0.26749465241036       -0.75734734126677
C            2.73523046325577        0.99294739531892       -0.60990324043149
C            2.05233296846498        1.85824769920658       -1.46992777832417
C            2.42332476443519        3.18006271973914       -1.59412079216021
C            3.49829186770895        3.66371107735962       -0.87103531915235
C            4.20431743780120        2.79983184872526       -0.05516661133601
C            3.85235579550278        1.46441459189601        0.08720004061818
H            6.55467794682375        1.54279830148298        0.37484007099171
H            6.12434014990421        0.15045113582035       -0.61850544692341
H            6.78016507182899       -0.08684264302871        1.00174489820475
H            5.08807658836161        2.12887819583601        2.42410959999544
H            3.68430284169390        1.12514087719744        2.79016222905952
H            5.31239837229835        0.49927084418671        3.05158987410698
H            5.72824297566846       -1.54411142379351        2.27978461378879
H            4.90985502265128       -3.83624950104279        2.44911474113390
H            2.80735858126389       -4.47389621270600        1.29496957189426
H            1.60637359802862       -2.82763222287488       -0.04098360809438
H            2.16448107512248       -2.02414062892091       -2.56632988652497
H            0.00691859657888       -2.73855062852048       -3.62433259816743
H           -1.20017230039313        2.05994240984010       -1.53104743015296
H           -1.52681210776626        4.17110612950137       -0.30956489018012
H           -3.18428798771225        4.28389234868065        1.52219876544935
H           -4.48273887329998        2.31106370837585        2.12711029487470
H           -5.18768233207924        0.41101837711519        2.85398287731761
H           -6.22595033781326        0.61850176237456        1.43372981448347
H           -5.97584536494869       -0.98296027315373        2.14812534258616
H           -2.98854832128447       -0.73876403866757        2.68358342045520
H           -2.42610770244831       -1.40446638038003        1.14926605430049
H           -3.79823714201405       -2.14256382081416        1.97260270740129
H           -6.63617077959285       -1.52515154986903        0.18737663428559
H           -7.07656930375378       -2.60152621726512       -1.95380016606022
H           -5.35174168332553       -2.59440070648785       -3.72525877906660
H           -3.18761368559535       -1.48407813108148       -3.32180114599552
H           -0.15830266811330        0.40240141274823        0.08516190273561
H            1.22847846541279        1.48524196447133       -2.05817008793221
H            1.87417787681869        3.82834259226319       -2.26082602888089
H            3.79539863435929        4.69809448933473       -0.95270142813282
H            5.05762595493868        3.18303025799934        0.48378643550921

          :  Hamiltonian                  GFN2-xTB          :
         :: gradient norm              0.000065147794 Eh/a0 ::
         :: HOMO-LUMO gap              2.659471103041 eV    ::
         :: SCC energy              -101.369335753790 Eh    ::
         :: -> dispersion             -0.096196694129 Eh    ::
         :: repulsion energy           1.774089650914 Eh    ::

    * Orbital Energies and Occupations

         #    Occupation            Energy/Eh            Energy/eV
      -------------------------------------------------------------
         1        2.0000           -0.6741335             -18.3441
       ...           ...                  ...                  ...
        81        2.0000           -0.4151353             -11.2964
        82        2.0000           -0.4114701             -11.1967
        83        2.0000           -0.4075403             -11.0897
        84        2.0000           -0.4061085             -11.0508
        85        2.0000           -0.4022355             -10.9454
        86        2.0000           -0.4013191             -10.9204
        87        2.0000           -0.3993198             -10.8660
        88        2.0000           -0.3958603             -10.7719
        89        2.0000           -0.3945080             -10.7351
        90        2.0000           -0.3905492             -10.6274
        91        2.0000           -0.3702232             -10.0743
        92        2.0000           -0.3578500              -9.7376
        93        2.0000           -0.3450867              -9.3903 (HOMO)
        94                         -0.2473529              -6.7308 (LUMO)
        95                         -0.2384059              -6.4874
        96                         -0.2263204              -6.1585
        97                         -0.2223029              -6.0492
        98                         -0.2216441              -6.0312
        99                         -0.2171613              -5.9093
       100                         -0.2162210              -5.8837
       101                         -0.2159736              -5.8769
       102                         -0.2026539              -5.5145
       103                         -0.1869680              -5.0877
       104                         -0.1119745              -3.0470
       ...                                ...                  ...
       183                          0.6819074              18.5556
      -------------------------------------------------------------
                  HL-Gap            0.0977338 Eh            2.6595 eV

     #   Z          covCN         q      C6AA      α(0)
     1   6 C        3.761    -0.103    22.507     6.763
     2   6 C        3.909     0.022    20.152     6.381
     3   6 C        3.761    -0.103    22.505     6.763
     4   6 C        2.980    -0.014    28.358     8.735
     5   6 C        2.928    -0.036    28.902     8.817
     6   6 C        2.917    -0.044    29.104     8.847
     7   6 C        2.920    -0.033    28.825     8.804
     8   6 C        2.924    -0.058    29.448     8.899
     9   6 C        2.927     0.059    26.679     8.471
    10   7 N        2.754    -0.073    22.653     7.069
    11   6 C        2.936     0.083    26.142     8.385
    12   6 C        2.914    -0.066    29.649     8.929
    13   6 C        2.904     0.060    26.664     8.467
    14   7 N        1.843    -0.261    27.645     7.792
    15   6 C        2.900     0.150    24.740     8.155
    16   7 N        2.758    -0.065    22.500     7.045
    17   6 C        2.946     0.055    26.761     8.484
    18   6 C        2.921    -0.046    29.145     8.853
    19   6 C        2.919    -0.032    28.808     8.802
    20   6 C        2.919    -0.038    28.946     8.823
    21   6 C        2.923    -0.038    28.952     8.824
    22   6 C        2.987    -0.007    28.187     8.709
    23   6 C        3.911     0.022    20.142     6.379
    24   6 C        3.759    -0.106    22.582     6.775
    25   6 C        3.763    -0.098    22.421     6.750
    26   6 C        2.987    -0.009    28.238     8.717
    27   6 C        2.923    -0.040    28.989     8.830
    28   6 C        2.918    -0.038    28.955     8.824
    29   6 C        2.921    -0.032    28.800     8.801
    30   6 C        2.920    -0.047    29.176     8.858
    31   6 C        2.940     0.059    26.668     8.470
    32   6 C        2.921    -0.075    29.881     8.964
    33   6 C        2.928     0.059    26.680     8.471
    34   6 C        2.925    -0.057    29.420     8.895
    35   6 C        2.920    -0.033    28.821     8.804
    36   6 C        2.917    -0.045    29.107     8.847
    37   6 C        2.928    -0.036    28.900     8.816
    38   6 C        2.980    -0.014    28.354     8.735
    39   1 H        0.925     0.039     2.464     2.455
    40   1 H        0.925     0.031     2.568     2.506
    41   1 H        0.925     0.039     2.463     2.454
    42   1 H        0.925     0.039     2.464     2.455
    43   1 H        0.925     0.031     2.576     2.510
    44   1 H        0.925     0.039     2.464     2.455
    45   1 H        0.926     0.030     2.593     2.518
    46   1 H        0.926     0.026     2.647     2.544
    47   1 H        0.926     0.027     2.627     2.535
    48   1 H        0.926     0.024     2.675     2.558
    49   1 H        0.926     0.039     2.464     2.455
    50   1 H        0.925     0.040     2.455     2.450
    51   1 H        0.926     0.033     2.540     2.492
    52   1 H        0.926     0.035     2.522     2.483
    53   1 H        0.926     0.032     2.551     2.498
    54   1 H        0.926     0.039     2.456     2.451
    55   1 H        0.925     0.040     2.451     2.448
    56   1 H        0.925     0.039     2.468     2.457
    57   1 H        0.925     0.041     2.437     2.441
    58   1 H        0.925     0.037     2.487     2.466
    59   1 H        0.925     0.035     2.522     2.483
    60   1 H        0.925     0.039     2.459     2.452
    61   1 H        0.926     0.037     2.492     2.469
    62   1 H        0.926     0.030     2.584     2.514
    63   1 H        0.926     0.034     2.533     2.489
    64   1 H        0.926     0.065     2.142     2.289
    65   1 H        0.926     0.040     2.450     2.448
    66   1 H        0.926     0.021     2.715     2.576
    67   1 H        0.926     0.026     2.638     2.540
    68   1 H        0.926     0.026     2.649     2.545
    69   1 H        0.926     0.030     2.593     2.518

molecular dipole:
                 x           y           z       tot (Debye)
 q only:       -0.451       0.168       0.421
   full:       -0.073       0.250       0.551       1.550

 projected vibrational frequencies (cm⁻¹)
eigval :       -0.00    -0.00    -0.00    -0.00     0.00     0.00
eigval :       10.55    15.55    17.89    39.18    45.27    63.35
eigval :       71.13    74.37    99.32   103.05   121.97   125.92
eigval :      128.63   150.24   169.31   180.33   189.94   197.00
eigval :      213.67   221.19   223.82   240.35   259.42   274.16
eigval :      279.48   284.33   307.38   313.41   317.66   331.98
eigval :      341.40   347.24   361.79   369.32   385.73   396.33
eigval :      407.93   410.50   418.56   425.89   439.26   448.32
eigval :      453.89   491.90   493.07   503.96   514.86   542.49
eigval :      545.10   547.59   549.90   558.98   574.36   586.75
eigval :      598.19   617.97   623.07   646.68   667.95   682.80
eigval :      686.27   690.61   693.83   699.13   720.09   726.39
eigval :      766.60   774.34   776.65   777.86   782.59   811.89
eigval :      814.16   826.86   865.77   866.96   870.06   873.58
eigval :      885.60   898.35   906.97   910.04   911.68   913.58
eigval :      914.07   915.37   916.56   920.72   921.33   924.13
eigval :      928.15   938.63   942.55   957.24   966.85  1008.07
eigval :     1009.49  1014.50  1017.68  1074.63  1077.44  1084.63
eigval :     1090.36  1102.07  1109.28  1115.17  1120.63  1125.17
eigval :     1139.06  1141.36  1151.67  1160.29  1164.79  1175.89
eigval :     1182.46  1184.26  1188.66  1189.07  1191.12  1214.36
eigval :     1233.96  1237.20  1246.17  1251.36  1258.96  1269.25
eigval :     1272.26  1275.15  1293.55  1296.10  1300.60  1300.91
eigval :     1322.93  1325.97  1329.25  1333.06  1336.03  1345.55
eigval :     1398.14  1403.02  1414.73  1419.86  1421.79  1435.78
eigval :     1439.86  1440.64  1443.60  1454.98  1459.40  1480.27
eigval :     1481.28  1490.17  1491.20  1493.92  1495.36  1497.80
eigval :     1500.76  1505.48  1507.97  1525.38  1533.56  1572.56
eigval :     1576.19  1578.13  1586.57  1590.01  1590.99  1593.80
eigval :     1600.56  1603.82  3024.45  3026.04  3028.26  3029.35
eigval :     3031.30  3035.42  3039.15  3041.90  3046.45  3048.15
eigval :     3049.61  3052.24  3057.06  3077.16  3078.30  3078.72
eigval :     3081.86  3082.47  3083.08  3088.19  3090.42  3094.10
eigval :     3094.53  3097.95  3099.98  3101.41  3102.22  3109.60
eigval :     3110.62  3111.97  3141.16

   temp. (K)  partition function   enthalpy   heat capacity  entropy
                                   cal/mol     cal/K/mol   cal/K/mol   J/K/mol
 298.15  VIB  0.137E+14            18369.370    120.369    111.618
         ROT  0.328E+08              888.752      2.981     37.375
         INT  0.450E+21            19258.123    123.350    148.993
         TR   0.106E+29             1481.254      4.968     44.457
         TOT                       20739.3766   128.3178   193.4496   809.3933

       T/K    H(0)-H(T)+PV         H(T)/Eh          T*S/Eh         G(T)/Eh
   ------------------------------------------------------------------------
    298.15    0.330503E-01    0.589466E+00    0.919142E-01    0.497552E+00
   ------------------------------------------------------------------------

         :::::::::::::::::::::::::::::::::::::::::::::::::::::
         ::                  THERMODYNAMIC                  ::
         :::::::::::::::::::::::::::::::::::::::::::::::::::::
         :: total free energy         -99.097694396493 Eh   ::
         ::.................................................::
         :: total energy              -99.595246102877 Eh   ::
         :: zero point energy           0.556415573767 Eh   ::
         :: G(RRHO) w/o ZPVE           -0.058863867383 Eh   ::
         :: G(RRHO) contrib.            0.497551706383 Eh   ::
         :::::::::::::::::::::::::::::::::::::::::::::::::::::

           -------------------------------------------------
          | TOTAL ENERGY              -99.595246102877 Eh   |
          | TOTAL ENTHALPY            -99.005780228714 Eh   |
          | TOTAL FREE ENERGY         -99.097694396493 Eh   |
          | GRADIENT NORM               0.000065149349 Eh/α |
          | HOMO-LUMO GAP               2.659470844881 eV   |
           -------------------------------------------------

 * finished run on 2025/09/04 at 10:17:56.179
