   * xtb version 6.7.1 (edcfbbe) compiled by 'albert@albert-system' on 2024-07-22

   ID    Z sym.   atoms
    1    6 C      1-9, 11-13, 15, 17-38
    2    7 N      10, 14, 16
    3    1 H      39-69

          program call               : xtb data2507/gas/Pra-2DMAC/Pra-2DMAC_gas_T1_crest.xyz --gfn 2 --spinpol --tblite --uhf 2 --ohess vtight --parallel 40 --molden --ceasefiles --namespace data2507/gas/Pra-2DMAC/Pra-2DMAC_gas_T1_finalOpt
 * total energy  :   -99.4904328 Eh     change       -0.4714049E-07 Eh
 * total energy  :   -99.4907340 Eh     change       -0.3012323E-03 Eh
 * total energy  :   -99.4908451 Eh     change       -0.1111455E-03 Eh
 * total energy  :   -99.4908556 Eh     change       -0.1049165E-04 Eh
 * total energy  :   -99.4908655 Eh     change       -0.9816015E-05 Eh
 * total energy  :   -99.4908704 Eh     change       -0.4922938E-05 Eh
 * total energy  :   -99.4908802 Eh     change       -0.9850534E-05 Eh
 * total energy  :   -99.4908848 Eh     change       -0.4537517E-05 Eh
 * total energy  :   -99.4908883 Eh     change       -0.3488068E-05 Eh
 * total energy  :   -99.4908901 Eh     change       -0.1825886E-05 Eh
 * total energy  :   -99.4909104 Eh     change       -0.7564509E-06 Eh
 * total energy  :   -99.4909111 Eh     change       -0.6881733E-06 Eh
 * total energy  :   -99.4909117 Eh     change       -0.6442383E-06 Eh
 * total energy  :   -99.4909123 Eh     change       -0.5415016E-06 Eh
 * total energy  :   -99.4909127 Eh     change       -0.4836622E-06 Eh
 * total energy  :   -99.4909131 Eh     change       -0.3642564E-06 Eh
 * total energy  :   -99.4909133 Eh     change       -0.2237128E-06 Eh
 * total energy  :   -99.4909135 Eh     change       -0.1229977E-06 Eh
 * total energy  :   -99.4909135 Eh     change       -0.1551219E-07 Eh
   *** GEOMETRY OPTIMIZATION CONVERGED AFTER 43 ITERATIONS ***

 final structure:
================
69
 xtb: 6.7.1 (edcfbbe)
C            6.30635596846262       -0.51905796563065        0.13017573922856
C            4.96835163689288       -0.34426161528311        0.87315267179693
C            5.18152057410449       -0.48256973334416        2.39251785400820
C            4.01696423301632       -1.42757975464532        0.41022698145406
C            4.35235130462730       -2.76026591274232        0.60246258616605
C            3.54060028125010       -3.79210780066940        0.16663077926724
C            2.36401090563861       -3.49391289210236       -0.50171665506053
C            2.00639411891083       -2.18121864958873       -0.70563256706790
C            2.80954924943855       -1.12981385648058       -0.23992484410017
N            2.40475042625730        0.17506974342419       -0.43958940535913
C            1.18295979354908        0.43214116072957       -1.10694534276805
C            1.16126630139164        0.98819547538538       -2.43096045574674
C           -0.03838097466366        1.22180544006879       -3.01911006696736
N           -1.22965040231659        0.96040818152763       -2.43627592888352
C           -1.22077342474726        0.43658120611962       -1.16335234364409
N           -2.46364167261856        0.17437841975401       -0.54461343728948
C           -3.20614215523843        1.22834951541022       -0.05152567531024
C           -2.79390933028460        2.54032767347624       -0.31820789009250
C           -3.51161116213695        3.61519217142688        0.15681874692815
C           -4.64755073444063        3.40158103196976        0.92134377022491
C           -5.05083389230501        2.10785610785210        1.19674015423015
C           -4.35367099158017        1.00460076865598        0.72234632624941
C           -4.83083840140382       -0.39071858852622        1.06854738798201
C           -6.27949897031837       -0.55798914975230        0.57257500649140
C           -4.76872944860224       -0.56422266372429        2.59786988562694
C           -3.97462713053518       -1.45780455359052        0.41969662106188
C           -4.28949495480457       -2.79835458473794        0.59523564087233
C           -3.56188718012792       -3.80708228082215       -0.00846162945898
C           -2.49773147762614       -3.47944349435505       -0.83658486270111
C           -2.15495453505974       -2.15976767920447       -1.01690762397822
C           -2.86460625143479       -1.13536688083667       -0.37614396891203
C           -0.05836792637909        0.16840344531522       -0.49426281896565
C            3.17761410233347        1.23924974649463       -0.02030583900253
C            2.70153395504132        2.54729830162102       -0.19749416224055
C            3.45714766611568        3.63403109167887        0.17837236363814
C            4.70602564023740        3.44292055111041        0.74762405857066
C            5.16813713680098        2.15494306770261        0.95243747626274
C            4.42668905575034        1.04057856039758        0.58748953766849
H            6.73266229701366       -1.49909030874229        0.32545047051290
H            7.02423700076857        0.23394542357191        0.44305344345892
H            6.14937653190324       -0.42019235600497       -0.94229113490391
H            4.23277836578428       -0.36000622473795        2.91168462262565
H            5.58482814496917       -1.46038480495599        2.64020486523465
H            5.87207134514224        0.27259602776272        2.75718062039320
H            5.27661587463191       -3.00869921051969        1.10190998586514
H            3.83053856137718       -4.81768481495531        0.33684310124992
H            1.72660432583283       -4.28524888374102       -0.86649848118482
H            1.10004008555926       -1.94942344163759       -1.24040093146381
H            2.08827567136937        1.19049203923254       -2.94282016082265
H           -0.11372984983954        1.62426161323973       -4.01944324881975
H           -1.90992161308291        2.70310237186273       -0.91184405705987
H           -3.18333119069030        4.61955246890279       -0.06401550275479
H           -5.21366420317132        4.23657724692875        1.30543050455225
H           -5.93183683808340        1.96061588348582        1.80293147705428
H           -6.66105266950177       -1.54582555434201        0.81440951355875
H           -6.93407236391754        0.17908196907872        1.02863728638253
H           -6.31597489751787       -0.42975845308056       -0.50739404641065
H           -3.74317974257005       -0.44738145966703        2.94317718217717
H           -5.11893521896757       -1.55073808457448        2.88890133977639
H           -5.38516889640826        0.17906393867477        3.09592548567119
H           -5.12700685218124       -3.07033698119588        1.21984730320134
H           -3.83083741758366       -4.83959150071076        0.15402566917882
H           -1.93913758678893       -4.25394788723092       -1.33991301608109
H           -1.33860772790362       -1.89631810677081       -1.67047588244380
H           -0.09852519926520       -0.23251257709995        0.50841647138392
H            1.72502210443821        2.69513630043383       -0.62990902314813
H            3.07175721693206        4.63152866141686        0.02957536976517
H            5.31075036591555        4.28761071563494        1.04028081873840
H            6.13454389314035        2.02240349215463        1.41500327743592

 projected vibrational frequencies (cm⁻¹)
eigval :       -0.00    -0.00    -0.00     0.00     0.00     0.00
eigval :        7.03    10.98    13.86    19.66    43.30    49.01
eigval :       58.09    66.79    91.44    95.39    99.38   104.46
eigval :      129.77   130.90   140.77   182.68   190.23   192.44
eigval :      194.40   207.63   217.88   218.59   230.03   239.90
eigval :      246.36   266.45   302.62   305.81   328.03   328.39
eigval :      332.34   342.84   350.04   359.23   362.94   366.76
eigval :      383.78   385.26   406.74   413.96   418.26   449.63
eigval :      451.53   476.78   504.54   506.87   507.47   520.09
eigval :      525.86   539.01   543.19   544.55   547.51   581.75
eigval :      583.39   593.92   604.19   606.95   620.05   658.92
eigval :      671.25   684.54   685.02   695.83   698.13   716.85
eigval :      743.62   753.30   768.38   770.81   771.78   775.02
eigval :      819.16   823.78   825.00   845.01   858.78   860.13
eigval :      863.17   867.86   870.00   882.78   904.59   908.09
eigval :      910.05   910.48   911.38   912.92   916.96   919.10
eigval :      919.40   919.53   936.75   937.51   955.02   957.25
eigval :      957.57   965.38  1013.26  1013.45  1067.79  1074.08
eigval :     1075.01  1082.68  1100.74  1106.40  1112.37  1113.34
eigval :     1120.73  1136.06  1137.87  1147.03  1153.36  1153.54
eigval :     1171.31  1177.17  1181.93  1183.20  1183.94  1184.73
eigval :     1204.32  1224.97  1235.82  1236.94  1240.53  1244.19
eigval :     1251.62  1257.04  1284.26  1292.19  1293.92  1294.42
eigval :     1304.98  1314.10  1317.07  1330.89  1332.10  1337.59
eigval :     1337.91  1367.37  1400.68  1401.09  1417.48  1417.99
eigval :     1418.38  1421.87  1430.05  1431.08  1452.29  1458.19
eigval :     1460.14  1474.61  1480.29  1487.65  1488.20  1488.39
eigval :     1488.85  1498.26  1498.62  1501.76  1502.23  1531.65
eigval :     1544.32  1546.76  1557.08  1562.35  1567.20  1574.88
eigval :     1580.33  1588.23  3027.84  3028.53  3029.75  3033.01
eigval :     3040.72  3040.73  3043.17  3044.40  3048.81  3049.26
eigval :     3052.94  3054.42  3060.10  3069.00  3080.01  3080.27
eigval :     3080.37  3080.78  3085.07  3085.25  3086.20  3087.22
eigval :     3095.81  3096.14  3096.34  3096.60  3097.64  3106.34
eigval :     3110.89  3117.49  3123.76

   temp. (K)  partition function   enthalpy   heat capacity  entropy
                                   cal/mol     cal/K/mol   cal/K/mol   J/K/mol
 298.15  VIB  0.449E+15            19086.536    122.352    118.009
         ROT  0.345E+08              888.752      2.981     37.473
         INT  0.155E+23            19975.288    125.333    155.482
         TR   0.106E+29             1481.254      4.968     44.457
         TOT                       21456.5421   130.3009   199.9391   836.5452

       T/K    H(0)-H(T)+PV         H(T)/Eh          T*S/Eh         G(T)/Eh
   ------------------------------------------------------------------------
    298.15    0.341932E-01    0.584564E+00    0.949975E-01    0.489566E+00
   ------------------------------------------------------------------------

         :::::::::::::::::::::::::::::::::::::::::::::::::::::
         ::                  THERMODYNAMIC                  ::
         :::::::::::::::::::::::::::::::::::::::::::::::::::::
         :: total free energy         -99.001347215876 Eh   ::
         ::.................................................::
         :: total energy              -99.490913466419 Eh   ::
         :: zero point energy           0.550370589802 Eh   ::
         :: G(RRHO) w/o ZPVE           -0.060804339259 Eh   ::
         :: G(RRHO) contrib.            0.489566250543 Eh   ::
         :::::::::::::::::::::::::::::::::::::::::::::::::::::

           -------------------------------------------------
          | TOTAL ENERGY              -99.490913466419 Eh   |
          | TOTAL ENTHALPY            -98.906349700308 Eh   |
          | TOTAL FREE ENERGY         -99.001347215876 Eh   |
          | GRADIENT NORM               0.000064520143 Eh/α |
           -------------------------------------------------

 * finished run on 2025/09/04 at 10:26:05.668
