   * xtb version 6.7.1 (edcfbbe) compiled by 'albert@albert-system' on 2024-07-22

   ID    Z sym.   atoms
    1    8 O      1, 4
    2    6 C      2, 3, 5-12, 14-33
    3    7 N      13
    4    1 H      34-52

          program call               : xtb data2507/gas/ADO-TPA/ADO-TPA_gas_S0_crest.xyz --gfn 2 --ohess vtight --parallel 40 --molden --ceasefiles --namespace data2507/gas/ADO-TPA/ADO-TPA_gas_S0_finalOpt
          :  Hamiltonian                  GFN2-xTB          :
 * total energy  :   -84.9601820 Eh     change       -0.1647166E-08 Eh
 * total energy  :   -84.9601827 Eh     change       -0.7760408E-06 Eh
 * total energy  :   -84.9601836 Eh     change       -0.8473942E-06 Eh
 * total energy  :   -84.9601850 Eh     change       -0.1434516E-05 Eh
 * total energy  :   -84.9601860 Eh     change       -0.9395687E-06 Eh
 * total energy  :   -84.9601859 Eh     change        0.4376189E-07 Eh
 * total energy  :   -84.9601866 Eh     change       -0.6504238E-06 Eh
 * total energy  :   -84.9601871 Eh     change       -0.5176472E-06 Eh
 * total energy  :   -84.9601876 Eh     change       -0.5000749E-06 Eh
 * total energy  :   -84.9601880 Eh     change       -0.3959883E-06 Eh
 * total energy  :   -84.9601893 Eh     change       -0.3452459E-06 Eh
 * total energy  :   -84.9601897 Eh     change       -0.3513339E-06 Eh
 * total energy  :   -84.9601900 Eh     change       -0.3485188E-06 Eh
 * total energy  :   -84.9601904 Eh     change       -0.3480141E-06 Eh
 * total energy  :   -84.9601907 Eh     change       -0.3064209E-06 Eh
 * total energy  :   -84.9601909 Eh     change       -0.2368116E-06 Eh
 * total energy  :   -84.9601911 Eh     change       -0.1878051E-06 Eh
 * total energy  :   -84.9601912 Eh     change       -0.1384152E-06 Eh
 * total energy  :   -84.9601912 Eh     change       -0.7736247E-09 Eh
   *** GEOMETRY OPTIMIZATION CONVERGED AFTER 22 ITERATIONS ***

 final structure:
================
52
 xtb: 6.7.1 (edcfbbe)
O            7.78517662309803       -0.86580524879779        0.09066184480893
C            6.68096409943252       -0.38992928569060        0.03307390115690
C            6.35101872748882        1.11320714637709       -0.24237164431236
O            7.16405057414719        1.98328576634533       -0.42745469776535
C            4.88431424810989        1.20481044673053       -0.21782560855086
C            4.00601849991310        2.25245693697543       -0.36880915586109
C            2.63311811113277        1.98913393569560       -0.29232176296511
C            2.10849932441084        0.72441747758875       -0.07409879881909
C            0.65619950026807        0.53357912689716       -0.05840010670834
C           -0.16542255065495        1.38440001366157        0.68156946999260
C           -1.53161345299033        1.21173554775738        0.70318370921572
C           -2.13034010289418        0.18937731967305       -0.03829508192376
N           -3.50933426815397        0.01172687983462       -0.02165019533263
C           -4.05887444180035       -1.27384442301051       -0.13110713718020
C           -3.45768246527504       -2.35733741773120        0.50791356930845
C           -4.00510829554543       -3.62078798703805        0.39685813464237
C           -5.15983202769448       -3.82245765949076       -0.34123302215515
C           -5.76451533377430       -2.74758867366669       -0.97207103839541
C           -5.22000676375129       -1.48177492411388       -0.87388154956845
C           -4.36565281775373        1.11553080592132        0.10418259471605
C           -4.07770401816962        2.31285888798567       -0.54918408324094
C           -4.92708296535711        3.39494070879842       -0.42215993104039
C           -6.07551006004802        3.29886542001786        0.34645637439819
C           -6.36870540770216        2.10892964456312        0.99222624469953
C           -5.52137699302970        1.02382693325019        0.87807271280919
C           -1.31223302199910       -0.64904636764812       -0.80058459844843
C            0.05505336167053       -0.48281491488243       -0.80242834240112
C            2.99904964290438       -0.37165670793741        0.12309924825116
C            2.67147827443868       -1.70764464850046        0.44789746258338
C            3.65541843636669       -2.65385538775409        0.61416905892006
C            5.02182667668621       -2.35344033777929        0.48310892779879
C            5.37615885538029       -1.05739538676246        0.20041051650050
C            4.36739187028168       -0.08475344252276        0.03289233658358
H            4.36127336296136        3.25478602503521       -0.55261727336322
H            1.94353626802615        2.80838184536698       -0.43818042087239
H            0.28148807776049        2.16733707161588        1.27645574464231
H           -2.14907685672345        1.86336286127867        1.30334631039510
H           -2.56468940845873       -2.19932055536918        1.09506220859185
H           -3.53152430757143       -4.45190437319974        0.89830209852256
H           -5.58634373587192       -4.81048031465712       -0.42299579809833
H           -6.66318965340202       -2.89647869794157       -1.55208643996385
H           -5.68810005276482       -0.64581445182799       -1.37266783666190
H           -3.18901292681227        2.38531710970916       -1.15910989974556
H           -4.69474813242774        4.31663278781246       -0.93486273428467
H           -6.73828132326603        4.14543994887261        0.44049892700914
H           -7.26012261452739        2.02653933904385        1.59623252926085
H           -5.74696136946296        0.09877645358972        1.38818146794980
H           -1.76204434777519       -1.42647527898523       -1.40023312776386
H            0.66662364344147       -1.11972394180200       -1.42465093690687
H            1.63644334169491       -1.98339383235729        0.58399362332329
H            3.37210184063529       -3.66626019500986        0.86273120467571
H            5.76915233510884       -3.12015058332044        0.61724351427270

          :  Hamiltonian                  GFN2-xTB          :
         :: gradient norm              0.000019861506 Eh/a0 ::
         :: HOMO-LUMO gap              1.202939239317 eV    ::
         :: SCC energy               -86.467760916060 Eh    ::
         :: -> dispersion             -0.069664003002 Eh    ::
         :: repulsion energy           1.507569689274 Eh    ::

    * Orbital Energies and Occupations

         #    Occupation            Energy/Eh            Energy/eV
      -------------------------------------------------------------
         1        2.0000           -0.7207507             -19.6126
       ...           ...                  ...                  ...
        66        2.0000           -0.4387981             -11.9403
        67        2.0000           -0.4347111             -11.8291
        68        2.0000           -0.4337609             -11.8032
        69        2.0000           -0.4323936             -11.7660
        70        2.0000           -0.4276085             -11.6358
        71        2.0000           -0.4219760             -11.4826
        72        2.0000           -0.4197351             -11.4216
        73        2.0000           -0.4180344             -11.3753
        74        2.0000           -0.4155999             -11.3090
        75        2.0000           -0.4146864             -11.2842
        76        2.0000           -0.4012128             -10.9176
        77        2.0000           -0.3769386             -10.2570
        78        2.0000           -0.3613368              -9.8325 (HOMO)
        79                         -0.3171296              -8.6295 (LUMO)
        80                         -0.3038861              -8.2692
        81                         -0.2526715              -6.8755
        82                         -0.2460933              -6.6965
        83                         -0.2407416              -6.5509
        84                         -0.2396475              -6.5211
        85                         -0.2339431              -6.3659
        86                         -0.2317664              -6.3067
        87                         -0.2115321              -5.7561
        88                         -0.2010584              -5.4711
        89                         -0.1883357              -5.1249
       ...                                ...                  ...
       151                          0.7650327              20.8176
      -------------------------------------------------------------
                  HL-Gap            0.0442072 Eh            1.2029 eV

     #   Z          covCN         q      C6AA      α(0)
     1   8 O        0.856    -0.306    19.895     5.980
     2   6 C        2.856     0.207    23.612     7.965
     3   6 C        2.856     0.206    23.640     7.969
     4   8 O        0.856    -0.312    19.995     5.995
     5   6 C        3.008    -0.027    28.664     8.782
     6   6 C        2.912    -0.012    28.317     8.726
     7   6 C        2.925    -0.035    28.861     8.810
     8   6 C        2.974     0.017    27.632     8.623
     9   6 C        2.976     0.000    28.014     8.682
    10   6 C        2.923    -0.033    28.813     8.803
    11   6 C        2.920    -0.049    29.205     8.862
    12   6 C        2.923     0.067    26.491     8.441
    13   7 N        2.752    -0.071    22.626     7.065
    14   6 C        2.925     0.064    26.560     8.452
    15   6 C        2.922    -0.047    29.159     8.855
    16   6 C        2.920    -0.029    28.719     8.788
    17   6 C        2.919    -0.036    28.907     8.817
    18   6 C        2.920    -0.028    28.705     8.786
    19   6 C        2.922    -0.046    29.143     8.853
    20   6 C        2.925     0.064    26.563     8.452
    21   6 C        2.922    -0.047    29.155     8.855
    22   6 C        2.920    -0.029    28.714     8.787
    23   6 C        2.919    -0.036    28.903     8.816
    24   6 C        2.920    -0.028    28.707     8.786
    25   6 C        2.922    -0.046    29.143     8.853
    26   6 C        2.921    -0.049    29.224     8.865
    27   6 C        2.923    -0.032    28.806     8.801
    28   6 C        2.978     0.014    27.706     8.634
    29   6 C        2.918    -0.025    28.627     8.774
    30   6 C        2.919    -0.028    28.690     8.783
    31   6 C        2.913    -0.011    28.300     8.723
    32   6 C        3.008    -0.023    28.559     8.766
    33   6 C        3.085     0.007    27.762     8.637
    34   1 H        0.926     0.058     2.226     2.333
    35   1 H        0.926     0.046     2.370     2.407
    36   1 H        0.926     0.037     2.494     2.469
    37   1 H        0.926     0.037     2.488     2.467
    38   1 H        0.926     0.031     2.568     2.506
    39   1 H        0.926     0.034     2.533     2.489
    40   1 H        0.926     0.034     2.537     2.491
    41   1 H        0.926     0.035     2.521     2.483
    42   1 H        0.926     0.033     2.537     2.491
    43   1 H        0.926     0.033     2.550     2.497
    44   1 H        0.926     0.034     2.525     2.485
    45   1 H        0.926     0.034     2.535     2.490
    46   1 H        0.926     0.035     2.523     2.484
    47   1 H        0.926     0.033     2.541     2.493
    48   1 H        0.926     0.036     2.498     2.472
    49   1 H        0.926     0.036     2.496     2.471
    50   1 H        0.926     0.048     2.346     2.395
    51   1 H        0.926     0.046     2.372     2.409
    52   1 H        0.926     0.058     2.217     2.328

molecular dipole:
                 x           y           z       tot (Debye)
 q only:       -3.429      -0.534       0.177
   full:       -3.640      -0.583       0.195       9.382

 projected vibrational frequencies (cm⁻¹)
eigval :       -0.00     0.00     0.00     0.00     0.00     0.00
eigval :       18.93    20.62    25.55    44.54    52.10    59.93
eigval :       67.45    75.08    76.46   108.88   124.18   156.52
eigval :      161.44   184.08   187.78   228.43   234.71   271.97
eigval :      292.31   299.78   311.32   330.50   352.55   364.53
eigval :      377.35   378.01   382.20   392.78   399.20   421.92
eigval :      444.80   463.64   470.65   490.40   495.77   522.40
eigval :      538.70   562.66   572.48   583.80   587.09   593.14
eigval :      603.49   617.18   625.88   643.76   660.68   665.67
eigval :      688.38   696.53   733.61   747.09   754.54   757.89
eigval :      762.18   797.88   808.45   818.86   846.52   870.90
eigval :      873.24   875.36   876.59   894.43   894.83   902.71
eigval :      910.04   913.88   915.22   923.39   926.08   928.42
eigval :      929.51   929.91   930.42   941.43   944.83   984.41
eigval :     1005.46  1009.81  1031.44  1050.73  1082.91  1083.91
eigval :     1095.98  1121.52  1123.46  1126.92  1143.53  1180.51
eigval :     1180.61  1185.57  1187.17  1194.96  1196.02  1205.81
eigval :     1214.93  1218.06  1242.02  1269.69  1276.01  1277.92
eigval :     1283.29  1310.08  1316.67  1324.10  1326.03  1329.95
eigval :     1332.63  1351.23  1388.32  1413.47  1428.59  1432.50
eigval :     1436.20  1442.51  1470.66  1474.98  1475.64  1496.65
eigval :     1548.26  1562.52  1578.15  1581.34  1582.17  1592.74
eigval :     1594.35  1598.82  1601.33  1749.31  1773.22  3076.98
eigval :     3077.91  3078.77  3079.14  3079.69  3080.26  3081.50
eigval :     3082.49  3086.75  3087.34  3090.16  3091.11  3092.57
eigval :     3093.91  3094.20  3099.52  3099.70  3099.87  3102.27

   temp. (K)  partition function   enthalpy   heat capacity  entropy
                                   cal/mol     cal/K/mol   cal/K/mol   J/K/mol
 298.15  VIB  0.469E+11            14494.849     93.725     89.042
         ROT  0.308E+08              888.752      2.981     37.246
         INT  0.144E+19            15383.602     96.706    126.288
         TR   0.849E+28             1481.254      4.968     44.014
         TOT                       16864.8555   101.6737   170.3021   712.5440

       T/K    H(0)-H(T)+PV         H(T)/Eh          T*S/Eh         G(T)/Eh
   ------------------------------------------------------------------------
    298.15    0.268759E-01    0.417572E+00    0.809160E-01    0.336656E+00
   ------------------------------------------------------------------------

         :::::::::::::::::::::::::::::::::::::::::::::::::::::
         ::                  THERMODYNAMIC                  ::
         :::::::::::::::::::::::::::::::::::::::::::::::::::::
         :: total free energy         -84.623535645385 Eh   ::
         ::.................................................::
         :: total energy              -84.960191226785 Eh   ::
         :: zero point energy           0.390695743841 Eh   ::
         :: G(RRHO) w/o ZPVE           -0.054040162441 Eh   ::
         :: G(RRHO) contrib.            0.336655581400 Eh   ::
         :::::::::::::::::::::::::::::::::::::::::::::::::::::

           -------------------------------------------------
          | TOTAL ENERGY              -84.960191226785 Eh   |
          | TOTAL ENTHALPY            -84.542619624990 Eh   |
          | TOTAL FREE ENERGY         -84.623535645385 Eh   |
          | GRADIENT NORM               0.000019862554 Eh/α |
          | HOMO-LUMO GAP               1.202939966190 eV   |
           -------------------------------------------------

 * finished run on 2025/07/16 at 22:31:05.472
