   * xtb version 6.7.1 (edcfbbe) compiled by 'albert@albert-system' on 2024-07-22

   ID    Z sym.   atoms
    1    8 O      1, 4
    2    6 C      2, 3, 5-12, 14-33
    3    7 N      13
    4    1 H      34-52

          program call               : xtb data2507/gas/ADO-TPA/ADO-TPA_gas_T1_crest.xyz --gfn 2 --spinpol --tblite --uhf 2 --ohess vtight --parallel 40 --molden --ceasefiles --namespace data2507/gas/ADO-TPA/ADO-TPA_gas_T1_finalOpt
 * total energy  :   -84.9117661 Eh     change       -0.2123392E-07 Eh
 * total energy  :   -84.9117868 Eh     change       -0.2068308E-04 Eh
 * total energy  :   -84.9117935 Eh     change       -0.6703202E-05 Eh
 * total energy  :   -84.9117954 Eh     change       -0.1852787E-05 Eh
 * total energy  :   -84.9117970 Eh     change       -0.1600104E-05 Eh
 * total energy  :   -84.9117983 Eh     change       -0.1318164E-05 Eh
 * total energy  :   -84.9117996 Eh     change       -0.1289747E-05 Eh
 * total energy  :   -84.9118009 Eh     change       -0.1319755E-05 Eh
 * total energy  :   -84.9118020 Eh     change       -0.1076015E-05 Eh
 * total energy  :   -84.9118027 Eh     change       -0.7222471E-06 Eh
 * total energy  :   -84.9118053 Eh     change       -0.5148119E-06 Eh
 * total energy  :   -84.9118058 Eh     change       -0.4974673E-06 Eh
 * total energy  :   -84.9118061 Eh     change       -0.3270871E-06 Eh
 * total energy  :   -84.9118065 Eh     change       -0.4328667E-06 Eh
 * total energy  :   -84.9118070 Eh     change       -0.4288530E-06 Eh
 * total energy  :   -84.9118073 Eh     change       -0.3432649E-06 Eh
 * total energy  :   -84.9118076 Eh     change       -0.2942813E-06 Eh
 * total energy  :   -84.9118080 Eh     change       -0.3449961E-06 Eh
 * total energy  :   -84.9118080 Eh     change       -0.9978294E-08 Eh
   *** GEOMETRY OPTIMIZATION CONVERGED AFTER 22 ITERATIONS ***

 final structure:
================
52
 xtb: 6.7.1 (edcfbbe)
O            7.79942884196592        0.83419508244336       -0.07321641866100
C            6.66572116373927        0.36622680244289       -0.02880429920230
C            6.33907775071236       -1.08621595979171        0.19475808901639
O            7.16997364269400       -1.97687849505158        0.35281987705874
C            4.87816792337583       -1.18289475031204        0.17465303831215
C            4.01052154101420       -2.24064078123472        0.30210770292318
C            2.63489449256155       -1.96997281840228        0.23135116162635
C            2.10327303554114       -0.70476856006981        0.04634105168761
C            0.64947614495543       -0.51946621217619        0.03628365220212
C           -0.17006563470863       -1.35753816306278       -0.72056563765029
C           -1.53763491801115       -1.19201066384456       -0.73275079696580
C           -2.13576649606145       -0.18632336828822        0.03036735688160
N           -3.51938219978974       -0.01627296778710        0.02348431875827
C           -4.36419050566992       -1.12861646479807       -0.07571816196806
C           -5.53911504462392       -1.05722889127350       -0.82405086325048
C           -6.37196280315537       -2.15530367381955       -0.91463896145669
C           -6.04686485622591       -3.33779906238212       -0.26978997535455
C           -4.87976227165465       -3.41391932623019        0.47307727498822
C           -4.04313299154117       -2.31978654307795        0.57536424245444
C           -4.06980257730817        1.26794826346049        0.11359958872702
C           -3.46133899980767        2.34429493213396       -0.53236912906841
C           -4.00902137494151        3.60884503929536       -0.44062336641841
C           -5.16922995458925        3.81983944412757        0.28678340003902
C           -5.77921993988137        2.75312155284665        0.92699126178491
C           -5.23626916513784        1.48569592793928        0.84679681584324
C           -1.32112095385681        0.64339769349921        0.80439699569117
C            0.04701730837156        0.48017520491945        0.80164905860005
C            2.99098535966483        0.40148601625762       -0.11869397129712
C            2.68200680820811        1.75376539156686       -0.40248122022736
C            3.68413932487119        2.68367999137444       -0.54082282564755
C            5.05127841413866        2.36589133432282       -0.42424609056448
C            5.37843341474974        1.05657733798043       -0.17663858678224
C            4.34974107262091        0.10521074563367       -0.03730734677374
H            4.36018475298109       -3.24903978049401        0.45855270601981
H            1.95078249986365       -2.79755344061483        0.35651079178704
H            0.27874837202453       -2.12626503485784       -1.33192186692815
H           -2.15571860826983       -1.83373559927644       -1.34305002515983
H           -5.78791593474232       -0.13939253365842       -1.33619909660102
H           -7.27705710640926       -2.08939455844713       -1.49978738471926
H           -6.69904532993342       -4.19423790365486       -0.34520168255077
H           -4.62273089203555       -4.32959090841054        0.98440873585565
H           -3.14041270446493       -2.37607912821590        1.16581560977033
H           -2.56489336181499        2.17830848939786       -1.11169769510063
H           -3.53148827983175        4.43353582717450       -0.94847324170442
H           -5.59559587974774        4.80890699250861        0.35360891442556
H           -6.68071525205683        2.91014031820058        1.50020285318463
H           -5.70661529867822        0.65691429171504        1.35519447337304
H           -1.77376045499982        1.40823549394175        1.41812430490057
H            0.65863109344678        1.10783028752112        1.43263391692639
H            1.65237387678543        2.05273803936541       -0.52886560800890
H            3.42036804420444        3.70912974728534       -0.75645041519032
H            5.80343555465894        3.13009891147841       -0.54075368778611

 projected vibrational frequencies (cm⁻¹)
eigval :       -0.00    -0.00    -0.00     0.00     0.00     0.00
eigval :       18.61    20.35    25.84    44.77    52.79    60.92
eigval :       74.19    75.06    92.06   109.55   132.82   150.28
eigval :      161.04   188.07   192.54   231.69   233.74   263.68
eigval :      297.48   304.21   315.69   337.48   354.47   366.40
eigval :      377.10   380.38   389.65   397.92   403.50   417.89
eigval :      441.68   453.69   470.11   489.07   496.36   519.86
eigval :      536.92   560.01   568.09   583.61   586.00   592.92
eigval :      605.72   613.72   617.97   626.99   653.78   660.22
eigval :      663.21   683.54   692.25   717.97   737.90   757.47
eigval :      761.14   791.20   794.25   816.63   836.17   849.03
eigval :      870.38   873.49   875.11   888.82   893.72   895.04
eigval :      897.28   907.28   910.16   917.72   921.32   922.62
eigval :      928.14   929.10   929.72   930.01   937.11   977.42
eigval :      993.84  1004.70  1010.29  1038.54  1082.40  1083.38
eigval :     1086.11  1115.57  1121.73  1123.80  1141.97  1178.88
eigval :     1180.04  1180.20  1183.13  1188.45  1191.98  1193.86
eigval :     1200.62  1215.92  1217.75  1268.02  1273.45  1276.85
eigval :     1282.10  1307.07  1314.86  1317.59  1320.37  1325.27
eigval :     1326.45  1344.05  1367.83  1396.99  1411.13  1434.22
eigval :     1437.06  1441.50  1460.27  1466.90  1469.02  1487.89
eigval :     1528.74  1542.38  1547.28  1574.56  1576.09  1578.34
eigval :     1585.14  1589.20  1592.92  1598.41  1667.66  3076.60
eigval :     3077.99  3079.72  3080.41  3080.67  3081.63  3081.97
eigval :     3083.42  3088.83  3089.48  3092.03  3092.25  3093.08
eigval :     3093.78  3094.34  3101.50  3101.68  3103.11  3105.33

   temp. (K)  partition function   enthalpy   heat capacity  entropy
                                   cal/mol     cal/K/mol   cal/K/mol   J/K/mol
 298.15  VIB  0.357E+11            14518.426     94.610     88.767
         ROT  0.308E+08              888.752      2.981     37.245
         INT  0.110E+19            15407.178     97.591    126.012
         TR   0.849E+28             1481.254      4.968     44.014
         TOT                       16888.4321   102.5589   170.0266   711.3912

       T/K    H(0)-H(T)+PV         H(T)/Eh          T*S/Eh         G(T)/Eh
   ------------------------------------------------------------------------
    298.15    0.269134E-01    0.415552E+00    0.807851E-01    0.334767E+00
   ------------------------------------------------------------------------

         :::::::::::::::::::::::::::::::::::::::::::::::::::::
         ::                  THERMODYNAMIC                  ::
         :::::::::::::::::::::::::::::::::::::::::::::::::::::
         :: total free energy         -84.577040931629 Eh   ::
         ::.................................................::
         :: total energy              -84.911807966819 Eh   ::
         :: zero point energy           0.388638715772 Eh   ::
         :: G(RRHO) w/o ZPVE           -0.053871680583 Eh   ::
         :: G(RRHO) contrib.            0.334767035190 Eh   ::
         :::::::::::::::::::::::::::::::::::::::::::::::::::::

           -------------------------------------------------
          | TOTAL ENERGY              -84.911807966819 Eh   |
          | TOTAL ENTHALPY            -84.496255821365 Eh   |
          | TOTAL FREE ENERGY         -84.577040931629 Eh   |
          | GRADIENT NORM               0.000100649765 Eh/α |
           -------------------------------------------------

 * finished run on 2025/07/16 at 22:34:30.876
