   * xtb version 6.7.1 (edcfbbe) compiled by 'albert@albert-system' on 2024-07-22

   ID    Z sym.   atoms
    1    8 O      1, 4
    2    6 C      2, 3, 5-12, 14-33
    3    7 N      13
    4    1 H      34-52

          program call               : xtb data2507/gas/ADO-TPA/ADO-TPA.xyz --gfn 2 --ohess vtight --parallel 40 --molden --ceasefiles --namespace data2507/gas/ADO-TPA/ADO-TPA_gas_S0_preOpt
          :  Hamiltonian                  GFN2-xTB          :
 * total energy  :   -84.9412715 Eh     change       -0.1021704E-08 Eh
 * total energy  :   -84.9525253 Eh     change       -0.1125389E-01 Eh
 * total energy  :   -84.9561944 Eh     change       -0.3669014E-02 Eh
 * total energy  :   -84.9570021 Eh     change       -0.8077135E-03 Eh
 * total energy  :   -84.9575176 Eh     change       -0.5155222E-03 Eh
 * total energy  :   -84.9577366 Eh     change       -0.2190369E-03 Eh
 * total energy  :   -84.9579195 Eh     change       -0.1828706E-03 Eh
 * total energy  :   -84.9581103 Eh     change       -0.1908443E-03 Eh
 * total energy  :   -84.9582806 Eh     change       -0.1702159E-03 Eh
 * total energy  :   -84.9584119 Eh     change       -0.1313662E-03 Eh
 * total energy  :   -84.9601759 Eh     change       -0.7750474E-06 Eh
 * total energy  :   -84.9601765 Eh     change       -0.6175597E-06 Eh
 * total energy  :   -84.9601770 Eh     change       -0.5215711E-06 Eh
 * total energy  :   -84.9601776 Eh     change       -0.5096505E-06 Eh
 * total energy  :   -84.9601781 Eh     change       -0.5381269E-06 Eh
 * total energy  :   -84.9601787 Eh     change       -0.6152209E-06 Eh
 * total energy  :   -84.9601794 Eh     change       -0.6985071E-06 Eh
 * total energy  :   -84.9601802 Eh     change       -0.7603623E-06 Eh
 * total energy  :   -84.9601802 Eh     change       -0.5108618E-08 Eh
   *** GEOMETRY OPTIMIZATION CONVERGED AFTER 68 ITERATIONS ***

 final structure:
================
52
 xtb: 6.7.1 (edcfbbe)
O            8.54833842813529       -0.65808709165671        0.00979675879687
C            7.43523271819225       -0.20181544098731       -0.03341035582431
C            7.07609092369253        1.29927918226813       -0.28240063414793
O            7.87188217110404        2.18688339057867       -0.45900291035490
C            5.60816836405113        1.36367518985078       -0.24651279695112
C            4.70994362850021        2.39748648104775       -0.37374219185997
C            3.34262993061562        2.10798209953229       -0.29116818755898
C            2.84290391063917        0.83032112492704       -0.09130973956403
C            1.39418674234923        0.61354438382985       -0.06758308206298
C            0.56570834366710        1.42879615181979        0.70385398369344
C           -0.79730479709362        1.23360269979952        0.73136521605263
C           -1.38688280945882        0.22633164710351       -0.03785500058303
N           -2.76295395989509        0.03028452049687       -0.01900499295402
C           -3.30023304656160       -1.25479271270518       -0.18376494534352
C           -2.68686875667566       -2.36056942138186        0.40322756489475
C           -3.22369443311857       -3.62255771351930        0.23691835121175
C           -4.37972265416007       -3.80091555762916       -0.50511841430782
C           -4.99679607854391       -2.70400636143669       -1.08386034866215
C           -4.46293769153131       -1.43918909151938       -0.93031237549552
C           -3.63306224376046        1.11544371049722        0.16517115251337
C           -3.37232931839201        2.34381274808196       -0.44007227465903
C           -4.23528235581708        3.40650028184041       -0.25406613569025
C           -5.37050312446049        3.26009420357151        0.52615652301082
C           -5.63716050711923        2.03902448100556        1.12347292611467
C           -4.77600936366288        0.97279587358920        0.95018656172060
C           -0.56168136564232       -0.57667385854769       -0.83027121073529
C            0.80312435799594       -0.39066705922342       -0.83554101469448
C            3.75437561202186       -0.25263459144961        0.07954526873255
C            3.45282549310178       -1.59994265614885        0.38180070882590
C            4.45490352660162       -2.53048397392758        0.52679536442278
C            5.81486872356375       -2.20262454215221        0.39399546730603
C            6.14393740594767       -0.89582325511308        0.13089356981835
C            5.11660681258542        0.06083008729894       -0.01415909429429
H            5.04556106665069        3.40903891617854       -0.54338858046894
H            2.63695682200420        2.91682184903942       -0.41690498074800
H            1.00541564422923        2.20104839001950        1.31779797324036
H           -1.41919988697231        1.85655704520419        1.35681054365335
H           -1.79287343014016       -2.22135864116680        0.99357772172457
H           -2.74066905930407       -4.47134109375643        0.69813785028488
H           -4.79775049575032       -4.78803172019258       -0.63018361803837
H           -5.89675573215354       -2.83440988481507       -1.66632440674439
H           -4.94066927380641       -0.58555093904640       -1.38837740696122
H           -2.49396059514316        2.45587089179031       -1.05888802621542
H           -4.02397988529055        4.35290190174872       -0.72949144123501
H           -6.04369835549307        4.09188379528996        0.66664748014340
H           -6.51826608681185        1.91716198358801        1.73586739523082
H           -4.98068819404017        0.02308928972729        1.42241546970544
H           -1.00378465109418       -1.34200255971681       -1.45080719895811
H            1.41995947207203       -1.00113966288873       -1.47877642392071
H            2.42351308450221       -1.89678121157964        0.51716761790719
H            4.19172969489535       -3.55211305273539        0.75922589944963
H            6.57685527477380       -2.95755322643099        0.51146942057725

          :  Hamiltonian                  GFN2-xTB          :
         :: gradient norm              0.000054099605 Eh/a0 ::
         :: HOMO-LUMO gap              1.204218520411 eV    ::
         :: SCC energy               -86.467771903824 Eh    ::
         :: -> dispersion             -0.069656306711 Eh    ::
         :: repulsion energy           1.507591732579 Eh    ::

    * Orbital Energies and Occupations

         #    Occupation            Energy/Eh            Energy/eV
      -------------------------------------------------------------
         1        2.0000           -0.7207117             -19.6116
       ...           ...                  ...                  ...
        66        2.0000           -0.4387360             -11.9386
        67        2.0000           -0.4346533             -11.8275
        68        2.0000           -0.4338399             -11.8054
        69        2.0000           -0.4324150             -11.7666
        70        2.0000           -0.4275469             -11.6341
        71        2.0000           -0.4217766             -11.4771
        72        2.0000           -0.4195192             -11.4157
        73        2.0000           -0.4181608             -11.3787
        74        2.0000           -0.4156531             -11.3105
        75        2.0000           -0.4147708             -11.2865
        76        2.0000           -0.4012475             -10.9185
        77        2.0000           -0.3768953             -10.2558
        78        2.0000           -0.3613269              -9.8322 (HOMO)
        79                         -0.3170727              -8.6280 (LUMO)
        80                         -0.3037667              -8.2659
        81                         -0.2526089              -6.8738
        82                         -0.2458729              -6.6905
        83                         -0.2408470              -6.5538
        84                         -0.2395047              -6.5173
        85                         -0.2339596              -6.3664
        86                         -0.2318658              -6.3094
        87                         -0.2115544              -5.7567
        88                         -0.2010085              -5.4697
        89                         -0.1883884              -5.1263
       ...                                ...                  ...
       151                          0.7650700              20.8186
      -------------------------------------------------------------
                  HL-Gap            0.0442542 Eh            1.2042 eV

     #   Z          covCN         q      C6AA      α(0)
     1   8 O        0.856    -0.306    19.895     5.980
     2   6 C        2.856     0.207    23.612     7.964
     3   6 C        2.856     0.206    23.640     7.969
     4   8 O        0.856    -0.312    19.995     5.995
     5   6 C        3.008    -0.027    28.665     8.782
     6   6 C        2.912    -0.012    28.317     8.726
     7   6 C        2.925    -0.035    28.860     8.810
     8   6 C        2.974     0.017    27.630     8.622
     9   6 C        2.976     0.000    28.019     8.683
    10   6 C        2.923    -0.033    28.814     8.803
    11   6 C        2.920    -0.049    29.212     8.863
    12   6 C        2.923     0.067    26.493     8.441
    13   7 N        2.752    -0.071    22.624     7.064
    14   6 C        2.925     0.064    26.560     8.452
    15   6 C        2.922    -0.047    29.157     8.855
    16   6 C        2.920    -0.029    28.719     8.788
    17   6 C        2.919    -0.036    28.905     8.817
    18   6 C        2.920    -0.028    28.705     8.786
    19   6 C        2.922    -0.046    29.141     8.853
    20   6 C        2.925     0.064    26.563     8.452
    21   6 C        2.922    -0.046    29.152     8.854
    22   6 C        2.920    -0.029    28.714     8.787
    23   6 C        2.919    -0.036    28.901     8.816
    24   6 C        2.920    -0.028    28.707     8.786
    25   6 C        2.922    -0.046    29.140     8.852
    26   6 C        2.921    -0.050    29.230     8.866
    27   6 C        2.923    -0.032    28.805     8.801
    28   6 C        2.978     0.014    27.706     8.634
    29   6 C        2.918    -0.025    28.625     8.773
    30   6 C        2.919    -0.028    28.689     8.783
    31   6 C        2.913    -0.011    28.300     8.723
    32   6 C        3.008    -0.023    28.559     8.766
    33   6 C        3.085     0.007    27.762     8.637
    34   1 H        0.926     0.058     2.226     2.333
    35   1 H        0.926     0.046     2.370     2.408
    36   1 H        0.926     0.036     2.496     2.471
    37   1 H        0.926     0.037     2.490     2.468
    38   1 H        0.926     0.032     2.565     2.504
    39   1 H        0.926     0.034     2.533     2.489
    40   1 H        0.926     0.034     2.536     2.490
    41   1 H        0.926     0.035     2.521     2.483
    42   1 H        0.926     0.033     2.538     2.491
    43   1 H        0.926     0.033     2.547     2.496
    44   1 H        0.926     0.034     2.523     2.484
    45   1 H        0.926     0.034     2.534     2.489
    46   1 H        0.926     0.035     2.522     2.483
    47   1 H        0.926     0.033     2.541     2.493
    48   1 H        0.926     0.036     2.499     2.472
    49   1 H        0.926     0.036     2.499     2.472
    50   1 H        0.926     0.048     2.347     2.396
    51   1 H        0.926     0.046     2.373     2.409
    52   1 H        0.926     0.058     2.217     2.329

molecular dipole:
                 x           y           z       tot (Debye)
 q only:       -3.429      -0.598       0.191
   full:       -3.639      -0.650       0.209       9.410

 projected vibrational frequencies (cm⁻¹)
eigval :       -0.00    -0.00    -0.00     0.00     0.00     0.00
eigval :       18.91    20.62    25.50    44.62    51.86    60.15
eigval :       67.41    74.84    76.35   108.94   124.03   156.37
eigval :      161.30   183.14   187.60   228.53   235.05   272.20
eigval :      292.31   299.79   311.10   330.53   352.41   364.37
eigval :      377.24   378.09   381.97   392.70   399.20   421.81
eigval :      444.71   463.56   470.87   490.39   495.87   522.53
eigval :      538.80   562.66   572.38   583.82   587.09   593.14
eigval :      603.49   616.99   625.83   643.97   660.85   665.85
eigval :      688.18   696.43   733.57   747.09   754.52   757.99
eigval :      762.24   797.90   808.40   818.79   846.50   870.84
eigval :      873.16   875.55   876.69   894.59   895.04   902.68
eigval :      909.96   913.90   915.28   923.27   926.05   928.53
eigval :      929.53   929.94   930.61   940.59   944.85   984.43
eigval :     1005.46  1009.72  1031.48  1050.80  1082.88  1083.86
eigval :     1095.83  1121.45  1123.35  1126.88  1143.83  1180.50
eigval :     1180.60  1185.52  1186.99  1194.90  1196.11  1205.84
eigval :     1214.88  1217.95  1241.90  1269.80  1276.02  1277.84
eigval :     1283.24  1309.92  1316.17  1324.15  1325.93  1330.25
eigval :     1332.68  1351.41  1388.42  1413.50  1428.65  1432.60
eigval :     1436.22  1442.44  1470.59  1474.90  1475.73  1497.04
eigval :     1548.33  1562.67  1578.18  1581.41  1582.19  1592.83
eigval :     1594.31  1598.81  1601.36  1749.33  1773.24  3077.08
eigval :     3077.97  3078.76  3079.04  3079.69  3080.15  3081.42
eigval :     3082.40  3086.81  3087.37  3090.18  3091.10  3092.65
eigval :     3093.79  3094.29  3099.53  3099.67  3099.88  3102.23

   temp. (K)  partition function   enthalpy   heat capacity  entropy
                                   cal/mol     cal/K/mol   cal/K/mol   J/K/mol
 298.15  VIB  0.474E+11            14496.794     93.724     89.063
         ROT  0.308E+08              888.752      2.981     37.247
         INT  0.146E+19            15385.546     96.705    126.311
         TR   0.849E+28             1481.254      4.968     44.014
         TOT                       16866.8001   101.6730   170.3252   712.6406

       T/K    H(0)-H(T)+PV         H(T)/Eh          T*S/Eh         G(T)/Eh
   ------------------------------------------------------------------------
    298.15    0.268790E-01    0.417571E+00    0.809270E-01    0.336644E+00
   ------------------------------------------------------------------------

         :::::::::::::::::::::::::::::::::::::::::::::::::::::
         ::                  THERMODYNAMIC                  ::
         :::::::::::::::::::::::::::::::::::::::::::::::::::::
         :: total free energy         -84.623536643521 Eh   ::
         ::.................................................::
         :: total energy              -84.960180171244 Eh   ::
         :: zero point energy           0.390691565462 Eh   ::
         :: G(RRHO) w/o ZPVE           -0.054048037739 Eh   ::
         :: G(RRHO) contrib.            0.336643527723 Eh   ::
         :::::::::::::::::::::::::::::::::::::::::::::::::::::

           -------------------------------------------------
          | TOTAL ENERGY              -84.960180171244 Eh   |
          | TOTAL ENTHALPY            -84.542609648948 Eh   |
          | TOTAL FREE ENERGY         -84.623536643521 Eh   |
          | GRADIENT NORM               0.000054099379 Eh/α |
          | HOMO-LUMO GAP               1.204217356984 eV   |
           -------------------------------------------------

 * finished run on 2025/07/16 at 22:29:01.970
