   * xtb version 6.7.1 (edcfbbe) compiled by 'albert@albert-system' on 2024-07-22

   ID    Z sym.   atoms
    1    8 O      1, 4
    2    6 C      2, 3, 5-12, 14-33
    3    7 N      13
    4    1 H      34-52

          program call               : xtb data2507/gas/ADO-TPA/ADO-TPA_gas_S0_finalOpt.xtbopt.xyz --gfn 2 --spinpol --tblite --uhf 2 --ohess vtight --parallel 40 --molden --ceasefiles --namespace data2507/gas/ADO-TPA/ADO-TPA_gas_T1_preOpt
 * total energy  :   -84.9090595 Eh     change       -0.6862422E-08 Eh
 * total energy  :   -84.9112289 Eh     change       -0.2169346E-02 Eh
 * total energy  :   -84.9117247 Eh     change       -0.4958067E-03 Eh
 * total energy  :   -84.9117592 Eh     change       -0.3447515E-04 Eh
 * total energy  :   -84.9117829 Eh     change       -0.2375031E-04 Eh
 * total energy  :   -84.9117881 Eh     change       -0.5196527E-05 Eh
 * total energy  :   -84.9117900 Eh     change       -0.1866481E-05 Eh
 * total energy  :   -84.9117917 Eh     change       -0.1731328E-05 Eh
 * total energy  :   -84.9117943 Eh     change       -0.2601726E-05 Eh
 * total energy  :   -84.9117970 Eh     change       -0.2641026E-05 Eh
 * total energy  :   -84.9118022 Eh     change       -0.1332448E-05 Eh
 * total energy  :   -84.9118030 Eh     change       -0.8712124E-06 Eh
 * total energy  :   -84.9118035 Eh     change       -0.4887314E-06 Eh
 * total energy  :   -84.9118039 Eh     change       -0.3960524E-06 Eh
 * total energy  :   -84.9118045 Eh     change       -0.5533580E-06 Eh
 * total energy  :   -84.9118052 Eh     change       -0.7163797E-06 Eh
 * total energy  :   -84.9118060 Eh     change       -0.8355160E-06 Eh
 * total energy  :   -84.9118065 Eh     change       -0.5155486E-06 Eh
 * total energy  :   -84.9118066 Eh     change       -0.2938009E-07 Eh
   *** GEOMETRY OPTIMIZATION CONVERGED AFTER 22 ITERATIONS ***

 final structure:
================
52
 xtb: 6.7.1 (edcfbbe)
O            7.79917166125580       -0.80846903437306        0.07862955473080
C            6.66439609702796       -0.34366087683208        0.02792534101433
C            6.33442705002801        1.10535046681762       -0.21198659156287
O            7.16296344293178        1.99643509286236       -0.37955062944508
C            4.87313449675716        1.19880354383368       -0.19376854136364
C            4.00303045409925        2.25309579488544       -0.33247144990164
C            2.62794940470626        1.98000726902234       -0.25861828227646
C            2.09967526225256        0.71548408923140       -0.06075386042253
C            0.64635898870186        0.52600552416566       -0.04702097871664
C           -0.17368380981806        1.36303477401610        0.71018659796888
C           -1.54052390197986        1.19212775756016        0.72763662552751
C           -2.13770432688320        0.18310447950830       -0.03201349553005
N           -3.52030459931876        0.00844115651438       -0.02014609588873
C           -4.06896418801019       -1.27583489685971       -0.12124696546791
C           -3.45810323314115       -2.35799957352616        0.51252565102290
C           -4.00432045255053       -3.62224390241134        0.40832126646777
C           -5.16553366539290       -3.82708820594552       -0.31924607108943
C           -5.77845085709514       -2.75439555591988       -0.94652373638021
C           -5.23694340177875       -1.48721570015968       -0.85388944971144
C           -4.36911773508639        1.11673572958222        0.09333337207240
C           -4.06054286419351        2.31292505524502       -0.55438125107610
C           -4.90169658265178        3.40217433643193       -0.43762202794828
C           -6.06073813562792        3.31598285122118        0.31668681018724
C           -6.37343736646844        2.12834533767539        0.95820819269826
C           -5.53606664866212        1.03502480941515        0.85289353031475
C           -1.32233455485085       -0.64485452927146       -0.80737970587230
C            0.04530394782380       -0.47758164000985       -0.80815145935845
C            2.98982525006221       -0.38691456038187        0.11532498182811
C            2.68352205873950       -1.73682561031368        0.41269825932659
C            3.68772868848745       -2.66270998349814        0.56249365708205
C            5.05426134892186       -2.34278502622837        0.44422825084540
C            5.37867350121841       -1.03555323973968        0.18224760008394
C            4.34784968273293       -0.08824194721591        0.03163468675808
H            4.35043662922024        3.26059671217050       -0.49939968573513
H            1.94162280617597        2.80455574887094       -0.39158848599525
H            0.27446004199412        2.13512190992181        1.31780619036217
H           -2.15860027244167        1.83246897200619        1.33936391262570
H           -2.56086728211150       -2.19698246243220        1.09202689548262
H           -3.52476315460629       -4.45167694233606        0.90644787389719
H           -5.59046559306331       -4.81604116122144       -0.39615249704992
H           -6.68093286366897       -2.90644227526714       -1.51951841156230
H           -5.70949093651987       -0.65359292355644       -1.35224503441490
H           -3.16405396874229        2.37696804010270       -1.15348498698038
H           -4.65464675460360        4.32191501475903       -0.94656557543638
H           -6.71640992867823        4.16867983645194        0.40346364797461
H           -7.27213555077588        2.05466959282357        1.55222125544681
H           -5.77499568484178        0.11287669530254        1.36202135975245
H           -1.77385533154635       -1.41195590238873       -1.41906584661819
H            0.65753786379786       -1.10539744688019       -1.43842265012413
H            1.65425143576603       -2.03661867808218        0.54026825565240
H            3.42618504310073       -3.68638078950709        0.78902487391939
H            5.80816989918301       -3.10374187074415        0.57027879422545

 projected vibrational frequencies (cm⁻¹)
eigval :       -0.00    -0.00    -0.00    -0.00     0.00     0.00
eigval :       18.67    20.40    25.80    44.92    52.68    61.01
eigval :       74.18    74.87    92.02   109.82   132.64   150.24
eigval :      160.72   187.66   192.41   231.76   233.84   263.43
eigval :      297.61   304.12   315.03   337.33   354.53   365.71
eigval :      377.26   380.16   389.92   397.83   403.41   417.86
eigval :      441.51   453.85   470.19   489.12   496.36   519.74
eigval :      537.12   560.12   567.99   583.69   586.07   593.02
eigval :      605.77   613.82   618.09   626.84   653.91   660.37
eigval :      663.36   683.56   692.07   717.93   738.17   757.62
eigval :      761.32   791.20   794.23   816.67   836.12   848.81
eigval :      870.44   873.80   875.48   888.77   893.82   895.30
eigval :      897.71   907.28   910.13   917.77   921.10   922.56
eigval :      928.34   929.23   929.90   930.12   936.89   977.70
eigval :      993.34  1004.63  1010.08  1038.63  1082.27  1083.22
eigval :     1086.57  1115.25  1121.59  1123.67  1142.16  1178.51
eigval :     1180.13  1180.24  1184.15  1188.61  1191.99  1194.06
eigval :     1200.89  1215.45  1218.15  1268.26  1273.39  1276.91
eigval :     1282.12  1307.29  1314.76  1318.39  1320.67  1325.45
eigval :     1326.42  1344.07  1368.30  1397.02  1411.20  1434.38
eigval :     1437.25  1441.58  1460.68  1467.05  1469.30  1487.90
eigval :     1528.48  1542.64  1547.31  1574.66  1576.37  1578.42
eigval :     1585.06  1589.30  1592.82  1598.53  1667.67  3076.32
eigval :     3077.74  3079.76  3080.40  3080.59  3081.57  3081.91
eigval :     3083.27  3088.79  3089.28  3091.94  3092.26  3092.84
eigval :     3093.51  3094.39  3101.52  3101.84  3102.85  3105.15

   temp. (K)  partition function   enthalpy   heat capacity  entropy
                                   cal/mol     cal/K/mol   cal/K/mol   J/K/mol
 298.15  VIB  0.357E+11            14519.645     94.609     88.778
         ROT  0.308E+08              888.752      2.981     37.245
         INT  0.110E+19            15408.397     97.590    126.024
         TR   0.849E+28             1481.254      4.968     44.014
         TOT                       16889.6511   102.5579   170.0379   711.4385

       T/K    H(0)-H(T)+PV         H(T)/Eh          T*S/Eh         G(T)/Eh
   ------------------------------------------------------------------------
    298.15    0.269154E-01    0.415561E+00    0.807905E-01    0.334771E+00
   ------------------------------------------------------------------------

         :::::::::::::::::::::::::::::::::::::::::::::::::::::
         ::                  THERMODYNAMIC                  ::
         :::::::::::::::::::::::::::::::::::::::::::::::::::::
         :: total free energy         -84.577035553744 Eh   ::
         ::.................................................::
         :: total energy              -84.911806560494 Eh   ::
         :: zero point energy           0.388646122458 Eh   ::
         :: G(RRHO) w/o ZPVE           -0.053875115708 Eh   ::
         :: G(RRHO) contrib.            0.334771006749 Eh   ::
         :::::::::::::::::::::::::::::::::::::::::::::::::::::

           -------------------------------------------------
          | TOTAL ENERGY              -84.911806560494 Eh   |
          | TOTAL ENTHALPY            -84.496245065709 Eh   |
          | TOTAL FREE ENERGY         -84.577035553744 Eh   |
          | GRADIENT NORM               0.000116014383 Eh/α |
           -------------------------------------------------

 * finished run on 2025/07/16 at 22:31:08.972
