   * xtb version 6.7.1 (edcfbbe) compiled by 'albert@albert-system' on 2024-07-22

   ID    Z sym.   atoms
    1    6 C      1-5, 7-26, 28-48
    2    7 N      6, 27
    3    1 H      49-94

          program call               : xtb data2507/toluene/XT-T/XT-T_toluene_S0_crest.xyz --gfn 2 --gbsa toluene --ohess vtight --parallel 40 --molden --ceasefiles --namespace data2507/toluene/XT-T/XT-T_toluene_S0_finalOpt
      * Solvation model:               GBSA
        Solvent                        toluene
        Solvent mass                       9.2140E+01 g/mol
          :  Hamiltonian                  GFN2-xTB          :
 * total energy  :  -127.8969931 Eh     change       -0.3992113E-08 Eh
 * total energy  :  -127.8970652 Eh     change       -0.7209825E-04 Eh
 * total energy  :  -127.8970969 Eh     change       -0.3162749E-04 Eh
 * total energy  :  -127.8971131 Eh     change       -0.1621619E-04 Eh
 * total energy  :  -127.8971301 Eh     change       -0.1697144E-04 Eh
 * total energy  :  -127.8971470 Eh     change       -0.1691827E-04 Eh
 * total energy  :  -127.8971651 Eh     change       -0.1808447E-04 Eh
 * total energy  :  -127.8971840 Eh     change       -0.1891776E-04 Eh
 * total energy  :  -127.8971978 Eh     change       -0.1386521E-04 Eh
 * total energy  :  -127.8972055 Eh     change       -0.7657809E-05 Eh
 * total energy  :  -127.8973743 Eh     change       -0.3636362E-05 Eh
 * total energy  :  -127.8973753 Eh     change       -0.9813343E-06 Eh
 * total energy  :  -127.8973769 Eh     change       -0.1668937E-05 Eh
 * total energy  :  -127.8973781 Eh     change       -0.1180174E-05 Eh
 * total energy  :  -127.8973788 Eh     change       -0.6908245E-06 Eh
 * total energy  :  -127.8973794 Eh     change       -0.6152815E-06 Eh
 * total energy  :  -127.8973797 Eh     change       -0.2614564E-06 Eh
 * total energy  :  -127.8973800 Eh     change       -0.2732846E-06 Eh
 * total energy  :  -127.8973800 Eh     change       -0.4436274E-08 Eh
   *** GEOMETRY OPTIMIZATION CONVERGED AFTER 94 ITERATIONS ***

 final structure:
================
94
 xtb: 6.7.1 (edcfbbe)
C           -1.36439535123480        5.37709607220246       -1.95627164501951
C           -1.65941772338499        4.00371164445960       -1.43264889260429
C           -2.49959294257482        3.82633073233736       -0.33799359884565
C           -2.79343306311350        2.56744967699466        0.14168858777299
C           -2.26562680878164        1.43395728816538       -0.47904876195909
N           -2.58079781836269        0.15518112448898        0.00093784149778
C           -3.93005227134744       -0.17845501344053        0.20981068868577
C           -4.98071309604753        0.59251736685761       -0.28771438242834
C           -6.29327889650135        0.24262184889877       -0.03581147642098
C           -6.61354884517049       -0.89031899867691        0.70089222656471
C           -8.03886060168062       -1.25248924005258        0.99262875794129
C           -5.56554247129150       -1.67454072931255        1.16828702961274
C           -4.25102611217096       -1.33147363662900        0.92750460218598
C           -1.71535840698635       -0.93607279864458       -0.32791606578571
C           -2.15851247823569       -1.74223730264266       -1.37713720356222
C           -1.46543703516560       -2.85964305748186       -1.78866830846428
C           -0.28416734953159       -3.17253379936364       -1.14597335949192
C            0.16986883260609       -2.37019093176784       -0.11690312795370
C           -0.51613970750456       -1.24639866475369        0.33965473878503
C            0.03350550536697       -0.46383716862849        1.53534829103755
C            0.57379802348249        0.89413244609240        1.05498116739831
C           -0.06770786541660        2.06847220239322        1.44671292309585
C            0.38723568248164        3.32975588328034        1.11235966445288
C            1.52353583643985        3.46979894487011        0.34089177161379
C            2.18683035051036        2.32950161483490       -0.05639016803675
C            1.74572241620059        1.05375941216306        0.29554635390263
N            2.61294159288706       -0.01182776602889       -0.10863554505348
C            2.34066073659364       -0.70232580162260       -1.29501107623318
C            1.52957391010888       -0.14837347960107       -2.28018619592155
C            1.24602801220791       -0.85196059792771       -3.43485051167901
C            1.77834440366557       -2.11454858764797       -3.65721411395953
C            1.46241919958064       -2.87826253352477       -4.90786501803490
C            2.60157864738211       -2.65818934023645       -2.67696077966835
C            2.87420705251887       -1.97435695698542       -1.51071857960384
C            3.93539422550368        0.09946103009975        0.35110177481519
C            5.03683089955238       -0.21176996964129       -0.44558914974872
C            6.32068843687654       -0.11365661272515        0.05567068219838
C            6.56055509920927        0.31123917379618        1.35568000192865
C            7.95564096674532        0.43514271513967        1.89122465487918
C            5.46297164545168        0.65373394123040        2.13698653012954
C            4.17597981400218        0.55399896927708        1.64984549549655
C           -1.08207245714981       -0.30335060742743        2.59351282109352
C           -1.46644097317928       -1.63410149521895        3.23752305979982
C           -0.29000575903998       -2.21503367024168        4.00716674876140
C            0.84748008920974       -2.44573141105120        3.02372689522099
C            1.20075391200570       -1.15455051849154        2.28552526025611
C           -1.43466942277975        1.60587504576091       -1.58039519153166
C           -1.13030439826595        2.87327617064021       -2.03923625165908
H           -2.17944253942597        5.71718759888078       -2.59706192213528
H           -0.44892791240178        5.37969855228312       -2.54311107638582
H           -1.26329587073775        6.08896608066412       -1.13964989743562
H           -2.92502510355462        4.69177327344226        0.15090507422427
H           -3.43918921747373        2.45232350009579        1.00062531873071
H           -4.77259130794653        1.46491036438801       -0.88944272950516
H           -7.08527071080872        0.86057612732351       -0.43613230543510
H           -8.32582974016500       -0.88146193869190        1.97779172510446
H           -8.17133535418620       -2.33259861831316        0.99052047290295
H           -8.70922525665548       -0.81259983899841        0.25764642105251
H           -5.78054810544533       -2.57199537939194        1.73140054877132
H           -3.45920428155838       -1.96771456187748        1.28773443060988
H           -3.08354514199504       -1.47071836120670       -1.86789905176573
H           -1.84176947229696       -3.46806704548794       -2.59738947914109
H            0.28914272699839       -4.03892706449584       -1.43873619003615
H            1.09826753697380       -2.64835807902226        0.34744570205294
H           -0.95555469927313        2.01516829744731        2.05072540381180
H           -0.15016287728285        4.19818759210867        1.46115230238458
H            1.89359390158907        4.44437550477762        0.06062849809477
H            3.09127706037492        2.40664458359333       -0.64506008475716
H            1.13712202851509        0.84640932214408       -2.13616765337044
H            0.60990938397146       -0.40237436444432       -4.18532898506401
H            1.25257508325166       -2.20105629557593       -5.73296483615642
H            2.28927729506948       -3.52860020800434       -5.18526120420543
H            0.58100663036828       -3.50154932848769       -4.75179941544203
H            3.03115131508358       -3.63911389656186       -2.82670189050615
H            3.50444086804611       -2.42379549876534       -0.75659112424868
H            4.89156003416555       -0.51994847388102       -1.47044340801342
H            7.15366041440720       -0.36332215178993       -0.58704557546931
H            7.99571063755539        0.13477567735386        2.93651045548619
H            8.29099006600520        1.47150724988913        1.82770601017185
H            8.64696437351349       -0.18037136515765        1.32027393089108
H            5.61776400042194        1.00414065430678        3.14797953490494
H            3.34473060847930        0.84110729991159        2.27507267773997
H           -0.72093872643418        0.35569138340528        3.38647908648992
H           -1.97109410303161        0.14055779121646        2.15151238669696
H           -2.31782424111158       -1.47353343308150        3.90326903641198
H           -1.76674656993023       -2.34945296597700        2.46915872740227
H            0.02293032089087       -1.51809229877191        4.78857182312771
H           -0.57298987930268       -3.15459319591876        4.48710266890936
H            1.73970881575631       -2.79757019578346        3.54847190473958
H            0.54521058966305       -3.22372925560963        2.32155171810532
H            1.54575996418857       -0.43441946870808        3.03327497478324
H            2.03566440367279       -1.34092112263799        1.61506513427286
H           -1.04278709724646        0.73373020877159       -2.08082127439552
H           -0.48094603066615        2.98309860142025       -2.89722494258524

          :  Hamiltonian                  GFN2-xTB          :
         :: gradient norm              0.000045047208 Eh/a0 ::
         :: HOMO-LUMO gap              3.061188338482 eV    ::
         :: SCC energy              -130.188619592891 Eh    ::
         :: -> dispersion             -0.145065415362 Eh    ::
         :: -> Gsolv                  -0.041062677847 Eh    ::
         :: repulsion energy           2.291239619727 Eh    ::

    * Orbital Energies and Occupations

         #    Occupation            Energy/Eh            Energy/eV
      -------------------------------------------------------------
         1        2.0000           -0.6568249             -17.8731
       ...           ...                  ...                  ...
       108        2.0000           -0.4031009             -10.9689
       109        2.0000           -0.4019417             -10.9374
       110        2.0000           -0.4006164             -10.9013
       111        2.0000           -0.3987127             -10.8495
       112        2.0000           -0.3970592             -10.8045
       113        2.0000           -0.3965178             -10.7898
       114        2.0000           -0.3963233             -10.7845
       115        2.0000           -0.3940903             -10.7237
       116        2.0000           -0.3911125             -10.6427
       117        2.0000           -0.3864651             -10.5163
       118        2.0000           -0.3860042             -10.5037
       119        2.0000           -0.3438792              -9.3574
       120        2.0000           -0.3418456              -9.3021 (HOMO)
       121                         -0.2293490              -6.2409 (LUMO)
       122                         -0.2261076              -6.1527
       123                         -0.2250133              -6.1229
       124                         -0.2207402              -6.0066
       125                         -0.2196872              -5.9780
       126                         -0.2178177              -5.9271
       127                         -0.2170563              -5.9064
       128                         -0.2159895              -5.8774
       129                         -0.2138885              -5.8202
       130                         -0.2125212              -5.7830
       131                         -0.1943783              -5.2893
       ...                                ...                  ...
       238                          0.6722788              18.2936
      -------------------------------------------------------------
                  HL-Gap            0.1124966 Eh            3.0612 eV

     #   Z          covCN         q      C6AA      α(0)
     1   6 C        3.757    -0.107    22.596     6.777
     2   6 C        2.965     0.007    27.862     8.658
     3   6 C        2.925    -0.042    29.037     8.837
     4   6 C        2.922    -0.049    29.211     8.863
     5   6 C        2.923     0.066    26.524     8.446
     6   7 N        2.750    -0.108    23.357     7.178
     7   6 C        2.926     0.063    26.579     8.455
     8   6 C        2.921    -0.056    29.389     8.890
     9   6 C        2.925    -0.043    29.060     8.840
    10   6 C        2.965     0.005    27.919     8.667
    11   6 C        3.757    -0.108    22.611     6.780
    12   6 C        2.925    -0.042    29.051     8.839
    13   6 C        2.924    -0.055    29.368     8.887
    14   6 C        2.929     0.062    26.612     8.460
    15   6 C        2.930    -0.044    29.095     8.846
    16   6 C        2.917    -0.035    28.861     8.810
    17   6 C        2.920    -0.036    28.894     8.815
    18   6 C        2.930    -0.040    28.983     8.829
    19   6 C        2.964     0.004    27.933     8.669
    20   6 C        3.902     0.018    20.217     6.391
    21   6 C        2.967    -0.002    28.070     8.690
    22   6 C        2.930    -0.041    29.031     8.836
    23   6 C        2.921    -0.034    28.853     8.809
    24   6 C        2.917    -0.034    28.848     8.808
    25   6 C        2.931    -0.043    29.073     8.843
    26   6 C        2.932     0.062    26.621     8.462
    27   7 N        2.751    -0.107    23.345     7.176
    28   6 C        2.920     0.066    26.524     8.445
    29   6 C        2.922    -0.056    29.388     8.890
    30   6 C        2.925    -0.041    29.029     8.836
    31   6 C        2.965     0.006    27.881     8.661
    32   6 C        3.757    -0.107    22.594     6.777
    33   6 C        2.925    -0.042    29.034     8.836
    34   6 C        2.922    -0.049    29.228     8.866
    35   6 C        2.928     0.063    26.584     8.456
    36   6 C        2.921    -0.056    29.390     8.890
    37   6 C        2.925    -0.043    29.058     8.840
    38   6 C        2.964     0.005    27.918     8.667
    39   6 C        3.757    -0.108    22.613     6.780
    40   6 C        2.925    -0.042    29.048     8.839
    41   6 C        2.923    -0.055    29.357     8.885
    42   6 C        3.813    -0.062    21.680     6.627
    43   6 C        3.807    -0.050    21.461     6.595
    44   6 C        3.806    -0.055    21.562     6.610
    45   6 C        3.806    -0.055    21.556     6.609
    46   6 C        3.814    -0.059    21.627     6.619
    47   6 C        2.922    -0.055    29.362     8.886
    48   6 C        2.925    -0.041    29.020     8.834
    49   1 H        0.924     0.047     2.359     2.402
    50   1 H        0.925     0.041     2.435     2.440
    51   1 H        0.925     0.045     2.389     2.417
    52   1 H        0.926     0.032     2.559     2.502
    53   1 H        0.926     0.031     2.573     2.508
    54   1 H        0.926     0.025     2.659     2.550
    55   1 H        0.925     0.027     2.631     2.537
    56   1 H        0.924     0.046     2.369     2.407
    57   1 H        0.925     0.043     2.414     2.430
    58   1 H        0.925     0.041     2.435     2.440
    59   1 H        0.926     0.029     2.599     2.521
    60   1 H        0.926     0.030     2.583     2.513
    61   1 H        0.925     0.027     2.631     2.536
    62   1 H        0.926     0.030     2.586     2.515
    63   1 H        0.926     0.032     2.552     2.498
    64   1 H        0.926     0.049     2.328     2.386
    65   1 H        0.926     0.046     2.364     2.405
    66   1 H        0.926     0.035     2.521     2.483
    67   1 H        0.926     0.034     2.530     2.487
    68   1 H        0.925     0.029     2.605     2.524
    69   1 H        0.926     0.026     2.638     2.540
    70   1 H        0.925     0.024     2.668     2.554
    71   1 H        0.925     0.041     2.433     2.439
    72   1 H        0.925     0.043     2.405     2.425
    73   1 H        0.924     0.047     2.363     2.404
    74   1 H        0.925     0.031     2.576     2.510
    75   1 H        0.926     0.031     2.579     2.511
    76   1 H        0.926     0.026     2.643     2.542
    77   1 H        0.925     0.027     2.624     2.533
    78   1 H        0.925     0.043     2.405     2.425
    79   1 H        0.924     0.045     2.377     2.411
    80   1 H        0.925     0.041     2.431     2.438
    81   1 H        0.926     0.029     2.598     2.520
    82   1 H        0.926     0.027     2.628     2.535
    83   1 H        0.924     0.035     2.510     2.478
    84   1 H        0.925     0.042     2.429     2.437
    85   1 H        0.924     0.027     2.622     2.532
    86   1 H        0.924     0.027     2.633     2.538
    87   1 H        0.924     0.030     2.580     2.512
    88   1 H        0.924     0.026     2.648     2.545
    89   1 H        0.924     0.028     2.617     2.530
    90   1 H        0.924     0.034     2.533     2.489
    91   1 H        0.924     0.031     2.571     2.508
    92   1 H        0.925     0.042     2.428     2.436
    93   1 H        0.926     0.026     2.643     2.542
    94   1 H        0.925     0.024     2.668     2.554

molecular dipole:
                 x           y           z       tot (Debye)
 q only:        0.007      -0.015       0.313
   full:       -0.013       0.096       0.034       0.261

 projected vibrational frequencies (cm⁻¹)
eigval :       -0.00    -0.00    -0.00     0.00     0.00     0.00
eigval :       14.93    21.61    25.82    29.78    35.58    41.59
eigval :       44.20    45.82    49.07    52.78    56.75    59.97
eigval :       71.22    74.09    84.43    87.78    91.88    93.92
eigval :       97.57   121.07   123.44   132.67   139.64   145.45
eigval :      157.32   165.41   179.18   186.54   195.43   229.16
eigval :      236.03   246.96   260.52   261.62   271.72   286.61
eigval :      291.40   308.57   313.63   326.62   327.93   335.63
eigval :      343.70   353.03   360.95   370.67   373.61   378.55
eigval :      384.72   391.85   394.15   398.65   408.03   416.98
eigval :      445.22   448.66   456.89   459.63   472.62   479.95
eigval :      482.59   489.78   510.91   532.06   537.20   547.25
eigval :      555.07   558.17   565.17   574.92   580.75   609.73
eigval :      611.89   613.12   613.70   614.27   643.87   659.49
eigval :      662.01   663.16   666.68   675.38   702.89   706.59
eigval :      722.56   774.81   781.05   792.59   795.90   800.74
eigval :      803.63   805.85   811.32   821.04   822.48   825.62
eigval :      842.45   863.74   866.80   872.27   881.63   882.83
eigval :      888.83   896.32   906.28   908.52   909.58   911.07
eigval :      912.09   916.74   921.28   922.64   923.61   925.45
eigval :      927.53   930.96   932.23   934.25   936.30   939.64
eigval :      944.62   952.78   959.97   975.25  1004.83  1005.72
eigval :     1007.43  1009.22  1012.09  1015.89  1018.23  1027.84
eigval :     1030.49  1031.50  1031.74  1032.35  1034.36  1078.23
eigval :     1088.34  1104.99  1112.76  1116.76  1123.68  1129.92
eigval :     1142.74  1147.12  1149.99  1152.09  1152.21  1158.64
eigval :     1177.44  1179.69  1184.12  1191.16  1197.48  1198.96
eigval :     1204.45  1205.25  1210.79  1211.34  1215.39  1232.84
eigval :     1233.61  1242.23  1243.61  1254.99  1260.63  1270.33
eigval :     1271.94  1277.41  1277.64  1278.55  1281.56  1283.53
eigval :     1292.49  1293.26  1301.81  1302.68  1316.75  1320.68
eigval :     1324.30  1324.60  1331.84  1333.91  1334.05  1338.34
eigval :     1351.18  1358.81  1366.13  1400.68  1402.13  1402.48
eigval :     1403.84  1411.04  1411.28  1415.15  1416.57  1423.06
eigval :     1423.76  1467.60  1469.12  1479.23  1479.67  1479.99
eigval :     1481.92  1482.09  1482.34  1483.90  1484.25  1484.40
eigval :     1485.95  1492.48  1493.15  1493.66  1497.24  1498.24
eigval :     1501.76  1516.71  1567.10  1567.66  1570.54  1570.88
eigval :     1575.61  1576.29  1592.53  1596.05  1608.59  1609.24
eigval :     1612.50  1613.09  2952.23  2957.32  2959.81  2961.95
eigval :     2966.72  2977.36  2979.46  2986.58  2986.60  2987.41
eigval :     2990.52  2994.64  3025.30  3026.53  3028.49  3030.29
eigval :     3031.45  3033.27  3034.00  3035.76  3037.36  3040.01
eigval :     3060.26  3060.96  3062.82  3062.95  3064.44  3065.08
eigval :     3065.48  3066.34  3068.35  3069.61  3078.71  3079.52
eigval :     3079.66  3082.20  3085.94  3086.38  3092.14  3094.41
eigval :     3098.15  3100.16  3102.14  3116.73  3145.06  3150.57

   temp. (K)  partition function   enthalpy   heat capacity  entropy
                                   cal/mol     cal/K/mol   cal/K/mol   J/K/mol
 298.15  VIB  0.338E+20            25723.000    159.693    161.174
         ROT  0.534E+08              888.752      2.981     38.339
         INT  0.181E+28            26611.752    162.674    199.513
         TR   0.152E+29             1481.254      4.968     45.169
         TOT                       28093.0061   167.6420   244.6818  1023.7487

       T/K    H(0)-H(T)+PV         H(T)/Eh          T*S/Eh         G(T)/Eh
   ------------------------------------------------------------------------
    298.15    0.447691E-01    0.824037E+00    0.116256E+00    0.707780E+00
   ------------------------------------------------------------------------

         :::::::::::::::::::::::::::::::::::::::::::::::::::::
         ::                  THERMODYNAMIC                  ::
         :::::::::::::::::::::::::::::::::::::::::::::::::::::
         :: total free energy        -127.189599543676 Eh   ::
         ::.................................................::
         :: total energy             -127.897379979418 Eh   ::
         :: zero point energy           0.779267602730 Eh   ::
         :: G(RRHO) w/o ZPVE           -0.071487166988 Eh   ::
         :: G(RRHO) contrib.            0.707780435742 Eh   ::
         :::::::::::::::::::::::::::::::::::::::::::::::::::::

           -------------------------------------------------
          | TOTAL ENERGY             -127.897379979418 Eh   |
          | TOTAL ENTHALPY           -127.073343321854 Eh   |
          | TOTAL FREE ENERGY        -127.189599543676 Eh   |
          | GRADIENT NORM               0.000045042332 Eh/α |
          | HOMO-LUMO GAP               3.061188330184 eV   |
           -------------------------------------------------

 * finished run on 2025/07/19 at 12:53:27.935
