   * xtb version 6.7.1 (edcfbbe) compiled by 'albert@albert-system' on 2024-07-22

   ID    Z sym.   atoms
    1    6 C      1-5, 7-26, 28-48
    2    7 N      6, 27
    3    1 H      49-94

          program call               : xtb data2507/toluene/XT-T/XT-T_toluene_S0_finalOpt.xtbopt.xyz --gfn 2 --uhf 2 --gbsa toluene --ohess vtight --parallel 40 --molden --ceasefiles --namespace data2507/toluene/XT-T/XT-T_toluene_T1_preOpt
      * Solvation model:               GBSA
        Solvent                        toluene
        Solvent mass                       9.2140E+01 g/mol
          :  Hamiltonian                  GFN2-xTB          :
 * total energy  :  -127.7788229 Eh     change       -0.9488588E-09 Eh
 * total energy  :  -127.7809705 Eh     change       -0.2147641E-02 Eh
 * total energy  :  -127.7816824 Eh     change       -0.7118962E-03 Eh
 * total energy  :  -127.7817717 Eh     change       -0.8921455E-04 Eh
 * total energy  :  -127.7818308 Eh     change       -0.5910017E-04 Eh
 * total energy  :  -127.7818539 Eh     change       -0.2310154E-04 Eh
 * total energy  :  -127.7818772 Eh     change       -0.2338309E-04 Eh
 * total energy  :  -127.7818990 Eh     change       -0.2177692E-04 Eh
 * total energy  :  -127.7819094 Eh     change       -0.1037242E-04 Eh
 * total energy  :  -127.7819283 Eh     change       -0.1887963E-04 Eh
 * total energy  :  -127.7822108 Eh     change       -0.4387875E-06 Eh
 * total energy  :  -127.7822112 Eh     change       -0.4458557E-06 Eh
 * total energy  :  -127.7822117 Eh     change       -0.4714059E-06 Eh
 * total energy  :  -127.7822117 Eh     change       -0.2305987E-07 Eh
 * total energy  :  -127.7822119 Eh     change       -0.2450049E-06 Eh
 * total energy  :  -127.7822122 Eh     change       -0.2550498E-06 Eh
 * total energy  :  -127.7822124 Eh     change       -0.1516543E-06 Eh
 * total energy  :  -127.7822125 Eh     change       -0.1273194E-06 Eh
 * total energy  :  -127.7822125 Eh     change       -0.2384226E-08 Eh
   *** GEOMETRY OPTIMIZATION CONVERGED AFTER 82 ITERATIONS ***

 final structure:
================
94
 xtb: 6.7.1 (edcfbbe)
C           -1.43469357868141        5.36354648816253       -2.05330923137127
C           -1.71105944954418        3.99925622247089       -1.50142026601986
C           -2.51892600567387        3.83357071857482       -0.37829285913363
C           -2.79913259423533        2.58263106996689        0.12474705748353
C           -2.28447901542553        1.43789682244940       -0.49843665907815
N           -2.61066604460602        0.16425154344913       -0.03049600741556
C           -3.94141030507382       -0.14233253372331        0.25907563872446
C           -5.00892080251705        0.65008623175400       -0.19572573447179
C           -6.31058416757097        0.31937551543813        0.11679394042465
C           -6.61494730211822       -0.80409240845927        0.87735063350205
C           -8.02631216514639       -1.16169474047612        1.22613805781274
C           -5.55313368328326       -1.60920431837264        1.30225107833904
C           -4.25045569618936       -1.29234090313272        0.99696814204514
C           -1.76125586549488       -0.93708097228926       -0.35446441770061
C           -2.23871694121510       -1.75357088699899       -1.38249404597889
C           -1.55428859692020       -2.86639293408042       -1.81551858171300
C           -0.34182801790070       -3.16985989205841       -1.20880560520251
C            0.13591037172306       -2.36833699062814       -0.19231809010239
C           -0.53840239299932       -1.24649859418824        0.29007241270508
C            0.02744351894259       -0.47519026855544        1.48190868832621
C            0.53704114374699        0.89575793921101        1.01635295415902
C           -0.10890447470202        2.05874992886871        1.43421776906577
C            0.32187833407020        3.33149600555750        1.12033526839435
C            1.46002718862267        3.50586826258928        0.33550013483834
C            2.14159301348367        2.38527419164549       -0.07445452558959
C            1.71525847410138        1.09345737407517        0.24591721879943
N            2.61342496042164        0.06927883770158       -0.17161877233765
C            2.33816393486919       -0.71853693707138       -1.27488200551603
C            1.48078387864777       -0.25632650672757       -2.28399070301972
C            1.27573001930806       -0.99496637611105       -3.42073616947735
C            1.92532738344248       -2.22732582845931       -3.61473086136287
C            1.71946060661136       -2.99844776778002       -4.87947902853597
C            2.76617776182399       -2.69133953179792       -2.60502451570900
C            2.97368178096235       -1.97071144086125       -1.45244151756759
C            3.90472234347722        0.16557366640058        0.32059709048600
C            5.03373719160308       -0.14646814210862       -0.48478729971387
C            6.30260783061874       -0.05523736258969        0.03365125556743
C            6.53185142315159        0.34999125653084        1.34796602392652
C            7.90994631369438        0.43715660893826        1.92027923607586
C            5.41215967349066        0.70161207587051        2.13288022438751
C            4.14084717072904        0.62176304770720        1.63369698003109
C           -1.06716111355040       -0.34179044948016        2.56656083880122
C           -1.42675458494561       -1.68449681726129        3.19909327726225
C           -0.23043767054701       -2.26257632190349        3.93953849976168
C            0.88786977100418       -2.47236421837446        2.92997408036063
C            1.21380905534338       -1.17003876638735        2.19908731489175
C           -1.47879699246814        1.59948309921151       -1.62685064187839
C           -1.19307418628503        2.85799412804571       -2.10948641709683
H           -2.25224047128884        5.67841145303434       -2.70439324547880
H           -0.51754137241796        5.36648802305075       -2.63766588893946
H           -1.34670468536112        6.09462324207227       -1.25227817343629
H           -2.92939251847534        4.70516287968249        0.11217922443435
H           -3.41342827511137        2.47702689248161        1.00736229433515
H           -4.81228953047277        1.50804419188777       -0.82063559640132
H           -7.11162635810876        0.94424483085910       -0.25362568355224
H           -8.17407893811475       -1.11398485747568        2.30566370723607
H           -8.25235791213612       -2.17922786444337        0.90764270686602
H           -8.72939314440716       -0.48214129708607        0.75075413789198
H           -5.76123284043857       -2.49844650944264        1.88006427736270
H           -3.45102031877627       -1.93677797477502        1.32357264605625
H           -3.17849498658176       -1.48342001612129       -1.84573713619218
H           -1.94952037463144       -3.47924968901099       -2.61122650312928
H            0.22756280645760       -4.03107536974157       -1.52330760977187
H            1.07714072839963       -2.64915641100637        0.24519177853903
H           -0.98730675924103        1.98514165840298        2.05093613004921
H           -0.22183140969868        4.18659351021146        1.49083117111519
H            1.80767210961711        4.49143260838479        0.06759036534356
H            3.04291072011582        2.48385500260344       -0.66515849174688
H            1.02451917928332        0.71340909268446       -2.15837201640334
H            0.62181431482732       -0.61877737783656       -4.19477583723336
H            2.21691452999667       -2.49869928615444       -5.71315021358529
H            2.12456133350447       -4.00393270439945       -4.79386641191220
H            0.65943103894118       -3.06367827701887       -5.12219309055847
H            3.26079812155269       -3.64547047687552       -2.72601795961819
H            3.60319206813091       -2.36176389335279       -0.66659914491598
H            4.88812178492601       -0.40758197970238       -1.52161376795392
H            7.14654732812145       -0.28703619428095       -0.60202360165960
H            8.02388769132622       -0.26548498037552        2.74769990268930
H            8.10064200229045        1.43675372317336        2.31265815630507
H            8.66033534572958        0.20808641395794        1.16740060339439
H            5.56957447920317        1.04044175213788        3.14668428927973
H            3.29891032564245        0.90265513243065        2.24781428108994
H           -0.69737259721590        0.31105551026448        3.36077454153187
H           -1.96862987990516        0.10173660722488        2.14850525856141
H           -2.26758348143445       -1.54216579846366        3.88225564015854
H           -1.73133829802577       -2.39367297994056        2.42646711395080
H            0.09229014421275       -1.57095510443477        4.72174059356537
H           -0.49505601422377       -3.20982296376127        4.41484575884049
H            1.79424737224017       -2.82209812624100        3.43168087441093
H            0.57763000198361       -3.24485685322329        2.22511649721351
H            1.57338627334310       -0.45689135779147        2.94676933019866
H            2.03444299606282       -1.34768662080871        1.50810512540317
H           -1.11206395314516        0.71851118919221       -2.13070925432640
H           -0.57152166605930        2.96027668331326       -2.98832381106970

          :  Hamiltonian                  GFN2-xTB          :
         :: gradient norm              0.000155447584 Eh/a0 ::
         :: HOMO-LUMO gap              0.056719802206 eV    ::
         :: SCC energy              -130.051332741112 Eh    ::
         :: -> dispersion             -0.144732769499 Eh    ::
         :: -> Gsolv                  -0.041212479002 Eh    ::
         :: repulsion energy           2.269120262107 Eh    ::

    * Orbital Energies and Occupations

         #    Occupation            Energy/Eh            Energy/eV
      -------------------------------------------------------------
         1        2.0000           -0.6633180             -18.0498
       ...           ...                  ...                  ...
       109        2.0000           -0.4019584             -10.9378
       110        2.0000           -0.4007731             -10.9056
       111        2.0000           -0.3998028             -10.8792
       112        2.0000           -0.3981890             -10.8353
       113        2.0000           -0.3955962             -10.7647
       114        2.0000           -0.3946139             -10.7380
       115        2.0000           -0.3901930             -10.6177
       116        2.0000           -0.3886905             -10.5768
       117        2.0000           -0.3841954             -10.4545
       118        2.0000           -0.3819672             -10.3939
       119        1.7954           -0.3461384              -9.4189
       120        1.2046           -0.3435586              -9.3487
       121        0.7343           -0.2280511              -6.2056 (HOMO)
       122        0.2355           -0.2259671              -6.1489 (LUMO)
       123        0.0185           -0.2233146              -6.0767
       124        0.0092           -0.2226361              -6.0582
       125        0.0025           -0.2213893              -6.0243
       126        0.0000           -0.2168218              -5.9000
       127        0.0000           -0.2154413              -5.8625
       128        0.0000           -0.2140193              -5.8238
       129        0.0000           -0.2120822              -5.7710
       130                         -0.2094170              -5.6985
       131                         -0.1965705              -5.3490
       132                         -0.1940709              -5.2809
       ...                                ...                  ...
       238                          0.6677382              18.1701
      -------------------------------------------------------------
                  HL-Gap            0.0020840 Eh            0.0567 eV

     #   Z          covCN         q      C6AA      α(0)
     1   6 C        3.757    -0.107    22.601     6.778
     2   6 C        2.965     0.009    27.816     8.651
     3   6 C        2.923    -0.040    28.995     8.830
     4   6 C        2.919    -0.045    29.121     8.849
     5   6 C        2.923     0.061    26.630     8.463
     6   7 N        2.751    -0.066    22.516     7.047
     7   6 C        2.927     0.056    26.735     8.479
     8   6 C        2.918    -0.055    29.377     8.888
     9   6 C        2.922    -0.041    29.018     8.834
    10   6 C        2.964     0.005    27.903     8.664
    11   6 C        3.757    -0.108    22.615     6.780
    12   6 C        2.922    -0.044    29.098     8.846
    13   6 C        2.920    -0.050    29.247     8.869
    14   6 C        2.928     0.048    26.925     8.510
    15   6 C        2.928    -0.043    29.069     8.842
    16   6 C        2.915    -0.043    29.076     8.842
    17   6 C        2.918    -0.041    29.029     8.835
    18   6 C        2.928    -0.041    29.025     8.835
    19   6 C        2.962    -0.005    28.142     8.701
    20   6 C        3.902     0.018    20.211     6.390
    21   6 C        2.963    -0.014    28.359     8.735
    22   6 C        2.926    -0.043    29.060     8.841
    23   6 C        2.918    -0.043    29.077     8.843
    24   6 C        2.914    -0.046    29.131     8.851
    25   6 C        2.928    -0.040    29.003     8.832
    26   6 C        2.932     0.039    27.116     8.540
    27   7 N        2.753    -0.030    21.824     6.938
    28   6 C        2.922     0.051    26.859     8.499
    29   6 C        2.916    -0.046    29.146     8.853
    30   6 C        2.920    -0.044    29.105     8.847
    31   6 C        2.964     0.005    27.910     8.665
    32   6 C        3.757    -0.106    22.578     6.775
    33   6 C        2.918    -0.039    28.972     8.827
    34   6 C        2.915    -0.048    29.201     8.861
    35   6 C        2.932     0.042    27.049     8.529
    36   6 C        2.914    -0.056    29.395     8.890
    37   6 C        2.917    -0.041    29.008     8.832
    38   6 C        2.963    -0.000    28.032     8.684
    39   6 C        3.756    -0.106    22.582     6.775
    40   6 C        2.918    -0.048    29.188     8.859
    41   6 C        2.914    -0.046    29.135     8.851
    42   6 C        3.813    -0.059    21.623     6.619
    43   6 C        3.808    -0.050    21.464     6.595
    44   6 C        3.806    -0.055    21.552     6.609
    45   6 C        3.807    -0.054    21.547     6.608
    46   6 C        3.814    -0.056    21.564     6.609
    47   6 C        2.920    -0.050    29.244     8.868
    48   6 C        2.923    -0.040    29.004     8.832
    49   1 H        0.924     0.049     2.330     2.387
    50   1 H        0.925     0.043     2.410     2.428
    51   1 H        0.925     0.046     2.375     2.410
    52   1 H        0.926     0.034     2.535     2.490
    53   1 H        0.926     0.034     2.536     2.491
    54   1 H        0.926     0.028     2.616     2.529
    55   1 H        0.925     0.029     2.604     2.524
    56   1 H        0.924     0.048     2.351     2.398
    57   1 H        0.925     0.046     2.370     2.407
    58   1 H        0.925     0.041     2.431     2.438
    59   1 H        0.926     0.031     2.575     2.509
    60   1 H        0.926     0.034     2.524     2.485
    61   1 H        0.925     0.023     2.689     2.564
    62   1 H        0.926     0.024     2.669     2.555
    63   1 H        0.926     0.025     2.662     2.551
    64   1 H        0.926     0.042     2.428     2.437
    65   1 H        0.926     0.038     2.474     2.460
    66   1 H        0.926     0.025     2.665     2.553
    67   1 H        0.926     0.026     2.650     2.546
    68   1 H        0.925     0.024     2.674     2.557
    69   1 H        0.926     0.032     2.556     2.500
    70   1 H        0.926     0.027     2.627     2.535
    71   1 H        0.924     0.048     2.346     2.395
    72   1 H        0.925     0.042     2.418     2.432
    73   1 H        0.925     0.045     2.379     2.412
    74   1 H        0.925     0.031     2.576     2.510
    75   1 H        0.926     0.031     2.567     2.505
    76   1 H        0.926     0.028     2.620     2.531
    77   1 H        0.925     0.027     2.629     2.535
    78   1 H        0.924     0.047     2.359     2.402
    79   1 H        0.924     0.045     2.381     2.413
    80   1 H        0.925     0.040     2.445     2.445
    81   1 H        0.926     0.028     2.616     2.529
    82   1 H        0.926     0.029     2.597     2.520
    83   1 H        0.924     0.034     2.527     2.486
    84   1 H        0.925     0.037     2.487     2.466
    85   1 H        0.924     0.027     2.627     2.535
    86   1 H        0.924     0.028     2.620     2.531
    87   1 H        0.924     0.030     2.586     2.515
    88   1 H        0.924     0.026     2.651     2.546
    89   1 H        0.924     0.027     2.633     2.537
    90   1 H        0.924     0.034     2.532     2.489
    91   1 H        0.924     0.030     2.586     2.515
    92   1 H        0.925     0.035     2.519     2.482
    93   1 H        0.926     0.031     2.566     2.505
    94   1 H        0.925     0.028     2.608     2.526

molecular dipole:
                 x           y           z       tot (Debye)
 q only:       -0.215      -0.019       0.098
   full:       -0.216       0.039      -0.080       0.595

 projected vibrational frequencies (cm⁻¹)
eigval :       -0.00    -0.00    -0.00     0.00     0.00     0.00
eigval :       12.44    20.68    24.32    27.73    35.02    38.53
eigval :       40.80    46.85    48.83    53.66    62.82    71.44
eigval :       75.98    79.85    83.00    87.12    90.26    96.54
eigval :      104.19   117.53   121.38   131.36   136.20   142.82
eigval :      153.25   162.03   173.20   182.08   189.24   224.72
eigval :      231.88   245.67   246.69   256.95   266.53   281.35
eigval :      281.83   301.42   307.77   311.21   314.79   318.57
eigval :      335.27   345.34   355.51   364.84   367.46   372.60
eigval :      379.96   380.63   388.57   395.93   400.65   405.39
eigval :      422.67   434.02   437.55   443.79   446.22   454.94
eigval :      463.97   470.30   483.42   513.41   530.18   532.51
eigval :      540.96   547.88   554.47   565.59   574.15   599.03
eigval :      603.12   603.31   606.88   609.11   622.75   627.69
eigval :      637.86   644.82   649.12   660.06   674.70   684.77
eigval :      702.90   712.73   747.81   761.50   765.23   775.10
eigval :      783.40   785.72   791.50   800.44   810.76   814.68
eigval :      820.76   834.44   838.44   843.99   852.72   863.59
eigval :      866.37   872.90   882.77   887.58   894.86   895.88
eigval :      898.72   899.52   901.04   901.51   903.90   904.18
eigval :      910.34   912.38   913.15   920.00   925.05   927.74
eigval :      933.96   947.00   959.13   973.02   979.41   985.62
eigval :      992.25   995.90   997.28   999.90  1001.44  1004.69
eigval :     1016.31  1021.44  1022.77  1027.43  1029.81  1033.86
eigval :     1066.19  1081.73  1091.92  1102.77  1104.30  1111.82
eigval :     1124.50  1129.81  1136.44  1141.91  1144.00  1145.99
eigval :     1147.40  1154.32  1161.92  1163.58  1168.87  1174.05
eigval :     1183.83  1187.89  1193.82  1197.45  1202.15  1205.65
eigval :     1210.61  1220.37  1227.92  1233.85  1238.21  1241.27
eigval :     1253.39  1255.06  1257.09  1261.23  1266.36  1271.44
eigval :     1279.30  1281.18  1292.60  1300.59  1302.81  1305.38
eigval :     1307.88  1318.32  1329.94  1332.62  1336.86  1338.00
eigval :     1339.05  1339.76  1345.62  1350.07  1357.21  1358.77
eigval :     1363.77  1371.79  1381.69  1395.52  1395.92  1399.80
eigval :     1402.31  1402.85  1408.25  1409.66  1426.90  1431.95
eigval :     1434.18  1435.91  1439.94  1446.85  1449.59  1460.97
eigval :     1461.53  1464.71  1470.25  1472.75  1474.00  1474.91
eigval :     1478.02  1478.94  1481.23  1484.23  1484.68  1485.75
eigval :     1488.50  1494.16  1494.97  1495.45  1503.22  1516.18
eigval :     1533.76  1553.66  2950.67  2955.59  2958.06  2959.70
eigval :     2965.26  2971.84  2973.83  2975.59  2977.99  2980.76
eigval :     2988.40  2993.98  2995.01  3006.76  3009.05  3022.09
eigval :     3027.49  3030.07  3036.08  3037.13  3037.93  3040.01
eigval :     3057.63  3059.12  3060.23  3061.60  3062.70  3063.82
eigval :     3066.79  3068.47  3072.65  3073.41  3079.04  3079.16
eigval :     3079.27  3082.46  3089.01  3089.65  3091.07  3093.39
eigval :     3094.33  3099.94  3100.67  3119.99  3135.20  3141.26

   temp. (K)  partition function   enthalpy   heat capacity  entropy
                                   cal/mol     cal/K/mol   cal/K/mol   J/K/mol
 298.15  VIB  0.734E+20            26285.888    163.866    164.289
         ROT  0.536E+08              888.752      2.981     38.350
         INT  0.394E+28            27174.640    166.846    202.639
         TR   0.152E+29             1481.254      4.968     45.169
         TOT                       28655.8942   171.8146   247.8077  1036.8273

       T/K    H(0)-H(T)+PV         H(T)/Eh          T*S/Eh         G(T)/Eh
   ------------------------------------------------------------------------
    298.15    0.456661E-01    0.813893E+00    0.117741E+00    0.696152E+00
   ------------------------------------------------------------------------

         :::::::::::::::::::::::::::::::::::::::::::::::::::::
         ::                  THERMODYNAMIC                  ::
         :::::::::::::::::::::::::::::::::::::::::::::::::::::
         :: total free energy        -127.086060928644 Eh   ::
         ::.................................................::
         :: total energy             -127.782212481322 Eh   ::
         :: zero point energy           0.768226904397 Eh   ::
         :: G(RRHO) w/o ZPVE           -0.072075351719 Eh   ::
         :: G(RRHO) contrib.            0.696151552678 Eh   ::
         :::::::::::::::::::::::::::::::::::::::::::::::::::::

           -------------------------------------------------
          | TOTAL ENERGY             -127.782212481322 Eh   |
          | TOTAL ENTHALPY           -126.968319502735 Eh   |
          | TOTAL FREE ENERGY        -127.086060928644 Eh   |
          | GRADIENT NORM               0.000155975644 Eh/α |
          | HOMO-LUMO GAP               0.056708919542 eV   |
           -------------------------------------------------

 * finished run on 2025/07/19 at 12:53:44.027
