   * xtb version 6.7.1 (edcfbbe) compiled by 'albert@albert-system' on 2024-07-22

   ID    Z sym.   atoms
    1    6 C      1-5, 7-26, 28-48
    2    7 N      6, 27
    3    1 H      49-94

          program call               : xtb data2507/toluene/XT-T/XT-T_toluene_T1_crest.xyz --gfn 2 --uhf 2 --gbsa toluene --ohess vtight --parallel 40 --molden --ceasefiles --namespace data2507/toluene/XT-T/XT-T_toluene_T1_finalOpt
      * Solvation model:               GBSA
        Solvent                        toluene
        Solvent mass                       9.2140E+01 g/mol
          :  Hamiltonian                  GFN2-xTB          :
 * total energy  :  -127.7841496 Eh     change       -0.8405266E-08 Eh
 * total energy  :  -127.7842624 Eh     change       -0.1127440E-03 Eh
 * total energy  :  -127.7843074 Eh     change       -0.4508978E-04 Eh
 * total energy  :  -127.7843248 Eh     change       -0.1737363E-04 Eh
 * total energy  :  -127.7843390 Eh     change       -0.1419178E-04 Eh
 * total energy  :  -127.7843480 Eh     change       -0.9016654E-05 Eh
 * total energy  :  -127.7843560 Eh     change       -0.7968649E-05 Eh
 * total energy  :  -127.7843633 Eh     change       -0.7264147E-05 Eh
 * total energy  :  -127.7843693 Eh     change       -0.6078737E-05 Eh
 * total energy  :  -127.7843754 Eh     change       -0.6050652E-05 Eh
 * total energy  :  -127.7844000 Eh     change       -0.3873136E-05 Eh
 * total energy  :  -127.7844021 Eh     change       -0.2150201E-05 Eh
 * total energy  :  -127.7844035 Eh     change       -0.1435712E-05 Eh
 * total energy  :  -127.7844047 Eh     change       -0.1157116E-05 Eh
 * total energy  :  -127.7844056 Eh     change       -0.8946998E-06 Eh
 * total energy  :  -127.7844062 Eh     change       -0.6171674E-06 Eh
 * total energy  :  -127.7844065 Eh     change       -0.3203019E-06 Eh
 * total energy  :  -127.7844067 Eh     change       -0.1566948E-06 Eh
 * total energy  :  -127.7844067 Eh     change       -0.3196132E-07 Eh
   *** GEOMETRY OPTIMIZATION CONVERGED AFTER 22 ITERATIONS ***

 final structure:
================
94
 xtb: 6.7.1 (edcfbbe)
C           -2.39866576177838       -1.44028655091412       -5.81831349596020
C           -2.28036919648897       -1.30280386735854       -4.33117865379749
C           -1.97595430733024       -0.07826422864397       -3.74569945939449
C           -1.88780839599476        0.05812282641161       -2.37592829044788
C           -2.11024791568757       -1.03726822220188       -1.53635654330215
N           -1.99515520515279       -0.89232114344511       -0.14423884444872
C           -2.68409587510302        0.11882622581444        0.52032483357668
C           -3.65415710161962        0.90861845205538       -0.10450129127812
C           -4.29740218403258        1.91258620409201        0.59241452841600
C           -4.01559909980954        2.16439177626843        1.92892756104120
C           -4.70478918513219        3.25874404747033        2.68489241784946
C           -3.07395307952639        1.35349562883276        2.55787458450147
C           -2.42288727825090        0.34926761351963        1.87616096889101
C           -1.69407308139470       -2.06341961215723        0.62704260598102
C           -2.81305405918823       -2.76448046592361        1.06723772725831
C           -2.71388931753449       -3.93671941866096        1.78915415536956
C           -1.44144017322014       -4.41226673785102        2.08376653314646
C           -0.33094868785596       -3.70542356475353        1.67929639545584
C           -0.38996766689163       -2.50928956820219        0.94630617955205
C            0.89742509217451       -1.71838624016847        0.68626441051344
C            0.93740926765731       -0.63845610683237        1.77404569837347
C            0.64141991298082       -1.04438543224489        3.06909811097718
C            0.46065769677733       -0.16759152785970        4.12699933959307
C            0.51259233933150        1.21462582182264        3.88721682429593
C            0.84323357940345        1.65655185147266        2.63781553368356
C            1.14445933663914        0.76358097735055        1.58364271651130
N            1.76750691090671        1.35336237358324        0.46561357587029
C            1.16146503935808        2.44206886726036       -0.13154111854386
C            1.90857768517924        3.49544045514926       -0.70716991852538
C            1.26535487921643        4.54631547366891       -1.31440699572146
C           -0.12895826055339        4.61718710950002       -1.37433091706421
C           -0.81831480709040        5.77393002552757       -2.02385488608236
C           -0.86762856405099        3.58981291041534       -0.76442726533141
C           -0.24265069073857        2.53127939681088       -0.15703245476539
C            3.06101415974467        0.98335976993276        0.14957351753873
C            3.55170338646177        1.07833186158471       -1.18284999771209
C            4.83041161688527        0.68038158100482       -1.47873804581645
C            5.68929560644307        0.17796094075033       -0.49615190692462
C            7.08492275044860       -0.25172625674564       -0.81386058746604
C            5.19829155190769        0.07812525203456        0.82220419191292
C            3.92088036453771        0.45598164274702        1.13756675680349
C            2.18435493254372       -2.56914113945963        0.83534953000573
C            2.28025077928702       -3.70061401403802       -0.18746129229531
C            2.18544895691231       -3.16261107251701       -1.61060766833596
C            0.91527860277747       -2.33174284136516       -1.75571555333898
C            0.94642869918847       -1.18451603038423       -0.74996378183657
C           -2.40146531208303       -2.26932849602699       -2.12013734288575
C           -2.48757323337950       -2.39225570565660       -3.49344178852898
H           -1.79797943228696       -0.68909404338669       -6.32593450316021
H           -3.43742269084074       -1.30573684176096       -6.12383369390416
H           -2.07967884671366       -2.42862255569835       -6.14212933137214
H           -1.79448963543332        0.78327262302622       -4.37268143636710
H           -1.62833597414560        1.01514902907448       -1.94726897834438
H           -3.92133632682321        0.72212457149718       -1.13375357323717
H           -5.04496745891954        2.50546695490286        0.08356605869585
H           -5.36904054908009        3.82338248953896        2.03534174595231
H           -3.97207733259130        3.94076235111650        3.11529299102479
H           -5.29088895143133        2.84258068195819        3.50435543700049
H           -2.84207830899003        1.51472095416329        3.60071558411507
H           -1.69480112746081       -0.26188331157288        2.38518629048366
H           -3.78875784267697       -2.36835021908861        0.81598713975927
H           -3.59865895159551       -4.46558989946318        2.10880488931256
H           -1.31865726587637       -5.33031336557752        2.64047968623930
H            0.62803660704795       -4.10583969654920        1.96348027149949
H            0.51019237167183       -2.09786828389753        3.26608087674049
H            0.24347273648139       -0.54550077368177        5.11415013427052
H            0.31707198998773        1.91563717605032        4.68494083623404
H            0.94828445912776        2.71515456151725        2.44242963584780
H            2.98502180529951        3.48680308172897       -0.62832568246931
H            1.85174177644259        5.34723462633875       -1.74279734511535
H           -0.19493669019554        6.21329756511553       -2.79970928867574
H           -1.76576345290592        5.46393725866400       -2.46024437657796
H           -1.03086149048887        6.54904898690785       -1.28439217464471
H           -1.94726161962546        3.63030259698110       -0.77954803325106
H           -0.81969261275524        1.74668461983587        0.30776528817943
H            2.89017714329248        1.42418259180006       -1.96291214770618
H            5.17966025784528        0.74583063950745       -2.50000256481927
H            7.30662989053391       -0.11077023717737       -1.86894415454920
H            7.22780123926077       -1.30444139857796       -0.56497901408617
H            7.80401888615092        0.32196405041436       -0.22709456063783
H            5.85007617753927       -0.30132358759571        1.59602395608643
H            3.56449453718243        0.39212156907549        2.15538726528647
H            3.02835867556827       -1.89146341282224        0.68307065539184
H            2.28233807597411       -2.96102655261854        1.84858764902953
H            3.22975910637553       -4.22420468230221       -0.04793724422127
H            1.47514090813311       -4.42086950147441       -0.03421076040237
H            3.05544764346788       -2.53736868666421       -1.82739969639080
H            2.18067968895825       -3.99138586296005       -2.32237763402151
H            0.84130034667848       -1.92610010639960       -2.76729983829766
H            0.04427469634958       -2.96674994555141       -1.58620373195385
H            1.89007307171724       -0.66767535252591       -0.90522192138454
H            0.14372407551682       -0.47784357243572       -0.93429539753143
H           -2.57196382735495       -3.13232674448857       -1.49346361474575
H           -2.72322536729428       -3.35649277510761       -3.92135984108272

          :  Hamiltonian                  GFN2-xTB          :
         :: gradient norm              0.000075281675 Eh/a0 ::
         :: HOMO-LUMO gap              0.035619164950 eV    ::
         :: SCC energy              -130.050104748426 Eh    ::
         :: -> dispersion             -0.141657991984 Eh    ::
         :: -> Gsolv                  -0.042466601909 Eh    ::
         :: repulsion energy           2.265698026598 Eh    ::

    * Orbital Energies and Occupations

         #    Occupation            Energy/Eh            Energy/eV
      -------------------------------------------------------------
         1        2.0000           -0.6655162             -18.1096
       ...           ...                  ...                  ...
       109        2.0000           -0.4015880             -10.9278
       110        2.0000           -0.4010087             -10.9120
       111        2.0000           -0.4003347             -10.8937
       112        2.0000           -0.3989273             -10.8554
       113        2.0000           -0.3950418             -10.7496
       114        2.0000           -0.3918362             -10.6624
       115        2.0000           -0.3907283             -10.6323
       116        2.0000           -0.3874586             -10.5433
       117        2.0000           -0.3849696             -10.4756
       118        2.0000           -0.3818767             -10.3914
       119        1.8577           -0.3470939              -9.4449
       120        1.1423           -0.3436809              -9.3520
       121        0.6617           -0.2300570              -6.2602 (HOMO)
       122        0.3302           -0.2287479              -6.2245 (LUMO)
       123        0.0077           -0.2248053              -6.1173
       124        0.0003           -0.2217497              -6.0341
       125        0.0000           -0.2196538              -5.9771
       126        0.0000           -0.2195064              -5.9731
       127        0.0000           -0.2166707              -5.8959
       128        0.0000           -0.2156249              -5.8675
       129        0.0000           -0.2146342              -5.8405
       130                         -0.2102213              -5.7204
       131                         -0.1978665              -5.3842
       132                         -0.1938659              -5.2754
       ...                                ...                  ...
       238                          0.6672384              18.1565
      -------------------------------------------------------------
                  HL-Gap            0.0013091 Eh            0.0356 eV

     #   Z          covCN         q      C6AA      α(0)
     1   6 C        3.757    -0.110    22.652     6.786
     2   6 C        2.965     0.012    27.744     8.640
     3   6 C        2.924    -0.041    29.015     8.833
     4   6 C        2.921    -0.048    29.204     8.862
     5   6 C        2.921     0.067    26.492     8.441
     6   7 N        2.751    -0.086    22.925     7.111
     7   6 C        2.926     0.067    26.499     8.442
     8   6 C        2.919    -0.055    29.365     8.886
     9   6 C        2.924    -0.041    29.008     8.832
    10   6 C        2.964     0.010    27.801     8.649
    11   6 C        3.757    -0.108    22.626     6.782
    12   6 C        2.924    -0.040    28.984     8.829
    13   6 C        2.922    -0.051    29.269     8.872
    14   6 C        2.930     0.051    26.864     8.500
    15   6 C        2.928    -0.043    29.077     8.843
    16   6 C        2.915    -0.050    29.229     8.865
    17   6 C        2.918    -0.042    29.052     8.839
    18   6 C        2.928    -0.043    29.077     8.843
    19   6 C        2.966    -0.008    28.216     8.713
    20   6 C        3.907     0.020    20.189     6.387
    21   6 C        2.968    -0.012    28.299     8.726
    22   6 C        2.924    -0.042    29.049     8.839
    23   6 C        2.915    -0.055    29.365     8.886
    24   6 C        2.913    -0.043    29.079     8.843
    25   6 C        2.922    -0.042    29.051     8.839
    26   6 C        2.930     0.026    27.424     8.588
    27   7 N        2.752    -0.009    21.430     6.875
    28   6 C        2.927     0.048    26.931     8.511
    29   6 C        2.914    -0.049    29.211     8.863
    30   6 C        2.919    -0.040    28.987     8.829
    31   6 C        2.963     0.008    27.832     8.653
    32   6 C        3.757    -0.108    22.627     6.782
    33   6 C        2.919    -0.043    29.059     8.840
    34   6 C        2.917    -0.044    29.086     8.844
    35   6 C        2.925     0.041    27.090     8.535
    36   6 C        2.913    -0.051    29.263     8.871
    37   6 C        2.916    -0.040    29.004     8.831
    38   6 C        2.962     0.001    28.012     8.681
    39   6 C        3.756    -0.106    22.583     6.776
    40   6 C        2.917    -0.046    29.131     8.851
    41   6 C        2.913    -0.044    29.081     8.843
    42   6 C        3.814    -0.055    21.553     6.608
    43   6 C        3.804    -0.054    21.549     6.609
    44   6 C        3.806    -0.054    21.540     6.607
    45   6 C        3.806    -0.051    21.488     6.599
    46   6 C        3.817    -0.063    21.700     6.630
    47   6 C        2.920    -0.048    29.186     8.859
    48   6 C        2.925    -0.040    29.004     8.832
    49   1 H        0.925     0.046     2.372     2.408
    50   1 H        0.924     0.050     2.314     2.379
    51   1 H        0.925     0.046     2.371     2.408
    52   1 H        0.926     0.035     2.518     2.481
    53   1 H        0.926     0.037     2.484     2.465
    54   1 H        0.926     0.031     2.568     2.506
    55   1 H        0.925     0.032     2.564     2.504
    56   1 H        0.925     0.044     2.402     2.424
    57   1 H        0.925     0.048     2.346     2.395
    58   1 H        0.925     0.047     2.355     2.400
    59   1 H        0.926     0.030     2.590     2.517
    60   1 H        0.926     0.030     2.587     2.515
    61   1 H        0.925     0.020     2.738     2.588
    62   1 H        0.926     0.020     2.727     2.583
    63   1 H        0.926     0.022     2.702     2.570
    64   1 H        0.926     0.037     2.491     2.468
    65   1 H        0.926     0.026     2.640     2.541
    66   1 H        0.926     0.016     2.798     2.616
    67   1 H        0.926     0.021     2.721     2.579
    68   1 H        0.925     0.022     2.705     2.572
    69   1 H        0.926     0.036     2.501     2.473
    70   1 H        0.926     0.035     2.521     2.483
    71   1 H        0.925     0.046     2.371     2.408
    72   1 H        0.925     0.047     2.354     2.400
    73   1 H        0.924     0.051     2.303     2.373
    74   1 H        0.926     0.032     2.560     2.502
    75   1 H        0.926     0.035     2.522     2.484
    76   1 H        0.926     0.033     2.547     2.496
    77   1 H        0.925     0.030     2.590     2.517
    78   1 H        0.925     0.041     2.432     2.439
    79   1 H        0.924     0.047     2.362     2.404
    80   1 H        0.924     0.046     2.365     2.405
    81   1 H        0.926     0.029     2.600     2.522
    82   1 H        0.926     0.029     2.602     2.523
    83   1 H        0.924     0.033     2.541     2.493
    84   1 H        0.924     0.028     2.617     2.530
    85   1 H        0.924     0.027     2.623     2.533
    86   1 H        0.924     0.035     2.520     2.482
    87   1 H        0.924     0.029     2.604     2.523
    88   1 H        0.924     0.025     2.651     2.546
    89   1 H        0.924     0.021     2.712     2.575
    90   1 H        0.924     0.027     2.628     2.535
    91   1 H        0.925     0.039     2.462     2.454
    92   1 H        0.925     0.034     2.534     2.489
    93   1 H        0.926     0.029     2.602     2.522
    94   1 H        0.926     0.033     2.541     2.493

molecular dipole:
                 x           y           z       tot (Debye)
 q only:        0.111       0.852      -1.264
   full:       -0.018       0.796      -1.089       3.429

 projected vibrational frequencies (cm⁻¹)
eigval :       -0.00    -0.00     0.00     0.00     0.00     0.00
eigval :       11.92    17.88    23.74    25.19    28.89    33.49
eigval :       36.46    39.82    44.83    47.92    52.49    57.78
eigval :       62.44    66.67    67.77    71.49    81.68    90.94
eigval :       97.44   100.67   113.72   123.93   132.07   144.54
eigval :      146.52   157.70   166.73   176.34   185.34   209.17
eigval :      229.54   240.72   253.50   261.61   268.17   270.60
eigval :      288.88   290.61   301.92   317.41   318.37   323.18
eigval :      336.38   341.93   360.09   362.23   371.00   376.16
eigval :      377.77   388.24   390.59   392.67   400.41   407.79
eigval :      414.95   423.19   439.43   445.76   448.86   464.16
eigval :      477.15   482.00   501.53   513.46   525.10   526.31
eigval :      542.37   553.37   558.37   563.40   576.39   599.94
eigval :      601.34   605.66   609.74   612.65   622.58   636.77
eigval :      639.26   645.65   657.10   661.65   668.34   689.20
eigval :      706.01   727.09   761.27   766.97   771.87   785.94
eigval :      792.11   795.33   800.38   806.48   816.14   821.33
eigval :      823.45   826.29   828.56   843.41   858.74   867.55
eigval :      869.56   873.17   877.51   881.85   890.57   891.46
eigval :      893.10   900.50   902.88   903.87   908.43   911.36
eigval :      914.53   916.50   920.57   923.12   923.77   929.10
eigval :      937.15   945.14   949.86   973.81   975.39   980.30
eigval :      988.15   991.43   997.96  1006.77  1010.72  1012.93
eigval :     1018.96  1019.04  1023.59  1029.44  1032.70  1065.97
eigval :     1070.36  1086.89  1090.14  1100.61  1102.60  1117.76
eigval :     1123.81  1128.04  1135.99  1142.73  1144.09  1147.92
eigval :     1149.38  1150.73  1157.47  1162.70  1167.25  1172.92
eigval :     1178.40  1189.34  1195.53  1197.65  1201.11  1204.95
eigval :     1206.50  1220.34  1233.59  1236.09  1237.78  1242.07
eigval :     1244.75  1253.68  1255.00  1257.88  1274.31  1275.16
eigval :     1276.72  1290.23  1294.91  1296.73  1304.11  1305.24
eigval :     1309.63  1311.25  1321.82  1326.66  1333.01  1335.06
eigval :     1337.45  1338.53  1343.79  1346.86  1353.52  1361.23
eigval :     1368.02  1382.41  1397.10  1399.12  1400.49  1403.77
eigval :     1409.74  1417.52  1420.75  1429.63  1431.93  1440.03
eigval :     1441.73  1449.60  1457.60  1471.20  1471.89  1475.91
eigval :     1476.43  1477.21  1478.51  1478.84  1479.58  1480.74
eigval :     1482.54  1484.42  1485.63  1487.62  1490.32  1494.60
eigval :     1502.34  1506.89  1522.82  1533.58  1540.35  1562.38
eigval :     1584.26  1589.58  2953.33  2957.10  2964.01  2966.09
eigval :     2969.01  2973.92  2974.98  2987.45  2989.40  2989.46
eigval :     2992.00  2992.95  2996.83  3011.75  3025.50  3030.55
eigval :     3032.42  3035.65  3039.80  3041.13  3044.35  3054.43
eigval :     3058.39  3063.13  3064.82  3066.87  3067.64  3068.27
eigval :     3069.50  3069.69  3071.62  3074.62  3076.04  3078.31
eigval :     3082.63  3082.84  3085.37  3086.63  3087.41  3088.19
eigval :     3088.90  3091.17  3093.93  3105.04  3116.06  3117.48

   temp. (K)  partition function   enthalpy   heat capacity  entropy
                                   cal/mol     cal/K/mol   cal/K/mol   J/K/mol
 298.15  VIB  0.901E+21            26485.880    161.952    166.978
         ROT  0.491E+08              888.752      2.981     38.173
         INT  0.442E+29            27374.632    164.933    205.152
         TR   0.152E+29             1481.254      4.968     45.169
         TOT                       28855.8863   169.9015   250.3205  1047.3410

       T/K    H(0)-H(T)+PV         H(T)/Eh          T*S/Eh         G(T)/Eh
   ------------------------------------------------------------------------
    298.15    0.459848E-01    0.815566E+00    0.118935E+00    0.696631E+00
   ------------------------------------------------------------------------

         :::::::::::::::::::::::::::::::::::::::::::::::::::::
         ::                  THERMODYNAMIC                  ::
         :::::::::::::::::::::::::::::::::::::::::::::::::::::
         :: total free energy        -127.087775962953 Eh   ::
         ::.................................................::
         :: total energy             -127.784406723280 Eh   ::
         :: zero point energy           0.769581328772 Eh   ::
         :: G(RRHO) w/o ZPVE           -0.072950568446 Eh   ::
         :: G(RRHO) contrib.            0.696630760326 Eh   ::
         :::::::::::::::::::::::::::::::::::::::::::::::::::::

           -------------------------------------------------
          | TOTAL ENERGY             -127.784406723280 Eh   |
          | TOTAL ENTHALPY           -126.968840612559 Eh   |
          | TOTAL FREE ENERGY        -127.087775962953 Eh   |
          | GRADIENT NORM               0.000070595809 Eh/α |
          | HOMO-LUMO GAP               0.035622788053 eV   |
           -------------------------------------------------

 * finished run on 2025/07/19 at 13:12:52.615
