   * xtb version 6.7.1 (edcfbbe) compiled by 'albert@albert-system' on 2024-07-22

   ID    Z sym.   atoms
    1    7 N      1
    2    6 C      2-47
    3    1 H      48-74

          program call               : xtb data2507/gas/SBF-AnCN/SBF-AnCN_gas_S0_finalOpt.xtbopt.xyz --gfn 2 --spinpol --tblite --uhf 2 --ohess vtight --parallel 40 --molden --ceasefiles --namespace data2507/gas/SBF-AnCN/SBF-AnCN_gas_T1_preOpt
 * total energy  :  -115.1137541 Eh     change       -0.1536756E-07 Eh
 * total energy  :  -115.1199017 Eh     change       -0.6147534E-02 Eh
 * total energy  :  -115.1213649 Eh     change       -0.1463219E-02 Eh
 * total energy  :  -115.1215110 Eh     change       -0.1460715E-03 Eh
 * total energy  :  -115.1216730 Eh     change       -0.1620585E-03 Eh
 * total energy  :  -115.1217688 Eh     change       -0.9575660E-04 Eh
 * total energy  :  -115.1218688 Eh     change       -0.1000239E-03 Eh
 * total energy  :  -115.1219885 Eh     change       -0.1197388E-03 Eh
 * total energy  :  -115.1221037 Eh     change       -0.1151469E-03 Eh
 * total energy  :  -115.1222050 Eh     change       -0.1012752E-03 Eh
 * total energy  :  -115.1231612 Eh     change       -0.2618362E-06 Eh
 * total energy  :  -115.1231615 Eh     change       -0.2969580E-06 Eh
 * total energy  :  -115.1231618 Eh     change       -0.2893403E-06 Eh
 * total energy  :  -115.1231621 Eh     change       -0.3061424E-06 Eh
 * total energy  :  -115.1231624 Eh     change       -0.2486514E-06 Eh
 * total energy  :  -115.1231627 Eh     change       -0.2954448E-06 Eh
 * total energy  :  -115.1231629 Eh     change       -0.2208008E-06 Eh
 * total energy  :  -115.1231631 Eh     change       -0.1715653E-06 Eh
 * total energy  :  -115.1231631 Eh     change       -0.1911125E-07 Eh
   *** GEOMETRY OPTIMIZATION CONVERGED AFTER 94 ITERATIONS ***

 final structure:
================
74
 xtb: 6.7.1 (edcfbbe)
N           10.48631915484246       -1.20308630125483       -0.53164230395223
C            9.37099369429179       -0.95668426306363       -0.41676042843065
C            8.00165933153481       -0.65399400156091       -0.27586558439383
C            7.28540967460888       -0.11700272047948       -1.35046224214355
C            5.95088665026461        0.18517805901281       -1.20551898466979
C            5.28256737478629       -0.05213676894372        0.00389327120815
C            3.86833128024026        0.26216557639583        0.15109931066184
C            2.95539579558710       -0.74935236341984        0.59142817598052
C            3.36564000908540       -2.06919560483932        0.79515676808219
C            2.49719834693075       -3.03148405274339        1.30431560258827
C            1.20537599184161       -2.68095130801698        1.63127629214033
C            0.75506896311503       -1.38657132262045        1.38487429183155
C            1.58411772037978       -0.42160680582008        0.80667051138938
C            1.10235741888312        0.88131224120500        0.45831034819042
C           -0.30624543198598        1.20036950082582        0.64176983235543
C           -0.69544403197534        2.31945850218455        1.39225319070893
C           -2.02472445180416        2.60677529932101        1.63111038569963
C           -2.99837726658161        1.76788092687213        1.10684057749267
C           -2.61661308419352        0.65763976740942        0.33553813587005
C           -1.29734078541320        0.36773749483285        0.09933374714135
C           -3.82908652524888       -0.12646725152672       -0.10358775603829
C           -3.76173826535383       -1.56337643038079        0.35574565116795
C           -3.63215235452543       -2.04328788067314        1.64038569656957
C           -3.55862916294679       -3.41715919303071        1.82767574320588
C           -3.61319317853497       -4.28471475300314        0.74717882024278
C           -3.74231757402790       -3.80448566475551       -0.54632810575013
C           -3.81506233624798       -2.43513466564150       -0.74112480762268
C           -3.93866478136695       -1.64187808952109       -1.95416617534404
C           -4.04092185443098       -2.01513497272222       -3.28401692881117
C           -4.15161563564176       -1.02271365992896       -4.24486234506078
C           -4.15940423709565        0.31727118566118       -3.88789415295218
C           -4.05679148889171        0.69923071085640       -2.55686927837832
C           -3.94746459072156       -0.28501205638944       -1.59954983109586
C           -4.95121670753605        0.67237906640725        0.51177238922515
C           -6.30535881176619        0.43090760748004        0.45033603172678
C           -7.16393880029152        1.31214663260323        1.09488337637195
C           -6.66991174366600        2.41004246386547        1.78424808586498
C           -5.30852778114847        2.65650585345838        1.84927683291850
C           -4.44463866720696        1.78145390715243        1.20886518893172
C            2.00200000907562        1.86742918315493       -0.05655164614838
C            1.54845306365911        3.10996290550959       -0.50589154599089
C            2.43478777843208        4.10230407878081       -0.91689836699709
C            3.79209752069569        3.86741120249129       -0.87868347930675
C            4.26654293120594        2.61352389614552       -0.50123274016958
C            3.39572260938179        1.58036272781655       -0.14655183747588
C            6.01126733655433       -0.59979158341483        1.06920809380094
C            7.35012111259130       -0.88911854854786        0.93923688981437
H            7.78741430614671        0.05311194022778       -2.29184063961097
H            5.39474564156470        0.57799065460489       -2.04425707742009
H            4.37561117578485       -2.35760162167343        0.54707710604910
H            2.84856605828603       -4.04143796689593        1.45240377268123
H            0.52988666542649       -3.40417106697604        2.06290289327085
H           -0.25837753001015       -1.13068975286245        1.65250155268966
H            0.07227519964990        2.94062250313001        1.83088525406253
H           -2.29843555169466        3.46144461503687        2.23189805394799
H           -1.01797556676717       -0.47587337364985       -0.51542148357375
H           -3.58887139905413       -1.36626837529271        2.48166677362876
H           -3.45712796619591       -3.81452470595333        2.82697247672267
H           -3.55334274660646       -5.34992639842214        0.91720842009568
H           -3.78227468908588       -4.48456711519482       -1.38420794533826
H           -4.03617508891214       -3.05724196586313       -3.56722255183017
H           -4.23379089198625       -1.29570669195050       -5.28688001755399
H           -4.24732235005582        1.07313424692300       -4.65435998276344
H           -4.06453613557275        1.74305024024999       -2.27795247594423
H           -6.68981069266297       -0.42375661979909       -0.08713122698358
H           -8.22959226631744        1.14070227433560        1.05846724225873
H           -7.35788690523099        3.08134757166292        2.27728210436133
H           -4.92838593939007        3.51203877512100        2.38763010869295
H            0.48786533026007        3.30580031645420       -0.54155965030848
H            2.05130753891148        5.05569696106980       -1.24802098835347
H            4.49268861661566        4.64147018520413       -1.15327310231984
H            5.33219693819585        2.44467725271115       -0.47862228227844
H            5.51577356866976       -0.76187117889383        2.01541845212689
H            7.90728724047431       -1.29429996935116        1.77141198983875

 projected vibrational frequencies (cm⁻¹)
eigval :       -0.00    -0.00    -0.00     0.00     0.00     0.00
eigval :        9.52    13.25    14.74    25.60    32.89    44.50
eigval :       47.05    48.07    65.68    72.72    83.90    87.32
eigval :      119.74   121.53   126.47   131.10   135.42   139.37
eigval :      153.80   180.34   182.44   219.22   224.87   234.04
eigval :      236.57   244.52   258.25   270.71   287.28   328.54
eigval :      334.06   342.08   366.32   367.60   386.94   387.84
eigval :      393.70   399.91   408.73   414.30   416.28   426.57
eigval :      441.62   452.73   458.34   470.51   471.66   481.37
eigval :      504.60   510.42   518.30   532.76   536.08   538.95
eigval :      549.50   571.25   582.58   583.96   590.34   595.65
eigval :      596.10   604.65   621.45   634.77   640.22   646.37
eigval :      674.25   683.55   686.01   690.30   692.88   705.95
eigval :      712.65   720.33   738.65   749.44   753.77   760.30
eigval :      762.40   769.31   774.88   785.16   786.56   815.97
eigval :      831.05   848.09   853.10   869.41   877.68   878.51
eigval :      879.49   886.02   887.27   892.63   894.49   897.76
eigval :      905.63   907.22   910.93   911.66   912.07   915.16
eigval :      922.89   925.65   926.41   927.58   927.75   928.47
eigval :      933.11   934.67   946.01   991.12  1008.77  1012.34
eigval :     1017.10  1073.97  1074.86  1076.71  1079.14  1102.27
eigval :     1106.02  1115.74  1122.24  1133.75  1134.99  1143.67
eigval :     1152.94  1165.97  1176.18  1178.28  1180.23  1181.35
eigval :     1181.92  1183.37  1187.19  1190.67  1208.20  1210.84
eigval :     1224.47  1230.14  1235.41  1239.72  1247.66  1254.49
eigval :     1261.36  1261.91  1262.39  1268.50  1283.04  1286.32
eigval :     1298.89  1301.91  1310.29  1322.63  1327.39  1335.91
eigval :     1354.62  1363.01  1367.26  1369.72  1379.24  1402.18
eigval :     1408.82  1421.86  1424.85  1428.89  1430.74  1432.17
eigval :     1444.82  1462.27  1464.41  1468.54  1472.96  1477.45
eigval :     1490.19  1516.74  1521.53  1531.19  1552.57  1555.15
eigval :     1568.59  1580.19  1585.27  1589.34  1596.33  1600.66
eigval :     1603.31  1604.42  2356.83  3072.28  3074.03  3074.51
eigval :     3076.02  3076.33  3077.92  3078.65  3078.73  3079.86
eigval :     3079.99  3080.23  3080.63  3084.09  3085.52  3086.57
eigval :     3087.88  3088.11  3088.28  3090.73  3090.92  3091.73
eigval :     3093.33  3094.13  3096.42  3097.14  3100.59  3101.46

   temp. (K)  partition function   enthalpy   heat capacity  entropy
                                   cal/mol     cal/K/mol   cal/K/mol   J/K/mol
 298.15  VIB  0.803E+16            20844.293    134.824    128.572
         ROT  0.683E+08              888.752      2.981     38.830
         INT  0.549E+24            21733.045    137.805    167.402
         TR   0.140E+29             1481.254      4.968     45.007
         TOT                       23214.2993   142.7733   212.4090   888.7192

       T/K    H(0)-H(T)+PV         H(T)/Eh          T*S/Eh         G(T)/Eh
   ------------------------------------------------------------------------
    298.15    0.369943E-01    0.597390E+00    0.100922E+00    0.496468E+00
   ------------------------------------------------------------------------

         :::::::::::::::::::::::::::::::::::::::::::::::::::::
         ::                  THERMODYNAMIC                  ::
         :::::::::::::::::::::::::::::::::::::::::::::::::::::
         :: total free energy        -114.626695021111 Eh   ::
         ::.................................................::
         :: total energy             -115.123163080133 Eh   ::
         :: zero point energy           0.560396083893 Eh   ::
         :: G(RRHO) w/o ZPVE           -0.063928024871 Eh   ::
         :: G(RRHO) contrib.            0.496468059022 Eh   ::
         :::::::::::::::::::::::::::::::::::::::::::::::::::::

           -------------------------------------------------
          | TOTAL ENERGY             -115.123163080133 Eh   |
          | TOTAL ENTHALPY           -114.525772655472 Eh   |
          | TOTAL FREE ENERGY        -114.626695021111 Eh   |
          | GRADIENT NORM               0.000033034018 Eh/α |
           -------------------------------------------------

 * finished run on 2025/09/12 at 05:09:16.693
