   * xtb version 6.7.1 (edcfbbe) compiled by 'albert@albert-system' on 2024-07-22

   ID    Z sym.   atoms
    1    7 N      1
    2    6 C      2-47
    3    1 H      48-74

          program call               : xtb data2507/gas/SBF-AnCN/SBF-AnCN_gas_S0_crest.xyz --gfn 2 --ohess vtight --parallel 40 --molden --ceasefiles --namespace data2507/gas/SBF-AnCN/SBF-AnCN_gas_S0_finalOpt
          :  Hamiltonian                  GFN2-xTB          :
 * total energy  :  -115.1848970 Eh     change       -0.2174190E-08 Eh
 * total energy  :  -115.1848979 Eh     change       -0.8801267E-06 Eh
 * total energy  :  -115.1848986 Eh     change       -0.7581089E-06 Eh
 * total energy  :  -115.1849000 Eh     change       -0.1387078E-05 Eh
 * total energy  :  -115.1849019 Eh     change       -0.1886695E-05 Eh
 * total energy  :  -115.1849031 Eh     change       -0.1154798E-05 Eh
 * total energy  :  -115.1849040 Eh     change       -0.9303421E-06 Eh
 * total energy  :  -115.1849047 Eh     change       -0.7465147E-06 Eh
 * total energy  :  -115.1849056 Eh     change       -0.8177570E-06 Eh
 * total energy  :  -115.1849062 Eh     change       -0.6754508E-06 Eh
 * total energy  :  -115.1849088 Eh     change       -0.9102198E-06 Eh
 * total energy  :  -115.1849098 Eh     change       -0.9810320E-06 Eh
 * total energy  :  -115.1849106 Eh     change       -0.8761794E-06 Eh
 * total energy  :  -115.1849114 Eh     change       -0.7831623E-06 Eh
 * total energy  :  -115.1849120 Eh     change       -0.5574489E-06 Eh
 * total energy  :  -115.1849123 Eh     change       -0.3685528E-06 Eh
 * total energy  :  -115.1849126 Eh     change       -0.2680717E-06 Eh
 * total energy  :  -115.1849129 Eh     change       -0.2529926E-06 Eh
 * total energy  :  -115.1849129 Eh     change       -0.3173255E-08 Eh
   *** GEOMETRY OPTIMIZATION CONVERGED AFTER 22 ITERATIONS ***

 final structure:
================
74
 xtb: 6.7.1 (edcfbbe)
N           10.50002592831011       -1.08840216020996       -0.69085125246940
C            9.38466438165778       -0.86667948829564       -0.54347598325861
C            8.01039563251779       -0.59293088753848       -0.36175284247904
C            7.16559388238888       -0.49537544179654       -1.46852935454681
C            5.82533764964759       -0.22443910769027       -1.28480673594600
C            5.30392489980308       -0.05113419735072       -0.00376937805911
C            3.86829593989796        0.23884548282266        0.18655596267992
C            3.03751450552247       -0.71996199812304        0.78418319881328
C            3.52847819183104       -1.99263358510581        1.17866919344983
C            2.71910328484104       -2.90668913453316        1.77940601912913
C            1.36695866676767       -2.60113560435601        2.03030880474767
C            0.85184200474006       -1.40104330307764        1.64823820685615
C            1.65305043462672       -0.42941185338681        0.99193596217765
C            1.12757080779996        0.80014181404844        0.56527893403095
C           -0.30105054737691        1.09790446494434        0.78663170419250
C           -0.67578562320961        2.12109874342677        1.65660475634522
C           -2.00761382263574        2.39770455859333        1.91253652785395
C           -2.97913336719956        1.63273023023458        1.28775456327964
C           -2.60385925183990        0.60842550817985        0.40613695054590
C           -1.28097078611057        0.33653991232135        0.14783111256517
C           -3.81991004608161       -0.10941986755002       -0.12452104485640
C           -3.79763745557575       -1.58548097798288        0.19347308512991
C           -3.69836858295747       -2.19124096068945        1.42652276446685
C           -3.68163516721672       -3.57853212752521        1.48104799029536
C           -3.76294007755145       -4.33547371684969        0.32195347240972
C           -3.86122486069271       -3.72850470701534       -0.91994563589851
C           -3.87668307251095       -2.34492847506611       -0.98247037812921
C           -3.95977612211124       -1.43444489754861       -2.11390012325516
C           -4.06111198514228       -1.67368310888269       -3.47434006797028
C           -4.12434891080997       -0.58984189893298       -4.33555200684761
C           -4.08648973771528        0.70885175791935       -3.85076858933646
C           -3.98541578274134        0.95660200550257       -2.48826438849198
C           -3.92312864963662       -0.11867208205538       -1.62971416623077
C           -4.94078156556258        0.64113036459662        0.55249778364277
C           -6.29754160031350        0.43076249911635        0.44368059994247
C           -7.15317406951929        1.25174621757320        1.16614273076619
C           -6.65412879975717        2.25925228053967        1.97808663217898
C           -5.28974237062028        2.47329851711139        2.09027263442581
C           -4.42999124467535        1.65845235832944        1.37228317374300
C            1.95427410208112        1.74631179091323       -0.05813767611916
C            1.44359563910194        2.97776641198731       -0.54661635452661
C            2.25942589579289        3.90269804692022       -1.12141067016401
C            3.64153685329561        3.65544513313053       -1.23901113854140
C            4.16641681474704        2.47529022862586       -0.81096668709965
C            3.34623479272285        1.47110718151699       -0.23189833116671
C            6.15444674698959       -0.15343834379605        1.09578144435953
C            7.49733153048909       -0.41953066771371        0.92466787350757
H            7.56833296721427       -0.63287880474034       -2.46136279798477
H            5.16615055940694       -0.15098696073668       -2.13754711929377
H            4.56493325473719       -2.22951159246224        0.98845988957453
H            3.10815661702393       -3.87073977486053        2.07229194732469
H            0.74162677394862       -3.32950907820725        2.52503295827652
H           -0.18524967512706       -1.17253827015880        1.84220213141952
H            0.09671934344660        2.69477888490858        2.14879574646642
H           -2.28017040640951        3.18922899175800        2.59466906643896
H           -0.99784153579451       -0.45182399370675       -0.53512897598403
H           -3.63604674979777       -1.60024034331555        2.32915365611771
H           -3.60479644348061       -4.07390656136033        2.43782211776394
H           -3.74871638009720       -5.41363435383533        0.38914327618518
H           -3.92268847493615       -4.32289872374674       -1.81947418248711
H           -4.09155761288068       -2.68311645769374       -3.85695847931949
H           -4.20488608446362       -0.75787802983481       -5.39970855278760
H           -4.13740023211209        1.53781714268674       -4.54128342318851
H           -3.95800131831475        1.96821051872741       -2.10968130778582
H           -6.68541647864136       -0.35427766160551       -0.18914384341038
H           -8.22063604753268        1.10383078579358        1.09468652252161
H           -7.33962430115101        2.88530042180426        2.53057685476568
H           -4.90588870396679        3.25898491699572        2.72408103831803
H            0.38441761384190        3.16723683075870       -0.45747775433784
H            1.85545852087504        4.83452945912906       -1.48873172197788
H            4.27926509836746        4.40890376771517       -1.67733123695870
H            5.22588538343109        2.28816856938357       -0.90566814080337
H            5.75241816276925       -0.01523843665410        2.08894541849496
H            8.15662756593599       -0.49471003641717        1.77700511520582

          :  Hamiltonian                  GFN2-xTB          :
         :: gradient norm              0.000039606095 Eh/a0 ::
         :: HOMO-LUMO gap              2.059391702501 eV    ::
         :: SCC energy              -117.475665117936 Eh    ::
         :: -> dispersion             -0.111085009749 Eh    ::
         :: repulsion energy           2.290752243933 Eh    ::

    * Orbital Energies and Occupations

         #    Occupation            Energy/Eh            Energy/eV
      -------------------------------------------------------------
         1        2.0000           -0.6696764             -18.2228
       ...           ...                  ...                  ...
        96        2.0000           -0.4199506             -11.4274
        97        2.0000           -0.4159984             -11.3199
        98        2.0000           -0.4149570             -11.2916
        99        2.0000           -0.4126443             -11.2286
       100        2.0000           -0.4106868             -11.1754
       101        2.0000           -0.4082646             -11.1094
       102        2.0000           -0.4050350             -11.0216
       103        2.0000           -0.4035204             -10.9803
       104        2.0000           -0.3985215             -10.8443
       105        2.0000           -0.3976137             -10.8196
       106        2.0000           -0.3858518             -10.4996
       107        2.0000           -0.3806286             -10.3574
       108        2.0000           -0.3639607              -9.9039 (HOMO)
       109                         -0.2882794              -7.8445 (LUMO)
       110                         -0.2699178              -7.3448
       111                         -0.2553868              -6.9494
       112                         -0.2546684              -6.9299
       113                         -0.2434069              -6.6234
       114                         -0.2368536              -6.4451
       115                         -0.2301481              -6.2626
       116                         -0.2281802              -6.2091
       117                         -0.2279066              -6.2017
       118                         -0.2256665              -6.1407
       119                         -0.2193119              -5.9678
       ...                                ...                  ...
       215                          1.1725864              31.9077
      -------------------------------------------------------------
                  HL-Gap            0.0756813 Eh            2.0594 eV

     #   Z          covCN         q      C6AA      α(0)
     1   7 N        0.911    -0.236    26.186     7.401
     2   6 C        1.912     0.111    28.355     8.600
     3   6 C        2.974     0.016    27.641     8.624
     4   6 C        2.925    -0.021    28.529     8.759
     5   6 C        2.923    -0.029    28.725     8.789
     6   6 C        2.977     0.025    27.436     8.592
     7   6 C        2.977    -0.010    28.255     8.719
     8   6 C        2.984     0.007    27.856     8.658
     9   6 C        2.917    -0.035    28.881     8.813
    10   6 C        2.914    -0.029    28.718     8.788
    11   6 C        2.914    -0.029    28.733     8.790
    12   6 C        2.917    -0.033    28.827     8.804
    13   6 C        2.984     0.007    27.858     8.658
    14   6 C        2.977    -0.003    28.103     8.696
    15   6 C        2.980     0.012    27.734     8.638
    16   6 C        2.925    -0.036    28.894     8.815
    17   6 C        2.913    -0.035    28.867     8.810
    18   6 C        3.036    -0.001    28.015     8.682
    19   6 C        3.056     0.006    27.832     8.652
    20   6 C        2.918    -0.036    28.896     8.815
    21   6 C        3.979     0.010    20.342     6.408
    22   6 C        3.058     0.006    27.825     8.651
    23   6 C        2.914    -0.033    28.816     8.803
    24   6 C        2.923    -0.031    28.783     8.798
    25   6 C        2.921    -0.032    28.801     8.801
    26   6 C        2.915    -0.033    28.831     8.805
    27   6 C        3.036     0.001    27.962     8.673
    28   6 C        3.037     0.001    27.967     8.674
    29   6 C        2.915    -0.033    28.833     8.805
    30   6 C        2.921    -0.032    28.801     8.801
    31   6 C        2.923    -0.031    28.781     8.798
    32   6 C        2.914    -0.033    28.811     8.802
    33   6 C        3.056     0.006    27.829     8.651
    34   6 C        3.057     0.006    27.821     8.650
    35   6 C        2.914    -0.032    28.805     8.801
    36   6 C        2.923    -0.031    28.774     8.797
    37   6 C        2.921    -0.032    28.800     8.801
    38   6 C        2.914    -0.034    28.838     8.806
    39   6 C        3.037     0.001    27.969     8.674
    40   6 C        2.984     0.007    27.863     8.659
    41   6 C        2.918    -0.033    28.832     8.805
    42   6 C        2.914    -0.030    28.741     8.791
    43   6 C        2.914    -0.029    28.722     8.788
    44   6 C        2.917    -0.035    28.879     8.812
    45   6 C        2.984     0.007    27.858     8.658
    46   6 C        2.923    -0.029    28.725     8.789
    47   6 C        2.925    -0.021    28.530     8.759
    48   1 H        0.926     0.041     2.430     2.438
    49   1 H        0.926     0.039     2.459     2.452
    50   1 H        0.926     0.029     2.604     2.523
    51   1 H        0.926     0.031     2.575     2.509
    52   1 H        0.926     0.031     2.577     2.510
    53   1 H        0.926     0.034     2.534     2.489
    54   1 H        0.926     0.032     2.563     2.503
    55   1 H        0.926     0.033     2.545     2.495
    56   1 H        0.926     0.029     2.601     2.522
    57   1 H        0.926     0.027     2.634     2.538
    58   1 H        0.926     0.031     2.574     2.509
    59   1 H        0.926     0.031     2.571     2.507
    60   1 H        0.926     0.032     2.560     2.502
    61   1 H        0.926     0.032     2.562     2.503
    62   1 H        0.926     0.031     2.571     2.507
    63   1 H        0.926     0.031     2.569     2.506
    64   1 H        0.926     0.028     2.619     2.531
    65   1 H        0.926     0.029     2.607     2.525
    66   1 H        0.926     0.032     2.564     2.504
    67   1 H        0.926     0.031     2.569     2.506
    68   1 H        0.926     0.032     2.564     2.504
    69   1 H        0.926     0.034     2.528     2.486
    70   1 H        0.926     0.031     2.575     2.509
    71   1 H        0.926     0.031     2.576     2.510
    72   1 H        0.926     0.029     2.605     2.524
    73   1 H        0.926     0.039     2.459     2.452
    74   1 H        0.926     0.041     2.430     2.438

molecular dipole:
                 x           y           z       tot (Debye)
 q only:       -1.565       0.276       0.180
   full:       -2.005       0.348       0.234       5.206

 projected vibrational frequencies (cm⁻¹)
eigval :       -0.00    -0.00    -0.00    -0.00     0.00     0.00
eigval :       11.08    12.04    14.37    26.88    32.84    38.34
eigval :       43.51    46.70    54.79    71.58    81.82    85.05
eigval :      110.48   119.82   124.32   129.58   133.98   139.93
eigval :      144.29   180.53   185.34   214.49   214.87   232.61
eigval :      232.75   235.54   257.92   263.98   284.65   329.54
eigval :      335.56   345.21   363.45   385.09   387.75   394.95
eigval :      396.14   410.85   414.14   416.28   427.44   447.66
eigval :      448.80   454.35   458.82   461.42   472.40   483.54
eigval :      504.89   511.94   519.17   534.22   535.81   539.15
eigval :      556.48   582.61   584.77   588.05   595.89   598.76
eigval :      601.93   607.54   630.42   641.97   645.18   651.29
eigval :      682.01   688.55   692.45   693.35   696.22   707.84
eigval :      714.81   739.59   741.24   753.98   763.08   769.65
eigval :      774.86   775.86   776.43   786.36   790.68   815.47
eigval :      830.91   870.61   873.74   876.13   878.80   879.18
eigval :      879.36   887.92   890.41   898.21   901.99   910.65
eigval :      911.80   912.13   915.95   917.12   920.89   922.14
eigval :      925.27   927.38   928.01   928.17   928.55   928.78
eigval :      930.88   932.53   934.03   994.96  1008.95  1013.19
eigval :     1021.58  1073.89  1075.13  1077.63  1079.21  1082.85
eigval :     1084.14  1132.05  1132.91  1135.03  1136.60  1143.74
eigval :     1154.20  1170.32  1177.68  1178.42  1181.09  1182.06
eigval :     1184.84  1186.84  1192.31  1207.60  1210.21  1217.22
eigval :     1224.53  1229.90  1238.86  1244.34  1252.01  1260.12
eigval :     1261.24  1262.17  1262.74  1267.14  1283.92  1288.39
eigval :     1308.54  1320.22  1327.43  1327.84  1349.80  1359.51
eigval :     1366.81  1374.59  1384.80  1393.24  1416.86  1420.41
eigval :     1428.93  1429.29  1431.68  1435.10  1444.10  1453.84
eigval :     1462.36  1469.73  1472.56  1482.37  1492.73  1526.94
eigval :     1528.35  1541.11  1548.07  1573.63  1585.64  1588.70
eigval :     1593.68  1596.52  1598.34  1603.92  1604.75  1605.21
eigval :     1608.33  1622.48  2374.19  3072.23  3073.42  3073.82
eigval :     3075.18  3075.75  3075.82  3076.02  3077.30  3077.97
eigval :     3078.72  3081.07  3081.51  3082.02  3082.95  3083.61
eigval :     3084.81  3085.67  3088.01  3090.70  3091.25  3091.67
eigval :     3092.74  3092.92  3093.23  3093.39  3096.13  3097.55

   temp. (K)  partition function   enthalpy   heat capacity  entropy
                                   cal/mol     cal/K/mol   cal/K/mol   J/K/mol
 298.15  VIB  0.128E+17            20811.393    133.569    128.720
         ROT  0.685E+08              888.752      2.981     38.834
         INT  0.878E+24            21700.146    136.550    167.554
         TR   0.140E+29             1481.254      4.968     45.007
         TOT                       23181.3995   141.5184   212.5614   889.3571

       T/K    H(0)-H(T)+PV         H(T)/Eh          T*S/Eh         G(T)/Eh
   ------------------------------------------------------------------------
    298.15    0.369419E-01    0.599694E+00    0.100995E+00    0.498699E+00
   ------------------------------------------------------------------------

         :::::::::::::::::::::::::::::::::::::::::::::::::::::
         ::                  THERMODYNAMIC                  ::
         :::::::::::::::::::::::::::::::::::::::::::::::::::::
         :: total free energy        -114.686213772389 Eh   ::
         ::.................................................::
         :: total energy             -115.184912873998 Eh   ::
         :: zero point energy           0.562751989262 Eh   ::
         :: G(RRHO) w/o ZPVE           -0.064052887653 Eh   ::
         :: G(RRHO) contrib.            0.498699101609 Eh   ::
         :::::::::::::::::::::::::::::::::::::::::::::::::::::

           -------------------------------------------------
          | TOTAL ENERGY             -115.184912873998 Eh   |
          | TOTAL ENTHALPY           -114.585218973249 Eh   |
          | TOTAL FREE ENERGY        -114.686213772389 Eh   |
          | GRADIENT NORM               0.000039606748 Eh/α |
          | HOMO-LUMO GAP               2.059391724925 eV   |
           -------------------------------------------------

 * finished run on 2025/09/12 at 05:09:05.481
