   * xtb version 6.7.1 (edcfbbe) compiled by 'albert@albert-system' on 2024-07-22

   ID    Z sym.   atoms
    1    7 N      1
    2    6 C      2-47
    3    1 H      48-74

          program call               : xtb data2507/gas/SBF-AnCN/SBF-AnCN.xyz --gfn 2 --ohess vtight --parallel 40 --molden --ceasefiles --namespace data2507/gas/SBF-AnCN/SBF-AnCN_gas_S0_preOpt
          :  Hamiltonian                  GFN2-xTB          :
 * total energy  :  -115.1672140 Eh     change       -0.5395620E-08 Eh
 * total energy  :  -115.1805172 Eh     change       -0.1330318E-01 Eh
 * total energy  :  -115.1834482 Eh     change       -0.2930983E-02 Eh
 * total energy  :  -115.1838184 Eh     change       -0.3701819E-03 Eh
 * total energy  :  -115.1839756 Eh     change       -0.1571918E-03 Eh
 * total energy  :  -115.1840004 Eh     change       -0.2486147E-04 Eh
 * total energy  :  -115.1839947 Eh     change        0.5767507E-05 Eh
 * total energy  :  -115.1840093 Eh     change       -0.1467645E-04 Eh
 * total energy  :  -115.1840223 Eh     change       -0.1300933E-04 Eh
 * total energy  :  -115.1840249 Eh     change       -0.2532566E-05 Eh
 * total energy  :  -115.1840303 Eh     change       -0.1893179E-05 Eh
 * total energy  :  -115.1840314 Eh     change       -0.1137452E-05 Eh
 * total energy  :  -115.1840320 Eh     change       -0.5374386E-06 Eh
 * total energy  :  -115.1840322 Eh     change       -0.1970185E-06 Eh
 * total energy  :  -115.1840322 Eh     change        0.5421441E-08 Eh
 * total energy  :  -115.1840323 Eh     change       -0.1209034E-06 Eh
 * total energy  :  -115.1840323 Eh     change        0.1065047E-08 Eh
 * total energy  :  -115.1840324 Eh     change       -0.8919496E-07 Eh
 * total energy  :  -115.1840325 Eh     change       -0.8077573E-07 Eh
   *** GEOMETRY OPTIMIZATION CONVERGED AFTER 20 ITERATIONS ***

 final structure:
================
74
 xtb: 6.7.1 (edcfbbe)
N           10.70994750696225       -0.00081204611686       -1.37586676929574
C            9.59734783393194       -0.00064655939504       -1.09883886448921
C            8.22586233328431       -0.00036902843955       -0.75744570828232
C            7.25724279191954       -0.00048105376881       -1.76218345742984
C            5.91965024257187       -0.00024281538008       -1.42261707853195
C            5.52818314265415        0.00012169244455       -0.08612715172776
C            4.09096511772686        0.00027561772508        0.27025552570435
C            3.41767592461565       -1.21599414833515        0.43586409837124
C            4.07436919469279       -2.46389777470664        0.27098721076251
C            3.40484091098417       -3.63709048314702        0.43448574362597
C            2.03586107649479       -3.63602046344731        0.77197678651920
C            1.37036982464839       -2.46145739544059        0.94118590276826
C            2.03112222487448       -1.21510486163098        0.78254362951760
C            1.35888365140885        0.00052388257181        0.95680644859834
C           -0.07214893141527        0.00056869199535        1.33800728567336
C           -0.42916285786868        0.00050425805407        2.68411013758749
C           -1.75746128734052        0.00021381710538        3.07431182746213
C           -2.73805618999346       -0.00002189969954        2.09603966060759
C           -2.37827592529815        0.00016890272154        0.74032564371042
C           -1.05811370798262        0.00046113644994        0.35250878057032
C           -3.60642232236839       -0.00016708498361       -0.13560628635462
C           -3.66739268810610       -1.17165421481553       -1.08553209011827
C           -3.64030373922024       -2.51589872974681       -0.78646936845042
C           -3.71273960230821       -3.42664105722402       -1.83204686652132
C           -3.81098309505996       -2.99325165267007       -3.14566734622283
C           -3.83741394431763       -1.64148834066203       -3.44963058782859
C           -3.76403873115769       -0.72701359498985       -2.41197537699353
C           -3.76474491389063        0.72758194828777       -2.41164153283230
C           -3.83908989100440        1.64246419572554       -3.44886889457360
C           -3.81401979467500        2.99411237417346       -3.14427903908754
C           -3.71615406429229        3.42699146370991       -1.83046207822236
C           -3.64274268000269        2.51583776853298       -0.78531109253093
C           -3.66847993396671        1.17170622014559       -1.08499881090508
C           -4.71606123613286       -0.00078347276364        0.88827760533776
C           -6.07655349540095       -0.00140299433397        0.67365675305437
C           -6.91910155293821       -0.00185964591855        1.77734502909068
C           -6.40371992295280       -0.00167528903118        3.06485855498903
C           -5.03554512599559       -0.00104487917438        3.28413345212125
C           -4.18897792681050       -0.00060243337815        2.18790412125731
C            2.03137870818284        1.21602430962344        0.78269527006146
C            1.37088156336813        2.46249321867239        0.94147422836378
C            2.03661086456647        3.63693627890002        0.77236849434899
C            3.40558427394544        3.63775933954948        0.43484199276741
C            4.07487410743169        2.46444747425571        0.27122035420273
C            3.41793254468956        1.21666313327715        0.43600685849670
C            6.50024156038597        0.00027446181472        0.91097599928934
C            7.84106612220378        0.00002904334662        0.58404460498004
H            7.56249340054484       -0.00076610713869       -2.79832886468658
H            5.16396240771535       -0.00037556663214       -2.19446742528721
H            5.12312403811696       -2.46470260526277        0.01082815077450
H            3.91659804256453       -4.57954372216831        0.30610219310264
H            1.52177938997608       -4.57791497395558        0.89434276408214
H            0.32122921844669       -2.45614184739960        1.19826860048794
H            0.35266143086620        0.00062230678044        3.43019336662912
H           -2.02028464993261        0.00011172123813        4.12166597141760
H           -0.78274958278846        0.00053577954580       -0.69246666125287
H           -3.56613481236073       -2.85268491184522        0.23757182760402
H           -3.69336501334774       -4.48545563916075       -1.61958994011843
H           -3.86762566544702       -3.72053806281621       -3.94253751393068
H           -3.91375552002480       -1.30927475873824       -4.47437739782746
H           -3.91516042474120        1.31064991434968       -4.47376520282617
H           -3.87145513141485        3.72171122430525       -3.94080718887543
H           -3.69786019056443        4.48572638875182       -1.61751251414970
H           -3.56888195663052        2.85222375344383        0.23888386762035
H           -6.47727128413207       -0.00154002783096       -0.32965599981247
H           -7.98919372615730       -0.00236493590871        1.63117167908666
H           -7.07922064228194       -0.00203434317168        3.90794928783726
H           -4.63880498746687       -0.00090981967201        4.28860900829188
H            0.32174122884312        2.45735041568912        1.19856589598484
H            1.52272578499733        4.57892551771544        0.89483055010720
H            3.91752567086909        4.58012143263416        0.30652282265784
H            5.12361952872472        2.46505919168702        0.01101885324502
H            6.19476922300495        0.00053935405962        1.94709069762174
H            8.59634626157662        0.00013001161723        1.35625257277360

          :  Hamiltonian                  GFN2-xTB          :
         :: gradient norm              0.000109920515 Eh/a0 ::
         :: HOMO-LUMO gap              2.193741679473 eV    ::
         :: SCC energy              -117.476608936151 Eh    ::
         :: -> dispersion             -0.110302424215 Eh    ::
         :: repulsion energy           2.292576466393 Eh    ::

    * Orbital Energies and Occupations

         #    Occupation            Energy/Eh            Energy/eV
      -------------------------------------------------------------
         1        2.0000           -0.6703035             -18.2399
       ...           ...                  ...                  ...
        96        2.0000           -0.4203573             -11.4385
        97        2.0000           -0.4156646             -11.3108
        98        2.0000           -0.4146372             -11.2829
        99        2.0000           -0.4118457             -11.2069
       100        2.0000           -0.4107265             -11.1764
       101        2.0000           -0.4097837             -11.1508
       102        2.0000           -0.4051908             -11.0258
       103        2.0000           -0.4036283             -10.9833
       104        2.0000           -0.3983499             -10.8397
       105        2.0000           -0.3974612             -10.8155
       106        2.0000           -0.3849477             -10.4750
       107        2.0000           -0.3795153             -10.3271
       108        2.0000           -0.3657502              -9.9526 (HOMO)
       109                         -0.2851317              -7.7588 (LUMO)
       110                         -0.2722764              -7.4090
       111                         -0.2555462              -6.9538
       112                         -0.2544605              -6.9242
       113                         -0.2441596              -6.6439
       114                         -0.2369244              -6.4470
       115                         -0.2297201              -6.2510
       116                         -0.2278690              -6.2006
       117                         -0.2276993              -6.1960
       118                         -0.2260634              -6.1515
       119                         -0.2190208              -5.9599
       ...                                ...                  ...
       215                          1.1722259              31.8979
      -------------------------------------------------------------
                  HL-Gap            0.0806185 Eh            2.1937 eV

     #   Z          covCN         q      C6AA      α(0)
     1   7 N        0.911    -0.236    26.170     7.399
     2   6 C        1.912     0.111    28.352     8.599
     3   6 C        2.974     0.017    27.637     8.623
     4   6 C        2.925    -0.020    28.518     8.758
     5   6 C        2.923    -0.029    28.721     8.789
     6   6 C        2.977     0.026    27.413     8.588
     7   6 C        2.978    -0.010    28.252     8.719
     8   6 C        2.984     0.007    27.863     8.659
     9   6 C        2.917    -0.034    28.855     8.809
    10   6 C        2.914    -0.029    28.713     8.787
    11   6 C        2.914    -0.029    28.726     8.789
    12   6 C        2.917    -0.032    28.801     8.800
    13   6 C        2.985     0.007    27.862     8.659
    14   6 C        2.979    -0.003    28.102     8.696
    15   6 C        2.981     0.013    27.715     8.636
    16   6 C        2.925    -0.036    28.899     8.816
    17   6 C        2.914    -0.034    28.857     8.809
    18   6 C        3.037    -0.001    28.026     8.683
    19   6 C        3.056     0.006    27.824     8.651
    20   6 C        2.918    -0.036    28.901     8.816
    21   6 C        3.979     0.010    20.342     6.408
    22   6 C        3.057     0.006    27.825     8.651
    23   6 C        2.914    -0.033    28.811     8.802
    24   6 C        2.923    -0.031    28.782     8.798
    25   6 C        2.921    -0.032    28.802     8.801
    26   6 C        2.915    -0.033    28.833     8.805
    27   6 C        3.036     0.001    27.965     8.674
    28   6 C        3.036     0.001    27.965     8.674
    29   6 C        2.915    -0.033    28.833     8.805
    30   6 C        2.921    -0.032    28.802     8.801
    31   6 C        2.923    -0.031    28.782     8.798
    32   6 C        2.914    -0.033    28.811     8.802
    33   6 C        3.057     0.006    27.825     8.651
    34   6 C        3.057     0.006    27.821     8.650
    35   6 C        2.914    -0.032    28.806     8.801
    36   6 C        2.923    -0.031    28.777     8.797
    37   6 C        2.921    -0.032    28.802     8.801
    38   6 C        2.915    -0.034    28.841     8.806
    39   6 C        3.037     0.001    27.970     8.675
    40   6 C        2.985     0.007    27.862     8.659
    41   6 C        2.917    -0.032    28.801     8.800
    42   6 C        2.914    -0.029    28.726     8.789
    43   6 C        2.914    -0.029    28.713     8.787
    44   6 C        2.917    -0.034    28.855     8.809
    45   6 C        2.984     0.007    27.863     8.659
    46   6 C        2.923    -0.029    28.722     8.789
    47   6 C        2.925    -0.021    28.519     8.758
    48   1 H        0.926     0.042     2.423     2.434
    49   1 H        0.926     0.039     2.468     2.457
    50   1 H        0.926     0.027     2.626     2.534
    51   1 H        0.926     0.031     2.571     2.507
    52   1 H        0.926     0.031     2.570     2.507
    53   1 H        0.926     0.032     2.554     2.499
    54   1 H        0.926     0.030     2.587     2.515
    55   1 H        0.926     0.033     2.544     2.494
    56   1 H        0.926     0.027     2.623     2.533
    57   1 H        0.926     0.027     2.627     2.534
    58   1 H        0.926     0.031     2.571     2.507
    59   1 H        0.926     0.031     2.571     2.507
    60   1 H        0.926     0.032     2.562     2.503
    61   1 H        0.926     0.032     2.562     2.503
    62   1 H        0.926     0.031     2.571     2.507
    63   1 H        0.926     0.031     2.571     2.507
    64   1 H        0.926     0.027     2.627     2.534
    65   1 H        0.926     0.028     2.609     2.526
    66   1 H        0.926     0.031     2.566     2.505
    67   1 H        0.926     0.031     2.570     2.507
    68   1 H        0.926     0.032     2.565     2.504
    69   1 H        0.926     0.032     2.554     2.499
    70   1 H        0.926     0.031     2.570     2.507
    71   1 H        0.926     0.031     2.571     2.507
    72   1 H        0.926     0.027     2.626     2.534
    73   1 H        0.926     0.039     2.469     2.457
    74   1 H        0.926     0.042     2.423     2.434

molecular dipole:
                 x           y           z       tot (Debye)
 q only:       -1.504       0.000       0.333
   full:       -1.939       0.000       0.428       5.048

 projected vibrational frequencies (cm⁻¹)
eigval :       -0.00    -0.00    -0.00     0.00     0.00     0.00
eigval :      -27.21   -10.97    12.33    13.79    27.17    31.60
eigval :       35.26    43.18    56.16    69.38    77.94    82.97
eigval :      103.59   114.14   123.43   124.71   133.31   139.84
eigval :      140.04   177.79   183.37   209.13   212.66   222.45
eigval :      230.93   232.93   253.45   257.55   282.82   328.94
eigval :      333.97   343.30   358.90   384.49   387.56   391.95
eigval :      395.23   409.27   414.34   416.15   433.52   443.19
eigval :      446.03   454.44   457.69   460.78   471.69   482.43
eigval :      504.87   511.31   518.77   533.46   534.22   538.88
eigval :      556.11   581.86   584.38   587.28   595.68   598.95
eigval :      601.33   608.25   631.35   642.63   644.19   651.78
eigval :      682.07   687.98   691.70   692.65   696.51   708.25
eigval :      714.44   739.99   740.90   754.02   763.29   769.34
eigval :      773.70   774.56   776.35   786.21   790.82   812.06
eigval :      826.43   869.79   872.82   874.52   878.84   878.96
eigval :      879.29   883.13   888.19   897.94   900.43   910.46
eigval :      911.52   911.54   914.84   915.46   917.01   917.36
eigval :      925.52   926.42   927.21   927.49   927.81   928.04
eigval :      928.05   933.32   933.59   995.09  1008.98  1012.52
eigval :     1021.65  1073.86  1075.16  1077.62  1078.01  1078.95
eigval :     1079.27  1130.89  1132.23  1135.26  1136.56  1143.74
eigval :     1153.38  1169.19  1177.62  1178.34  1179.85  1181.07
eigval :     1183.11  1185.46  1191.82  1206.43  1210.17  1216.32
eigval :     1224.32  1226.56  1238.05  1243.97  1251.88  1258.28
eigval :     1261.29  1261.56  1263.45  1266.20  1283.44  1288.00
eigval :     1305.87  1319.16  1327.45  1330.57  1350.14  1359.35
eigval :     1366.72  1375.56  1386.11  1392.05  1418.44  1420.50
eigval :     1429.23  1430.33  1432.04  1435.94  1446.23  1455.45
eigval :     1462.48  1470.03  1472.38  1485.64  1496.24  1527.22
eigval :     1535.12  1544.74  1548.95  1575.18  1585.63  1591.00
eigval :     1594.07  1596.62  1599.25  1604.69  1604.77  1605.33
eigval :     1608.55  1623.43  2375.55  3072.78  3073.27  3073.77
eigval :     3073.92  3074.00  3075.84  3076.19  3077.02  3077.92
eigval :     3078.28  3078.37  3080.30  3082.08  3083.38  3083.62
eigval :     3084.79  3085.59  3086.69  3087.13  3088.44  3091.75
eigval :     3092.71  3093.29  3093.50  3093.54  3093.71  3094.57

   temp. (K)  partition function   enthalpy   heat capacity  entropy
                                   cal/mol     cal/K/mol   cal/K/mol   J/K/mol
 298.15  VIB  0.410E+16            20382.721    132.231    125.490
         ROT  0.688E+08              888.752      2.981     38.844
         INT  0.282E+24            21271.473    135.212    164.334
         TR   0.140E+29             1481.254      4.968     45.007
         TOT                       22752.7269   140.1798   209.3406   875.8812

       T/K    H(0)-H(T)+PV         H(T)/Eh          T*S/Eh         G(T)/Eh
   ------------------------------------------------------------------------
    298.15    0.362588E-01    0.598549E+00    0.994645E-01    0.499085E+00
   ------------------------------------------------------------------------

         :::::::::::::::::::::::::::::::::::::::::::::::::::::
         ::                  THERMODYNAMIC                  ::
         :::::::::::::::::::::::::::::::::::::::::::::::::::::
         :: total free energy        -114.684947849313 Eh   ::
         ::.................................................::
         :: total energy             -115.184032469730 Eh   ::
         :: zero point energy           0.562290328983 Eh   ::
         :: G(RRHO) w/o ZPVE           -0.063205708566 Eh   ::
         :: G(RRHO) contrib.            0.499084620416 Eh   ::
         :::::::::::::::::::::::::::::::::::::::::::::::::::::

           -------------------------------------------------
          | TOTAL ENERGY             -115.184032469730 Eh   |
          | TOTAL ENTHALPY           -114.585483362458 Eh   |
          | TOTAL FREE ENERGY        -114.684947849313 Eh   |
          | GRADIENT NORM               0.000110025431 Eh/α |
          | HOMO-LUMO GAP               2.193741456131 eV   |
           -------------------------------------------------

 * finished run on 2025/09/12 at 05:05:16.635
