   * xtb version 6.7.1 (edcfbbe) compiled by 'albert@albert-system' on 2024-07-22

   ID    Z sym.   atoms
    1    7 N      1
    2    6 C      2-47
    3    1 H      48-74

          program call               : xtb data2507/gas/SBF-AnCN/SBF-AnCN_gas_T1_crest.xyz --gfn 2 --spinpol --tblite --uhf 2 --ohess vtight --parallel 40 --molden --ceasefiles --namespace data2507/gas/SBF-AnCN/SBF-AnCN_gas_T1_finalOpt
 * total energy  :  -115.1230624 Eh     change        0.8535055E-07 Eh
 * total energy  :  -115.1231053 Eh     change       -0.4288247E-04 Eh
 * total energy  :  -115.1231186 Eh     change       -0.1333181E-04 Eh
 * total energy  :  -115.1231103 Eh     change        0.8295170E-05 Eh
 * total energy  :  -115.1231235 Eh     change       -0.1318618E-04 Eh
 * total energy  :  -115.1231288 Eh     change       -0.5244110E-05 Eh
 * total energy  :  -115.1231320 Eh     change       -0.3253502E-05 Eh
 * total energy  :  -115.1231384 Eh     change       -0.6367165E-05 Eh
 * total energy  :  -115.1231444 Eh     change       -0.6050218E-05 Eh
 * total energy  :  -115.1231483 Eh     change       -0.3882617E-05 Eh
 * total energy  :  -115.1231624 Eh     change       -0.1327737E-05 Eh
 * total energy  :  -115.1231628 Eh     change       -0.3611677E-06 Eh
 * total energy  :  -115.1231627 Eh     change        0.1044224E-06 Eh
 * total energy  :  -115.1231640 Eh     change       -0.1384560E-05 Eh
 * total energy  :  -115.1231643 Eh     change       -0.2433720E-06 Eh
 * total energy  :  -115.1231641 Eh     change        0.1426502E-06 Eh
 * total energy  :  -115.1231637 Eh     change        0.3934893E-06 Eh
 * total energy  :  -115.1231644 Eh     change       -0.6833784E-06 Eh
 * total energy  :  -115.1231645 Eh     change       -0.9071555E-07 Eh
   *** GEOMETRY OPTIMIZATION CONVERGED AFTER 29 ITERATIONS ***

 final structure:
================
74
 xtb: 6.7.1 (edcfbbe)
N           10.48173433240125       -1.27290423567671       -0.48310712248607
C            9.36724687593679       -1.01714043179142       -0.38129639802582
C            7.99894323516242       -0.70314991253133       -0.25614524634557
C            7.29476596390618       -0.17811037323999       -1.34453751215165
C            5.96123458894724        0.13527840135823       -1.21491422146202
C            5.28189099267277       -0.07858933352065       -0.00725864192041
C            3.86907663627386        0.24794157521723        0.12531669173803
C            2.94703015673229       -0.74950551568517        0.57847905898307
C            3.34644002198312       -2.06944217346171        0.80233096072662
C            2.47037451513092       -3.01638642984424        1.32676324169515
C            1.18234206365996       -2.64928034757211        1.65071311198402
C            0.74267678911001       -1.35527084136039        1.38415120788041
C            1.57835049027898       -0.40728653491621        0.78757966172611
C            1.10666916756369        0.89265197371413        0.41444129817893
C           -0.29907167823655        1.22594759417655        0.59085920933965
C           -0.67993616808203        2.36736784791584        1.31188133464475
C           -2.00675287916794        2.66959395495286        1.54541556740988
C           -2.98693639228854        1.82198609138783        1.04781288408243
C           -2.61373820043378        0.68802852944302        0.30744960553311
C           -1.29702488502098        0.38492799021779        0.07404122399755
C           -3.83148998993447       -0.10623229655419       -0.09787007433205
C           -3.76321994686247       -1.52324093775141        0.42050457049566
C           -3.62693751855015       -1.94939025444364        1.72328408947364
C           -3.55007168361768       -3.31421677721336        1.96683897961343
C           -3.60774112788780       -4.22572088328503        0.92330563354829
C           -3.74388069569094       -3.79955242246850       -0.38829519099532
C           -3.82015604673206       -2.43953036271556       -0.63915416303981
C           -3.95030431384808       -1.69704669415327       -1.88324447946189
C           -4.05994698990334       -2.12524829633621       -3.19581549707390
C           -4.17658066408599       -1.17360508993245       -4.19638676334667
C           -4.18282840760130        0.18002528794482       -3.89526601345272
C           -4.07276045761698        0.61696885122162       -2.58184970598755
C           -3.95765644719653       -0.32658502313959       -1.58503254641699
C           -4.94747636743014        0.71913802916902        0.49295790895313
C           -6.30320440965165        0.48423985741319        0.44194550462706
C           -7.15498469460182        1.39067906777919        1.06007009548941
C           -6.65276030491315        2.50639318779470        1.71400800534282
C           -5.28977009449821        2.74632167664106        1.76860727168408
C           -4.43266847438085        1.84651969224485        1.15384430409798
C            2.01483422647669        1.86198408292220       -0.11767861054057
C            1.57151762952686        3.09826038468721       -0.59367011109690
C            2.46617086555243        4.07705289644364       -1.01876316484879
C            3.82182460147689        3.83468956361794       -0.96840510959784
C            4.28623363898724        2.58500791585874       -0.56575784235463
C            3.40694519024904        1.56401948649877       -0.19677178944399
C            5.99847189951909       -0.61499358437954        1.07199039228588
C            7.33622992244578       -0.91531528168438        0.95717490128347
H            7.80528559629697       -0.02601670868278       -2.28441871450951
H            5.41440057294571        0.51846966610194       -2.06415326375293
H            4.35384811170424       -2.36990158773098        0.55808238262544
H            2.81302246152976       -4.02706274798475        1.48959173268379
H            0.50137894159513       -3.35943036154368        2.09526585305683
H           -0.26768613307569       -1.08645407094702        1.65073037403324
H            0.09245797104976        2.99485965345023        1.73290892326506
H           -2.27368995474420        3.54220146371189        2.12301714771005
H           -1.02481231253204       -0.47624474317605       -0.51917745467666
H           -3.58067594752612       -1.23809740531063        2.53563857808466
H           -3.44305501985211       -3.66974038351509        2.98121220160213
H           -3.54471447897028       -5.28288510321586        1.13687022710886
H           -3.78620723359798       -4.51374051194593       -1.19717371671513
H           -4.05644652349148       -3.17823222957908       -3.43546108386891
H           -4.26475688106012       -1.48965598010006       -5.22566585287300
H           -4.27558869934774        0.90338967638604       -4.69192786090636
H           -4.07950813704870        1.67147275219098       -2.34653119721169
H           -6.69412828016372       -0.38440441069313       -0.06771795338236
H           -8.22176657924887        1.22498400498495        1.03082403708573
H           -7.33554304862159        3.19703781535895        2.18714895719841
H           -4.90317563486616        3.61591855345937        2.27911341617884
H            0.51240839297094        3.29994965649957       -0.63915987942025
H            2.09043450381775        5.02633334521401       -1.36997461517456
H            4.52870713718476        4.59933001800957       -1.25308515217655
H            5.35063494330265        2.40979416424294       -0.53454430060236
H            5.49434016899102       -0.75941616235562        2.01650025972489
H            7.88401133840047       -1.31149617659300        1.79984713208010

 projected vibrational frequencies (cm⁻¹)
eigval :       -0.00    -0.00    -0.00     0.00     0.00     0.00
eigval :        9.56    12.83    14.80    25.61    32.82    44.47
eigval :       47.04    48.25    65.65    72.86    83.84    87.44
eigval :      119.70   121.51   126.46   131.09   135.38   139.18
eigval :      154.37   180.13   182.28   219.24   225.12   234.02
eigval :      236.91   245.00   258.56   270.81   287.41   328.32
eigval :      333.85   341.98   366.26   367.82   386.79   387.62
eigval :      393.91   399.65   408.82   414.36   416.29   427.12
eigval :      441.74   452.67   458.43   470.45   471.90   481.44
eigval :      504.58   510.50   518.53   532.78   536.15   538.89
eigval :      549.39   571.32   582.55   583.94   590.34   595.67
eigval :      596.01   604.55   621.39   634.74   640.10   646.41
eigval :      674.34   683.57   686.00   690.25   692.84   705.90
eigval :      712.91   720.39   738.59   749.51   753.75   760.27
eigval :      762.41   769.06   774.87   785.24   786.30   815.91
eigval :      830.88   848.06   853.40   869.38   877.57   878.26
eigval :      879.19   885.90   887.12   892.71   894.54   897.76
eigval :      905.59   907.11   910.68   911.71   911.84   915.74
eigval :      922.97   925.67   926.48   927.35   927.83   928.19
eigval :      933.12   934.68   946.39   991.16  1008.78  1012.55
eigval :     1017.40  1074.01  1074.52  1076.55  1079.21  1102.56
eigval :     1106.28  1115.67  1122.03  1133.42  1134.85  1143.52
eigval :     1152.77  1165.57  1175.43  1177.77  1179.79  1180.77
eigval :     1181.44  1182.84  1186.91  1190.17  1207.82  1210.77
eigval :     1224.20  1229.88  1235.29  1239.60  1247.40  1254.16
eigval :     1260.90  1261.96  1262.51  1268.39  1282.65  1285.98
eigval :     1299.04  1301.85  1310.27  1322.67  1327.38  1335.69
eigval :     1354.11  1362.61  1366.73  1369.40  1379.17  1402.03
eigval :     1408.69  1421.78  1424.65  1428.57  1430.37  1431.75
eigval :     1444.64  1462.10  1464.09  1468.49  1472.38  1477.23
eigval :     1490.47  1516.74  1521.78  1531.12  1552.29  1554.93
eigval :     1568.42  1579.92  1585.50  1589.53  1596.53  1600.60
eigval :     1603.30  1604.53  2356.65  3071.85  3073.62  3074.11
eigval :     3075.52  3075.89  3077.49  3078.37  3078.43  3079.32
eigval :     3079.59  3079.95  3080.34  3083.56  3084.95  3085.93
eigval :     3087.49  3087.66  3087.80  3090.22  3090.62  3091.35
eigval :     3093.16  3093.87  3096.20  3096.72  3100.00  3100.63

   temp. (K)  partition function   enthalpy   heat capacity  entropy
                                   cal/mol     cal/K/mol   cal/K/mol   J/K/mol
 298.15  VIB  0.817E+16            20843.545    134.831    128.583
         ROT  0.682E+08              888.752      2.981     38.828
         INT  0.558E+24            21732.297    137.812    167.411
         TR   0.140E+29             1481.254      4.968     45.007
         TOT                       23213.5508   142.7803   212.4180   888.7568

       T/K    H(0)-H(T)+PV         H(T)/Eh          T*S/Eh         G(T)/Eh
   ------------------------------------------------------------------------
    298.15    0.369931E-01    0.597336E+00    0.100927E+00    0.496409E+00
   ------------------------------------------------------------------------

         :::::::::::::::::::::::::::::::::::::::::::::::::::::
         ::                  THERMODYNAMIC                  ::
         :::::::::::::::::::::::::::::::::::::::::::::::::::::
         :: total free energy        -114.626755501146 Eh   ::
         ::.................................................::
         :: total energy             -115.123164520753 Eh   ::
         :: zero point energy           0.560342504414 Eh   ::
         :: G(RRHO) w/o ZPVE           -0.063933484806 Eh   ::
         :: G(RRHO) contrib.            0.496409019607 Eh   ::
         :::::::::::::::::::::::::::::::::::::::::::::::::::::

           -------------------------------------------------
          | TOTAL ENERGY             -115.123164520753 Eh   |
          | TOTAL ENTHALPY           -114.525828868426 Eh   |
          | TOTAL FREE ENERGY        -114.626755501146 Eh   |
          | GRADIENT NORM               0.000037915263 Eh/α |
           -------------------------------------------------

 * finished run on 2025/09/12 at 05:12:57.728
