   * xtb version 6.7.1 (edcfbbe) compiled by 'albert@albert-system' on 2024-07-22

   ID    Z sym.   atoms
    1    6 C      1, 2, 4-6, 8-12, 14-19, 21-32, 34, 36, 38
    2    7 N      3, 7, 13, 33, 35, 37
    3    8 O      20
    4    1 H      39-58

          program call               : xtb data2507/toluene/PmPmP/PmPmP_toluene_S0_crest.xyz --gfn 2 --gbsa toluene --ohess vtight --parallel 40 --molden --ceasefiles --namespace data2507/toluene/PmPmP/PmPmP_toluene_S0_finalOpt
      * Solvation model:               GBSA
        Solvent                        toluene
        Solvent mass                       9.2140E+01 g/mol
          :  Hamiltonian                  GFN2-xTB          :
 * total energy  :   -98.2431920 Eh     change       -0.1425491E-08 Eh
 * total energy  :   -98.2432255 Eh     change       -0.3350220E-04 Eh
 * total energy  :   -98.2432365 Eh     change       -0.1103905E-04 Eh
 * total energy  :   -98.2432408 Eh     change       -0.4261767E-05 Eh
 * total energy  :   -98.2432458 Eh     change       -0.5026187E-05 Eh
 * total energy  :   -98.2432506 Eh     change       -0.4838903E-05 Eh
 * total energy  :   -98.2432552 Eh     change       -0.4526539E-05 Eh
 * total energy  :   -98.2432587 Eh     change       -0.3539266E-05 Eh
 * total energy  :   -98.2432618 Eh     change       -0.3085465E-05 Eh
 * total energy  :   -98.2432653 Eh     change       -0.3507793E-05 Eh
 * total energy  :   -98.2433220 Eh     change       -0.6324795E-06 Eh
 * total energy  :   -98.2433226 Eh     change       -0.6178425E-06 Eh
 * total energy  :   -98.2433232 Eh     change       -0.5310089E-06 Eh
 * total energy  :   -98.2433236 Eh     change       -0.4181235E-06 Eh
 * total energy  :   -98.2433239 Eh     change       -0.3183974E-06 Eh
 * total energy  :   -98.2433242 Eh     change       -0.2595797E-06 Eh
 * total energy  :   -98.2433244 Eh     change       -0.2342866E-06 Eh
 * total energy  :   -98.2433246 Eh     change       -0.2182331E-06 Eh
 * total energy  :   -98.2433246 Eh     change       -0.2061924E-08 Eh
   *** GEOMETRY OPTIMIZATION CONVERGED AFTER 44 ITERATIONS ***

 final structure:
================
58
 xtb: 6.7.1 (edcfbbe)
C            6.13790147647173       -3.79958861803710       -1.04431033742324
C            5.27602154972245       -4.88788652736040       -1.03388547260631
N            3.98030952892829       -4.78878830293731       -0.77667366718981
C            3.48418330745929       -3.59353166014670       -0.52298707512809
C            4.25269241657198       -2.42781661696592       -0.51439190889079
C            3.64165704924107       -1.12678601911267       -0.23135185978351
N            2.31717735541901       -1.06425844078753       -0.21406125283075
C            1.74108513531738        0.10938331691682        0.04714772182270
C            0.27772960650642        0.13340372085184        0.06027492183234
C           -0.42436064437970       -0.86789011251598       -0.61481939808518
C           -1.80225804362121       -0.87574249941368       -0.63109612410705
C           -2.51580230556486        0.11713994719302        0.03959211867490
N           -3.92394749280461        0.11456580369740        0.02857136708647
C           -4.63319045490927        1.18410029157700       -0.52771952892937
C           -3.99948248621275        2.25489194486439       -1.14728618132777
C           -4.73253595126185        3.29825563810907       -1.69221574997979
C           -6.11189669112827        3.28535020875137       -1.63860695120611
C           -6.76156115538477        2.20741884916201       -1.05536942657762
C           -6.03435704252710        1.16334979114056       -0.51334200398024
O           -6.75202444341015        0.11535551878823        0.01265029878455
C           -6.04051752304071       -0.93551187168129        0.54264334360852
C           -6.77480689394990       -1.98042470167206        1.07334651376736
C           -6.13251900366791       -3.06063089619650        1.66040405469421
C           -4.75375852910215       -3.07520179000537        1.72871795728160
C           -4.01353558237009       -2.03099594263323        1.19522213195529
C           -4.63973778943652       -0.95763155032339        0.57262450301813
C           -1.82126405304393        1.11187040062049        0.72631694608034
C           -0.44190500093063        1.12117416372314        0.73444879210840
C            2.52383673366455        1.24649258545019        0.27474991842230
C            3.90475205935100        1.08403852452134        0.23008207617480
C            4.83029949363959        2.19767918017728        0.45951835968907
C            6.10194585698835        1.97901376189505        0.99733300454533
N            6.95660554527572        2.96123413690230        1.21535230842439
C            6.55202087162123        4.18238360875942        0.90955148427800
N            5.38376519121644        4.51034794924518        0.38761625168056
C            4.53266777750155        3.52620860428350        0.15365582886850
N            4.46049168211774       -0.10270977956370       -0.01125378544784
C            5.61647653453712       -2.54559222266049       -0.78073521162983
H            7.18714656046011       -3.93195754040315       -1.25678758143786
H            5.63254172354285       -5.88866428149581       -1.24013811282011
H            2.42534983722129       -3.54711905171761       -0.30918591054879
H            0.13546127642280       -1.62698728805701       -1.13812813842532
H           -2.33660511900103       -1.64460095097620       -1.16880909192107
H           -2.92321032058201        2.27018625843702       -1.21321280782669
H           -4.21190500328314        4.11862024350011       -2.16205678811192
H           -6.68786345857012        4.09623452077595       -2.05574363434122
H           -7.83819970811563        2.15355905195833       -1.01586376880371
H           -7.85089706521818       -1.92528971603875        1.02198725492828
H           -6.71374812784089       -3.87231897060196        2.06855031529251
H           -4.23870430699681       -3.89774210249606        2.20074007950798
H           -2.93805080955825       -2.04909301126786        1.27206667633682
H           -2.37246083197640        1.87030879786085        1.26219441007763
H            0.07282093802137        1.88362471017605        1.29864830002312
H            2.08279349691469        2.20775139936318        0.47385188542729
H            6.42476396221879        0.98028331500879        1.25970148850629
H            7.24644415549341        4.99041889259683        1.10009290664850
H            3.59687411208232        3.81421182881344       -0.30898390721012
H            6.23567084846188       -1.66126840065258       -0.78285946477810

          :  Hamiltonian                  GFN2-xTB          :
         :: gradient norm              0.000056178739 Eh/a0 ::
         :: HOMO-LUMO gap              1.099603271886 eV    ::
         :: SCC energy               -99.895514134046 Eh    ::
         :: -> dispersion             -0.075956231445 Eh    ::
         :: -> Gsolv                  -0.043566702468 Eh    ::
         :: repulsion energy           1.652189513740 Eh    ::

    * Orbital Energies and Occupations

         #    Occupation            Energy/Eh            Energy/eV
      -------------------------------------------------------------
         1        2.0000           -0.7326675             -19.9369
       ...           ...                  ...                  ...
        78        2.0000           -0.4316195             -11.7450
        79        2.0000           -0.4275658             -11.6347
        80        2.0000           -0.4242859             -11.5454
        81        2.0000           -0.4239428             -11.5361
        82        2.0000           -0.4202034             -11.4343
        83        2.0000           -0.4187278             -11.3942
        84        2.0000           -0.4164171             -11.3313
        85        2.0000           -0.4156705             -11.3110
        86        2.0000           -0.3934926             -10.7075
        87        2.0000           -0.3892835             -10.5929
        88        2.0000           -0.3846925             -10.4680
        89        2.0000           -0.3779005             -10.2832
        90        2.0000           -0.3475709              -9.4579 (HOMO)
        91                         -0.3071612              -8.3583 (LUMO)
        92                         -0.2956038              -8.0438
        93                         -0.2891056              -7.8670
        94                         -0.2704550              -7.3595
        95                         -0.2576494              -7.0110
        96                         -0.2444374              -6.6515
        97                         -0.2414276              -6.5696
        98                         -0.2331529              -6.3444
        99                         -0.2327428              -6.3333
       100                         -0.2210623              -6.0154
       101                         -0.2140706              -5.8252
       ...                                ...                  ...
       172                          0.6714973              18.2724
      -------------------------------------------------------------
                  HL-Gap            0.0404097 Eh            1.0996 eV

     #   Z          covCN         q      C6AA      α(0)
     1   6 C        2.912    -0.037    28.914     8.817
     2   6 C        2.913     0.062    26.608     8.459
     3   7 N        1.835    -0.225    26.746     7.664
     4   6 C        2.915     0.062    26.600     8.457
     5   6 C        2.980    -0.010    28.262     8.720
     6   6 C        2.945     0.188    23.997     8.034
     7   7 N        1.850    -0.280    28.111     7.858
     8   6 C        2.965     0.115    25.463     8.277
     9   6 C        2.979    -0.002    28.078     8.692
    10   6 C        2.925    -0.023    28.569     8.765
    11   6 C        2.919    -0.038    28.950     8.823
    12   6 C        2.920     0.070    26.425     8.430
    13   7 N        2.750    -0.068    22.554     7.053
    14   6 C        2.921     0.041    27.073     8.533
    15   6 C        2.924    -0.060    29.502     8.907
    16   6 C        2.919    -0.039    28.965     8.826
    17   6 C        2.919    -0.040    28.998     8.831
    18   6 C        2.920    -0.057    29.426     8.896
    19   6 C        2.883     0.123    25.293     8.245
    20   8 O        1.708    -0.270    18.473     5.803
    21   6 C        2.883     0.123    25.298     8.246
    22   6 C        2.919    -0.057    29.423     8.895
    23   6 C        2.919    -0.040    28.990     8.829
    24   6 C        2.919    -0.038    28.953     8.824
    25   6 C        2.924    -0.060    29.491     8.906
    26   6 C        2.921     0.041    27.075     8.533
    27   6 C        2.920    -0.040    28.983     8.828
    28   6 C        2.921    -0.030    28.742     8.792
    29   6 C        2.912    -0.070    29.740     8.942
    30   6 C        2.969     0.108    25.609     8.301
    31   6 C        2.968    -0.012    28.321     8.729
    32   6 C        2.938     0.085    26.107     8.380
    33   7 N        1.833    -0.232    26.921     7.689
    34   6 C        2.924     0.152    24.708     8.151
    35   7 N        1.833    -0.233    26.938     7.691
    36   6 C        2.934     0.075    26.318     8.413
    37   7 N        1.849    -0.288    28.323     7.888
    38   6 C        2.931    -0.010    28.279     8.721
    39   1 H        0.926     0.056     2.245     2.343
    40   1 H        0.925     0.052     2.298     2.371
    41   1 H        0.926     0.057     2.235     2.338
    42   1 H        0.926     0.061     2.190     2.314
    43   1 H        0.926     0.054     2.268     2.355
    44   1 H        0.926     0.040     2.448     2.447
    45   1 H        0.926     0.042     2.421     2.433
    46   1 H        0.926     0.043     2.408     2.427
    47   1 H        0.926     0.049     2.334     2.389
    48   1 H        0.926     0.049     2.332     2.388
    49   1 H        0.926     0.044     2.402     2.424
    50   1 H        0.926     0.043     2.407     2.426
    51   1 H        0.926     0.041     2.430     2.438
    52   1 H        0.926     0.053     2.287     2.365
    53   1 H        0.926     0.048     2.348     2.396
    54   1 H        0.926     0.048     2.343     2.394
    55   1 H        0.925     0.063     2.166     2.302
    56   1 H        0.925     0.056     2.241     2.341
    57   1 H        0.925     0.055     2.264     2.353
    58   1 H        0.926     0.059     2.214     2.327

molecular dipole:
                 x           y           z       tot (Debye)
 q only:       -0.210       0.001      -0.080
   full:       -0.293       0.422      -0.053       1.313

 projected vibrational frequencies (cm⁻¹)
eigval :       -0.00    -0.00    -0.00     0.00     0.00     0.00
eigval :       15.09    16.66    22.64    26.27    40.01    46.94
eigval :       49.48    51.34    63.86    69.59    91.25   101.73
eigval :      117.50   135.16   140.70   178.83   194.73   197.18
eigval :      215.92   241.82   254.62   257.71   266.59   283.82
eigval :      318.57   326.16   349.63   355.31   370.45   376.11
eigval :      378.26   394.14   407.29   423.77   430.16   433.80
eigval :      439.88   449.89   483.06   510.35   523.06   541.18
eigval :      551.45   578.47   586.35   596.29   606.37   608.95
eigval :      631.28   633.56   635.91   637.65   660.37   661.18
eigval :      674.04   684.07   701.07   703.76   705.00   743.56
eigval :      781.14   781.56   794.44   798.06   816.12   826.38
eigval :      836.90   846.14   853.53   862.23   862.64   865.97
eigval :      872.49   898.39   900.04   904.21   914.49   917.54
eigval :      918.52   919.28   920.80   922.04   922.45   924.10
eigval :      931.13   932.98   995.72  1012.79  1020.63  1028.04
eigval :     1086.04  1088.72  1089.83  1090.87  1105.89  1107.02
eigval :     1118.27  1125.05  1134.67  1135.66  1169.61  1174.01
eigval :     1175.68  1180.91  1183.09  1190.10  1194.34  1198.93
eigval :     1219.28  1226.17  1231.10  1241.89  1246.27  1250.00
eigval :     1251.31  1260.08  1262.94  1285.47  1303.87  1305.78
eigval :     1314.77  1332.35  1338.63  1349.60  1353.78  1383.63
eigval :     1394.49  1403.86  1409.43  1422.19  1438.35  1441.12
eigval :     1448.43  1478.54  1478.75  1500.36  1504.28  1520.75
eigval :     1545.64  1552.30  1554.80  1563.46  1566.62  1571.80
eigval :     1578.64  1583.27  1589.02  1601.11  3047.32  3058.89
eigval :     3061.71  3065.00  3073.97  3085.62  3088.65  3088.79
eigval :     3088.88  3091.08  3096.68  3096.87  3097.07  3100.08
eigval :     3105.03  3105.68  3107.45  3109.56  3110.52  3118.88

   temp. (K)  partition function   enthalpy   heat capacity  entropy
                                   cal/mol     cal/K/mol   cal/K/mol   J/K/mol
 298.15  VIB  0.201E+14            16936.239    105.937    105.509
         ROT  0.566E+08              888.752      2.981     38.457
         INT  0.114E+22            17824.992    108.918    143.966
         TR   0.106E+29             1481.254      4.968     44.450
         TOT                       19306.2457   113.8864   188.4163   788.3337

       T/K    H(0)-H(T)+PV         H(T)/Eh          T*S/Eh         G(T)/Eh
   ------------------------------------------------------------------------
    298.15    0.307665E-01    0.458199E+00    0.895226E-01    0.368676E+00
   ------------------------------------------------------------------------

         :::::::::::::::::::::::::::::::::::::::::::::::::::::
         ::                  THERMODYNAMIC                  ::
         :::::::::::::::::::::::::::::::::::::::::::::::::::::
         :: total free energy         -97.874648269496 Eh   ::
         ::.................................................::
         :: total energy              -98.243324624574 Eh   ::
         :: zero point energy           0.427432543370 Eh   ::
         :: G(RRHO) w/o ZPVE           -0.058756188292 Eh   ::
         :: G(RRHO) contrib.            0.368676355078 Eh   ::
         :::::::::::::::::::::::::::::::::::::::::::::::::::::

           -------------------------------------------------
          | TOTAL ENERGY              -98.243324624574 Eh   |
          | TOTAL ENTHALPY            -97.785125620300 Eh   |
          | TOTAL FREE ENERGY         -97.874648269496 Eh   |
          | GRADIENT NORM               0.000056177925 Eh/α |
          | HOMO-LUMO GAP               1.099603172352 eV   |
           -------------------------------------------------

 * finished run on 2025/09/07 at 20:41:07.804
