   * xtb version 6.7.1 (edcfbbe) compiled by 'albert@albert-system' on 2024-07-22

   ID    Z sym.   atoms
    1    6 C      1, 2, 4-6, 8-12, 14-19, 21-32, 34, 36, 38
    2    7 N      3, 7, 13, 33, 35, 37
    3    8 O      20
    4    1 H      39-58

          program call               : xtb data2507/toluene/PmPmP/PmPmP_toluene_S0_finalOpt.xtbopt.xyz --gfn 2 --uhf 2 --gbsa toluene --ohess vtight --parallel 40 --molden --ceasefiles --namespace data2507/toluene/PmPmP/PmPmP_toluene_T1_preOpt
      * Solvation model:               GBSA
        Solvent                        toluene
        Solvent mass                       9.2140E+01 g/mol
          :  Hamiltonian                  GFN2-xTB          :
 * total energy  :   -98.1732728 Eh     change       -0.8890723E-08 Eh
 * total energy  :   -98.1764370 Eh     change       -0.3164183E-02 Eh
 * total energy  :   -98.1778665 Eh     change       -0.1429505E-02 Eh
 * total energy  :   -98.1781187 Eh     change       -0.2521913E-03 Eh
 * total energy  :   -98.1786810 Eh     change       -0.5623827E-03 Eh
 * total energy  :   -98.1789095 Eh     change       -0.2284957E-03 Eh
 * total energy  :   -98.1791932 Eh     change       -0.2836243E-03 Eh
 * total energy  :   -98.1794660 Eh     change       -0.2728050E-03 Eh
 * total energy  :   -98.1796787 Eh     change       -0.2127199E-03 Eh
 * total energy  :   -98.1798702 Eh     change       -0.1915384E-03 Eh
 * total energy  :   -98.1805815 Eh     change       -0.5946870E-06 Eh
 * total energy  :   -98.1805821 Eh     change       -0.5381067E-06 Eh
 * total energy  :   -98.1805826 Eh     change       -0.5003266E-06 Eh
 * total energy  :   -98.1805830 Eh     change       -0.4823801E-06 Eh
 * total energy  :   -98.1805835 Eh     change       -0.4648415E-06 Eh
 * total energy  :   -98.1805839 Eh     change       -0.3996770E-06 Eh
 * total energy  :   -98.1805842 Eh     change       -0.3233766E-06 Eh
 * total energy  :   -98.1805842 Eh     change        0.1564899E-09 Eh
 * total energy  :   -98.1805842 Eh     change       -0.2158444E-08 Eh
   *** GEOMETRY OPTIMIZATION CONVERGED AFTER 69 ITERATIONS ***

 final structure:
================
58
 xtb: 6.7.1 (edcfbbe)
C            6.11877820727986       -3.76872359170272       -1.18605798174291
C            5.24061960120727       -4.83991945886922       -1.27551821735105
N            3.93812942824627       -4.73166065525402       -1.06048888939160
C            3.45432371618445       -3.54529954986109       -0.74743165884886
C            4.23901495235275       -2.39756851911195       -0.63273664265718
C            3.63527532500507       -1.10880693830828       -0.27662613229314
N            2.31437448548427       -1.04236894993811       -0.24942541792254
C            1.72851151727692        0.13965394833298        0.09707527703539
C            0.27643532708484        0.16160783418745        0.10164969108219
C           -0.42229551621409       -0.85702465070657       -0.56476007773227
C           -1.79747571959046       -0.87355691802482       -0.59722493210413
C           -2.52019965449137        0.12649481599674        0.05182558206419
N           -3.93900401116665        0.11338666606374        0.02711767027543
C           -4.63658855225508        1.10189404973417       -0.64955858067117
C           -3.99299238893854        2.11660728123634       -1.35805120041835
C           -4.72482178155368        3.08972966930284       -2.01202326595472
C           -6.11142394024555        3.06881391379209       -1.98193265352522
C           -6.76967535602016        2.05596300918532       -1.30663070930798
C           -6.04421637951804        1.07444849023684       -0.64899322958903
O           -6.74863844097484        0.08937866337918       -0.02040832312728
C           -6.04892826711822       -0.88536726646665        0.62973372585242
C           -6.77946951358028       -1.87985882869128        1.26169850334338
C           -6.12712139145626       -2.88313874874587        1.95674188080384
C           -4.74203714875250       -2.88152422472555        2.03231893928277
C           -4.00506117484802       -1.89506266437269        1.40466856021257
C           -4.64183922977716       -0.88942045303347        0.67734779288771
C           -1.84312218149314        1.13742469161883        0.73144944957687
C           -0.46592550367995        1.15529428594613        0.75408509518402
C            2.51270782186699        1.23855918294139        0.39589160367489
C            3.91125347717657        1.10733798452491        0.33381102718054
C            4.81384632071697        2.17319455143862        0.59780201906925
C            6.21638460948891        1.96521749791571        0.53242192075100
N            7.08923863591223        2.90697933946294        0.76021695949483
C            6.64038805120694        4.12171051985610        1.07032363630788
N            5.35493535649928        4.43996290089178        1.16626627848905
C            4.46537607951627        3.50397647809745        0.93956921275918
N            4.44302424878728       -0.10714448408647       -0.00528213770784
C            5.60752704161767       -2.52519826938530       -0.85973111700233
H            7.17318228697833       -3.90636358974289       -1.36880487576784
H            5.58880450524488       -5.83255578839420       -1.52990706629073
H            2.38875097582277       -3.48922803651233       -0.57112403138785
H            0.14846278435173       -1.62318213519766       -1.06531670136587
H           -2.32220943500605       -1.65433703116903       -1.12767526807895
H           -2.91577236240801        2.13308206312737       -1.39577447041923
H           -4.20629592435214        3.86732816032216       -2.55061714913714
H           -6.67980348383763        3.83147786870701       -2.48965119002838
H           -7.84612771524414        2.00232063753866       -1.27784524559292
H           -7.85511803714323       -1.84384926696712        1.19724287378632
H           -6.69923531736138       -3.65613040788902        2.44423844723215
H           -4.22855125641639       -3.65193378441939        2.58575208465394
H           -2.92951403269666       -1.89514760476891        1.47687859133888
H           -2.40533871442504        1.90079782391566        1.24903967309782
H            0.03671311550240        1.93504406046172        1.30467545815788
H            2.07124242571114        2.18879036073650        0.64561654182959
H            6.58921397649798        0.97984806378591        0.28374257374431
H            7.36820758873691        4.89622074982143        1.25579641744986
H            3.43371185629791        3.81885038813852        1.02931174772630
H            6.24073705408273       -1.65415827535117       -0.77890484998614

          :  Hamiltonian                  GFN2-xTB          :
         :: gradient norm              0.000053505528 Eh/a0 ::
         :: HOMO-LUMO gap              0.388081928170 eV    ::
         :: SCC energy               -99.825777130270 Eh    ::
         :: -> dispersion             -0.076091848865 Eh    ::
         :: -> Gsolv                  -0.050954516077 Eh    ::
         :: repulsion energy           1.645192891461 Eh    ::

    * Orbital Energies and Occupations

         #    Occupation            Energy/Eh            Energy/eV
      -------------------------------------------------------------
         1        2.0000           -0.7584316             -20.6380
       ...           ...                  ...                  ...
        79        2.0000           -0.4342837             -11.8175
        80        2.0000           -0.4222923             -11.4912
        81        2.0000           -0.4205242             -11.4430
        82        2.0000           -0.4135709             -11.2538
        83        2.0000           -0.4103016             -11.1649
        84        2.0000           -0.4090166             -11.1299
        85        2.0000           -0.4043471             -11.0028
        86        2.0000           -0.4025280             -10.9533
        87        2.0000           -0.3776122             -10.2754
        88        1.9924           -0.3691117             -10.0440
        89        1.5788           -0.3647845              -9.9263
        90        1.4288           -0.3642099              -9.9107
        91        0.9995           -0.2934182              -7.9843 (HOMO)
        92        0.0005           -0.2791563              -7.5962 (LUMO)
        93                         -0.2622911              -7.1373
        94                         -0.2609249              -7.1001
        95                         -0.2588863              -7.0447
        96                         -0.2513481              -6.8395
        97                         -0.2497241              -6.7953
        98                         -0.2385055              -6.4901
        99                         -0.2354652              -6.4073
       100                         -0.2184140              -5.9433
       101                         -0.2084673              -5.6727
       102                         -0.2017254              -5.4892
       ...                                ...                  ...
       172                          0.6839644              18.6116
      -------------------------------------------------------------
                  HL-Gap            0.0142619 Eh            0.3881 eV

     #   Z          covCN         q      C6AA      α(0)
     1   6 C        2.912    -0.039    28.962     8.825
     2   6 C        2.913     0.059    26.668     8.468
     3   7 N        1.835    -0.229    26.849     7.679
     4   6 C        2.917     0.061    26.625     8.461
     5   6 C        2.980    -0.008    28.202     8.711
     6   6 C        2.904     0.192    23.918     8.019
     7   7 N        1.849    -0.305    28.759     7.948
     8   6 C        2.946     0.087    26.073     8.375
     9   6 C        2.976     0.000    28.014     8.682
    10   6 C        2.926    -0.029    28.727     8.790
    11   6 C        2.917    -0.038    28.946     8.823
    12   6 C        2.923     0.047    26.952     8.514
    13   7 N        2.752    -0.019    21.612     6.905
    14   6 C        2.925     0.046    26.977     8.518
    15   6 C        2.920    -0.050    29.234     8.867
    16   6 C        2.918    -0.028    28.709     8.786
    17   6 C        2.919    -0.028    28.695     8.784
    18   6 C        2.917    -0.050    29.250     8.869
    19   6 C        2.885     0.132    25.114     8.216
    20   8 O        1.709    -0.223    17.702     5.681
    21   6 C        2.885     0.132    25.115     8.216
    22   6 C        2.917    -0.050    29.248     8.868
    23   6 C        2.919    -0.027    28.688     8.783
    24   6 C        2.918    -0.028    28.700     8.785
    25   6 C        2.920    -0.049    29.227     8.866
    26   6 C        2.925     0.046    26.977     8.518
    27   6 C        2.917    -0.039    28.964     8.825
    28   6 C        2.921    -0.036    28.903     8.816
    29   6 C        2.911    -0.062    29.542     8.913
    30   6 C        2.942     0.073    26.368     8.422
    31   6 C        2.964    -0.030    28.737     8.793
    32   6 C        2.928     0.074    26.345     8.418
    33   7 N        1.832    -0.233    26.957     7.694
    34   6 C        2.905     0.122    25.319     8.251
    35   7 N        1.832    -0.243    27.198     7.728
    36   6 C        2.922     0.061    26.639     8.464
    37   7 N        1.849    -0.298    28.564     7.921
    38   6 C        2.932    -0.012    28.306     8.725
    39   1 H        0.926     0.051     2.302     2.373
    40   1 H        0.925     0.048     2.344     2.394
    41   1 H        0.925     0.054     2.276     2.359
    42   1 H        0.926     0.054     2.274     2.358
    43   1 H        0.926     0.050     2.322     2.383
    44   1 H        0.926     0.056     2.249     2.345
    45   1 H        0.926     0.058     2.224     2.332
    46   1 H        0.926     0.061     2.190     2.314
    47   1 H        0.926     0.067     2.119     2.276
    48   1 H        0.926     0.067     2.118     2.276
    49   1 H        0.926     0.061     2.185     2.311
    50   1 H        0.926     0.059     2.211     2.325
    51   1 H        0.926     0.057     2.235     2.338
    52   1 H        0.926     0.048     2.344     2.394
    53   1 H        0.926     0.039     2.457     2.451
    54   1 H        0.926     0.027     2.625     2.534
    55   1 H        0.925     0.047     2.357     2.401
    56   1 H        0.926     0.035     2.515     2.480
    57   1 H        0.925     0.033     2.543     2.494
    58   1 H        0.926     0.050     2.318     2.381

molecular dipole:
                 x           y           z       tot (Debye)
 q only:       -5.897      -0.736      -0.281
   full:       -5.869      -0.356      -0.214      14.956

 projected vibrational frequencies (cm⁻¹)
eigval :       -0.00    -0.00     0.00     0.00     0.00     0.00
eigval :        9.47    17.11    21.89    38.68    39.32    42.45
eigval :       48.63    55.57    59.09    70.45    91.21    99.25
eigval :      109.90   132.06   151.50   167.03   178.71   204.49
eigval :      206.69   240.30   248.65   258.32   267.97   288.34
eigval :      316.91   339.43   353.90   369.72   373.78   379.21
eigval :      390.42   391.75   403.00   419.96   422.81   426.65
eigval :      431.33   459.68   476.73   496.12   527.88   535.97
eigval :      542.63   571.04   572.39   585.96   593.76   600.88
eigval :      600.98   608.98   612.31   629.18   657.80   667.19
eigval :      670.47   671.78   673.17   686.53   688.86   693.95
eigval :      769.11   774.55   777.11   791.89   793.11   804.93
eigval :      812.98   823.64   830.31   841.25   855.93   856.39
eigval :      866.94   868.95   872.11   901.31   901.69   903.54
eigval :      906.60   913.65   914.51   915.09   917.10   917.77
eigval :      920.50   928.19   961.16   965.07  1000.85  1007.11
eigval :     1063.32  1078.20  1082.86  1083.91  1085.40  1106.49
eigval :     1113.69  1120.64  1122.33  1127.93  1142.80  1160.43
eigval :     1167.47  1170.27  1180.13  1184.71  1194.51  1201.94
eigval :     1208.94  1215.88  1230.34  1235.88  1247.11  1252.68
eigval :     1258.96  1266.51  1276.53  1289.65  1292.94  1303.10
eigval :     1305.05  1306.50  1314.71  1322.69  1332.99  1343.38
eigval :     1353.54  1383.56  1400.70  1414.34  1420.17  1429.23
eigval :     1433.48  1438.37  1445.27  1448.04  1466.95  1467.73
eigval :     1477.07  1517.93  1523.73  1551.56  1560.69  1561.26
eigval :     1566.51  1568.74  1578.94  1583.18  3040.46  3047.50
eigval :     3056.46  3068.07  3082.24  3083.92  3085.17  3085.51
eigval :     3095.78  3096.54  3098.47  3099.33  3105.39  3105.73
eigval :     3106.28  3107.09  3113.71  3114.43  3116.98  3117.62

   temp. (K)  partition function   enthalpy   heat capacity  entropy
                                   cal/mol     cal/K/mol   cal/K/mol   J/K/mol
 298.15  VIB  0.309E+14            17126.450    107.584    106.933
         ROT  0.567E+08              888.752      2.981     38.458
         INT  0.175E+22            18015.202    110.565    145.391
         TR   0.106E+29             1481.254      4.968     44.450
         TOT                       19496.4562   115.5335   189.8414   794.2964

       T/K    H(0)-H(T)+PV         H(T)/Eh          T*S/Eh         G(T)/Eh
   ------------------------------------------------------------------------
    298.15    0.310696E-01    0.454836E+00    0.901998E-01    0.364636E+00
   ------------------------------------------------------------------------

         :::::::::::::::::::::::::::::::::::::::::::::::::::::
         ::                  THERMODYNAMIC                  ::
         :::::::::::::::::::::::::::::::::::::::::::::::::::::
         :: total free energy         -97.815947792314 Eh   ::
         ::.................................................::
         :: total energy              -98.180584237368 Eh   ::
         :: zero point energy           0.423766636470 Eh   ::
         :: G(RRHO) w/o ZPVE           -0.059130191416 Eh   ::
         :: G(RRHO) contrib.            0.364636445054 Eh   ::
         :::::::::::::::::::::::::::::::::::::::::::::::::::::

           -------------------------------------------------
          | TOTAL ENERGY              -98.180584237368 Eh   |
          | TOTAL ENTHALPY            -97.725748020309 Eh   |
          | TOTAL FREE ENERGY         -97.815947792314 Eh   |
          | GRADIENT NORM               0.000049734941 Eh/α |
          | HOMO-LUMO GAP               0.388084988556 eV   |
           -------------------------------------------------

 * finished run on 2025/09/07 at 20:41:14.221
