   * xtb version 6.7.1 (edcfbbe) compiled by 'albert@albert-system' on 2024-07-22

   ID    Z sym.   atoms
    1    6 C      1, 2, 4-6, 8-12, 14-19, 21-32, 34, 36, 38
    2    7 N      3, 7, 13, 33, 35, 37
    3    8 O      20
    4    1 H      39-58

          program call               : xtb data2507/toluene/PmPmP/PmPmP.xyz --gfn 2 --gbsa toluene --ohess vtight --parallel 40 --molden --ceasefiles --namespace data2507/toluene/PmPmP/PmPmP_toluene_S0_preOpt
      * Solvation model:               GBSA
        Solvent                        toluene
        Solvent mass                       9.2140E+01 g/mol
          :  Hamiltonian                  GFN2-xTB          :
 * total energy  :   -98.2258953 Eh     change       -0.4239283E-08 Eh
 * total energy  :   -98.2372009 Eh     change       -0.1130552E-01 Eh
 * total energy  :   -98.2403031 Eh     change       -0.3102273E-02 Eh
 * total energy  :   -98.2411418 Eh     change       -0.8386914E-03 Eh
 * total energy  :   -98.2416509 Eh     change       -0.5090938E-03 Eh
 * total energy  :   -98.2418210 Eh     change       -0.1700663E-03 Eh
 * total energy  :   -98.2419044 Eh     change       -0.8340769E-04 Eh
 * total energy  :   -98.2419641 Eh     change       -0.5970498E-04 Eh
 * total energy  :   -98.2420212 Eh     change       -0.5706862E-04 Eh
 * total energy  :   -98.2421275 Eh     change       -0.1063761E-03 Eh
 * total energy  :   -98.2432109 Eh     change       -0.5208747E-06 Eh
 * total energy  :   -98.2432114 Eh     change       -0.5117529E-06 Eh
 * total energy  :   -98.2432119 Eh     change       -0.4944556E-06 Eh
 * total energy  :   -98.2432124 Eh     change       -0.4995994E-06 Eh
 * total energy  :   -98.2432129 Eh     change       -0.5423022E-06 Eh
 * total energy  :   -98.2432135 Eh     change       -0.6036624E-06 Eh
 * total energy  :   -98.2432141 Eh     change       -0.6279227E-06 Eh
 * total energy  :   -98.2432147 Eh     change       -0.5795340E-06 Eh
 * total energy  :   -98.2432147 Eh     change       -0.2787573E-08 Eh
   *** GEOMETRY OPTIMIZATION CONVERGED AFTER 68 ITERATIONS ***

 final structure:
================
58
 xtb: 6.7.1 (edcfbbe)
C            6.41416142843762       -3.58320602260618       -0.84466048958109
C            5.56901906907605       -4.64505713357127       -1.13714317414461
N            4.24786872952073       -4.54816126857828       -1.12831538560164
C            3.70996514707325       -3.38175730113726       -0.82948780962448
C            4.45916097383782       -2.24375239896936       -0.52382015623097
C            3.80346712481408       -0.97229374553367       -0.20717369549753
N            2.47759132345984       -0.95087516604719       -0.20016649656568
C            1.86161588317355        0.20002314174703        0.07181174760225
C            0.39809504901054        0.17923610811433        0.06311450351990
C           -0.26404083400580       -0.85607936933570       -0.60123108952594
C           -1.64066150660746       -0.91009364621185       -0.63207359537781
C           -2.39373303447568        0.07187887478838        0.01046921519355
N           -3.80108014358610        0.02262268047634       -0.01369244113047
C           -4.53817640075284        1.05506983417424       -0.60227838711899
C           -3.93197642814455        2.12182084422241       -1.25533382699085
C           -4.69178984997626        3.12793266945130       -1.83273107925344
C           -6.07039286865391        3.08018871952949       -1.77887187065245
C           -6.69215244181007        2.00468615168765       -1.16155615171264
C           -5.93826446913067        0.99787690787513       -0.58662337168234
O           -6.62792111121768       -0.05103947756411       -0.02595555002783
C           -5.88874179589377       -1.06585483310002        0.53586629009866
C           -6.59504834094532       -2.11171871677889        1.10143318304286
C           -5.92422146900328       -3.15684757927542        1.71939309689712
C           -4.54536043015462       -3.13515984885557        1.78272259207375
C           -3.83299292790753       -2.08942865073403        1.21529864552848
C           -4.48775886067250       -1.05119187816008        0.56333906957212
C           -1.73998324662419        1.10293351312790        0.68328049877038
C           -0.36192434398580        1.15604373302996        0.70878711765654
C            2.60682139687127        1.35460522228529        0.33603951979853
C            3.99242912508042        1.23027174179694        0.32536103372693
C            4.87963040516935        2.36543885609857        0.59701817420221
C            6.15546372568302        2.43779523263946        0.03086661546882
N            6.97619225056433        3.44571354433963        0.26165258155138
C            6.53286680992295        4.40597293929403        1.05524492039867
N            5.35677719687061        4.44216212538221        1.65545476651483
C            4.53987383171755        3.42593105007286        1.43789999716593
N            4.58740740982930        0.07038754411107        0.05090587351922
C            5.84906695969672       -2.35994533462401       -0.53179895503787
H            7.48493956669629       -3.71279166382197       -0.86128688970391
H            5.96053897266500       -5.62198352825103       -1.38934107202893
H            2.62999696956114       -3.33704440269665       -0.82732276275805
H            0.32567501106025       -1.60621962298992       -1.10374406806514
H           -2.14338801959873       -1.70673830243036       -1.15971928053821
H           -2.85630192483590        2.16315364745608       -1.32115500901316
H           -4.19261907622731        3.94640232660357       -2.32843712591086
H           -6.66701180149615        3.86206936034716       -2.22164686240203
H           -7.76704817511950        1.92410032156255       -1.12018222353392
H           -7.67233176206678       -2.08512516274222        1.05226328475824
H           -6.48379938937425       -3.96936121777567        2.15524327540900
H           -4.00855318795029       -3.93006484958623        2.27729884505635
H           -2.75717508631440       -2.07851986860126        1.28874047508396
H           -2.32207059691064        1.85476420148926        1.19527195314424
H            0.11949442599826        1.94679688458451        1.26294793971620
H            2.13681031427089        2.30773910409554        0.50610219134894
H            6.50991057873924        1.65838012847665       -0.63027847107449
H            7.19947500114776        5.23933211901736        1.23553085524283
H            3.59696589895377        3.45841609072107        1.96938555297627
H            6.45523894454082       -1.49943562862070       -0.29271552424628

          :  Hamiltonian                  GFN2-xTB          :
         :: gradient norm              0.000039335459 Eh/a0 ::
         :: HOMO-LUMO gap              1.098121254637 eV    ::
         :: SCC energy               -99.895437656880 Eh    ::
         :: -> dispersion             -0.076033758869 Eh    ::
         :: -> Gsolv                  -0.043529773978 Eh    ::
         :: repulsion energy           1.652222943357 Eh    ::

    * Orbital Energies and Occupations

         #    Occupation            Energy/Eh            Energy/eV
      -------------------------------------------------------------
         1        2.0000           -0.7326090             -19.9353
       ...           ...                  ...                  ...
        78        2.0000           -0.4315991             -11.7444
        79        2.0000           -0.4276750             -11.6376
        80        2.0000           -0.4243486             -11.5471
        81        2.0000           -0.4237835             -11.5317
        82        2.0000           -0.4207300             -11.4486
        83        2.0000           -0.4187194             -11.3939
        84        2.0000           -0.4161146             -11.3231
        85        2.0000           -0.4156413             -11.3102
        86        2.0000           -0.3935275             -10.7084
        87        2.0000           -0.3894837             -10.5984
        88        2.0000           -0.3848448             -10.4722
        89        2.0000           -0.3776874             -10.2774
        90        2.0000           -0.3475414              -9.4571 (HOMO)
        91                         -0.3071862              -8.3590 (LUMO)
        92                         -0.2962253              -8.0607
        93                         -0.2892791              -7.8717
        94                         -0.2713031              -7.3825
        95                         -0.2576365              -7.0106
        96                         -0.2445528              -6.6546
        97                         -0.2414071              -6.5690
        98                         -0.2328748              -6.3368
        99                         -0.2326220              -6.3300
       100                         -0.2206815              -6.0050
       101                         -0.2137134              -5.8154
       ...                                ...                  ...
       172                          0.6717607              18.2795
      -------------------------------------------------------------
                  HL-Gap            0.0403552 Eh            1.0981 eV

     #   Z          covCN         q      C6AA      α(0)
     1   6 C        2.912    -0.037    28.915     8.818
     2   6 C        2.913     0.062    26.605     8.458
     3   7 N        1.835    -0.225    26.754     7.665
     4   6 C        2.915     0.062    26.600     8.457
     5   6 C        2.979    -0.010    28.270     8.722
     6   6 C        2.944     0.187    24.001     8.035
     7   7 N        1.850    -0.280    28.105     7.857
     8   6 C        2.964     0.115    25.465     8.277
     9   6 C        2.979    -0.002    28.078     8.692
    10   6 C        2.925    -0.022    28.564     8.765
    11   6 C        2.919    -0.038    28.948     8.823
    12   6 C        2.920     0.071    26.421     8.429
    13   7 N        2.751    -0.068    22.559     7.054
    14   6 C        2.921     0.041    27.072     8.532
    15   6 C        2.924    -0.060    29.500     8.907
    16   6 C        2.919    -0.039    28.965     8.826
    17   6 C        2.919    -0.040    28.998     8.831
    18   6 C        2.919    -0.057    29.427     8.896
    19   6 C        2.883     0.123    25.293     8.245
    20   8 O        1.708    -0.270    18.474     5.803
    21   6 C        2.883     0.123    25.298     8.246
    22   6 C        2.919    -0.057    29.423     8.895
    23   6 C        2.919    -0.040    28.992     8.830
    24   6 C        2.919    -0.038    28.953     8.824
    25   6 C        2.924    -0.060    29.494     8.906
    26   6 C        2.921     0.041    27.073     8.533
    27   6 C        2.920    -0.039    28.981     8.828
    28   6 C        2.921    -0.030    28.740     8.791
    29   6 C        2.912    -0.070    29.739     8.942
    30   6 C        2.969     0.108    25.610     8.301
    31   6 C        2.968    -0.012    28.319     8.729
    32   6 C        2.938     0.085    26.103     8.379
    33   7 N        1.833    -0.232    26.918     7.688
    34   6 C        2.924     0.152    24.707     8.151
    35   7 N        1.833    -0.232    26.935     7.691
    36   6 C        2.934     0.076    26.314     8.413
    37   7 N        1.849    -0.288    28.316     7.887
    38   6 C        2.931    -0.011    28.282     8.722
    39   1 H        0.926     0.056     2.246     2.343
    40   1 H        0.925     0.052     2.299     2.371
    41   1 H        0.926     0.057     2.232     2.336
    42   1 H        0.926     0.061     2.189     2.314
    43   1 H        0.926     0.054     2.265     2.353
    44   1 H        0.926     0.040     2.453     2.449
    45   1 H        0.926     0.042     2.424     2.435
    46   1 H        0.926     0.043     2.409     2.427
    47   1 H        0.926     0.049     2.333     2.389
    48   1 H        0.926     0.049     2.332     2.388
    49   1 H        0.926     0.043     2.403     2.424
    50   1 H        0.926     0.043     2.409     2.427
    51   1 H        0.926     0.041     2.431     2.438
    52   1 H        0.926     0.053     2.288     2.366
    53   1 H        0.926     0.048     2.346     2.395
    54   1 H        0.926     0.048     2.343     2.394
    55   1 H        0.925     0.062     2.172     2.305
    56   1 H        0.925     0.057     2.240     2.340
    57   1 H        0.925     0.054     2.269     2.355
    58   1 H        0.926     0.059     2.206     2.323

molecular dipole:
                 x           y           z       tot (Debye)
 q only:       -0.191      -0.012      -0.033
   full:       -0.282       0.390       0.089       1.243

 projected vibrational frequencies (cm⁻¹)
eigval :       -0.00    -0.00     0.00     0.00     0.00     0.00
eigval :       15.55    16.48    21.74    30.12    40.66    41.19
eigval :       51.03    52.57    63.34    65.32    93.81    99.23
eigval :      116.78   135.28   145.35   176.77   192.03   203.18
eigval :      210.99   242.11   254.25   259.51   265.71   284.08
eigval :      316.37   331.63   350.86   355.52   365.28   376.19
eigval :      378.94   395.05   412.09   419.94   427.36   432.61
eigval :      439.99   447.84   487.87   509.97   522.75   543.49
eigval :      547.42   578.46   586.07   596.67   606.82   608.26
eigval :      631.30   634.19   635.57   637.49   660.11   660.99
eigval :      674.09   684.12   700.73   704.08   705.67   742.82
eigval :      779.74   780.71   794.33   798.65   816.09   827.37
eigval :      838.40   844.49   853.40   862.17   862.61   865.42
eigval :      872.00   897.79   899.39   901.32   914.19   916.59
eigval :      917.45   919.79   920.66   922.34   923.72   926.32
eigval :      931.18   933.10   995.97  1012.66  1020.13  1027.87
eigval :     1085.97  1088.49  1089.40  1090.52  1105.79  1106.87
eigval :     1118.02  1125.23  1135.02  1135.89  1168.83  1173.15
eigval :     1173.18  1180.58  1182.78  1190.78  1194.54  1198.27
eigval :     1218.93  1224.78  1230.82  1241.43  1246.32  1248.03
eigval :     1251.37  1259.68  1263.36  1286.56  1303.92  1305.99
eigval :     1314.99  1332.52  1338.55  1349.33  1353.72  1383.14
eigval :     1393.71  1404.06  1409.60  1422.01  1438.74  1440.95
eigval :     1448.09  1478.59  1478.76  1500.33  1504.28  1520.65
eigval :     1544.99  1552.43  1554.89  1563.68  1566.55  1572.57
eigval :     1578.67  1583.51  1589.10  1601.17  3048.02  3060.26
eigval :     3061.89  3066.18  3077.60  3086.56  3087.21  3088.97
eigval :     3090.62  3091.57  3096.23  3096.85  3098.24  3101.00
eigval :     3104.90  3105.62  3109.38  3110.27  3110.42  3118.34

   temp. (K)  partition function   enthalpy   heat capacity  entropy
                                   cal/mol     cal/K/mol   cal/K/mol   J/K/mol
 298.15  VIB  0.200E+14            16940.737    105.895    105.501
         ROT  0.567E+08              888.752      2.981     38.458
         INT  0.113E+22            17829.490    108.876    143.959
         TR   0.106E+29             1481.254      4.968     44.450
         TOT                       19310.7436   113.8442   188.4097   788.3063

       T/K    H(0)-H(T)+PV         H(T)/Eh          T*S/Eh         G(T)/Eh
   ------------------------------------------------------------------------
    298.15    0.307736E-01    0.458194E+00    0.895195E-01    0.368674E+00
   ------------------------------------------------------------------------

         :::::::::::::::::::::::::::::::::::::::::::::::::::::
         ::                  THERMODYNAMIC                  ::
         :::::::::::::::::::::::::::::::::::::::::::::::::::::
         :: total free energy         -97.874540488245 Eh   ::
         ::.................................................::
         :: total energy              -98.243214715062 Eh   ::
         :: zero point energy           0.427420137737 Eh   ::
         :: G(RRHO) w/o ZPVE           -0.058745910919 Eh   ::
         :: G(RRHO) contrib.            0.368674226817 Eh   ::
         :::::::::::::::::::::::::::::::::::::::::::::::::::::

           -------------------------------------------------
          | TOTAL ENERGY              -98.243214715062 Eh   |
          | TOTAL ENTHALPY            -97.785020948645 Eh   |
          | TOTAL FREE ENERGY         -97.874540488245 Eh   |
          | GRADIENT NORM               0.000039339208 Eh/α |
          | HOMO-LUMO GAP               1.098121036283 eV   |
           -------------------------------------------------

 * finished run on 2025/09/07 at 20:38:28.198
