   * xtb version 6.7.1 (edcfbbe) compiled by 'albert@albert-system' on 2024-07-22

   ID    Z sym.   atoms
    1    6 C      1, 2, 4-6, 8-12, 14-19, 21-32, 34, 36, 38
    2    7 N      3, 7, 13, 33, 35, 37
    3    8 O      20
    4    1 H      39-58

          program call               : xtb data2507/toluene/PmPmP/PmPmP_toluene_T1_crest.xyz --gfn 2 --uhf 2 --gbsa toluene --ohess vtight --parallel 40 --molden --ceasefiles --namespace data2507/toluene/PmPmP/PmPmP_toluene_T1_finalOpt
      * Solvation model:               GBSA
        Solvent                        toluene
        Solvent mass                       9.2140E+01 g/mol
          :  Hamiltonian                  GFN2-xTB          :
 * total energy  :   -98.1805460 Eh     change       -0.5648478E-07 Eh
 * total energy  :   -98.1806646 Eh     change       -0.1185661E-03 Eh
 * total energy  :   -98.1807064 Eh     change       -0.4184207E-04 Eh
 * total energy  :   -98.1807105 Eh     change       -0.4133633E-05 Eh
 * total energy  :   -98.1807124 Eh     change       -0.1914843E-05 Eh
 * total energy  :   -98.1807143 Eh     change       -0.1843991E-05 Eh
 * total energy  :   -98.1807163 Eh     change       -0.2050391E-05 Eh
 * total energy  :   -98.1807183 Eh     change       -0.1935410E-05 Eh
 * total energy  :   -98.1807197 Eh     change       -0.1421126E-05 Eh
 * total energy  :   -98.1807210 Eh     change       -0.1268634E-05 Eh
 * total energy  :   -98.1807306 Eh     change       -0.1469461E-06 Eh
 * total energy  :   -98.1807308 Eh     change       -0.2058607E-06 Eh
 * total energy  :   -98.1807311 Eh     change       -0.2697053E-06 Eh
 * total energy  :   -98.1807313 Eh     change       -0.2808147E-06 Eh
 * total energy  :   -98.1807316 Eh     change       -0.2518752E-06 Eh
 * total energy  :   -98.1807318 Eh     change       -0.1933917E-06 Eh
 * total energy  :   -98.1807319 Eh     change       -0.1358402E-06 Eh
 * total energy  :   -98.1807320 Eh     change       -0.1031116E-06 Eh
 * total energy  :   -98.1807321 Eh     change       -0.8036544E-07 Eh
   *** GEOMETRY OPTIMIZATION CONVERGED AFTER 35 ITERATIONS ***

 final structure:
================
58
 xtb: 6.7.1 (edcfbbe)
C            6.09093150698683       -3.90102866237676        0.77041526045666
C            5.19112260154902       -4.92246499024781        1.04150041652093
N            3.87808895568945       -4.74927624962085        1.05341400590903
C            3.40529639000635       -3.54549663526646        0.79515279579315
C            4.21169657903202       -2.44418010556929        0.50821570511538
C            3.62216856819977       -1.12948023732618        0.22980320619363
N            2.30433310130288       -1.04035861423393        0.21822638250044
C            1.72690001843919        0.17065358481965       -0.03865412727723
C            0.27743338105937        0.20338749819287       -0.04501397409378
C           -0.42834318771272       -0.98017419354374        0.23195564972309
C           -1.80289449036157       -1.00889339416909        0.24049906269421
C           -2.52282807620419        0.15363979550119       -0.03006957999670
N           -3.94344661653958        0.13372981312996       -0.02321424687894
C           -4.63836028100571       -0.49278500048662       -1.04430239498195
C           -3.99104355115313       -1.10035759674711       -2.12005074171186
C           -4.72033003606998       -1.71455881165613       -3.12053399118098
C           -6.10672937111978       -1.73167965449215       -3.07337441389500
C           -6.76846756442491       -1.12026144935972       -2.02270304241895
C           -6.04611545224063       -0.50063925876065       -1.01467572039303
O           -6.75185121230396        0.10055380335530       -0.01309671421691
C           -6.05337990343880        0.71388468680388        0.98603814144195
C           -6.78265414985493        1.31418140755720        2.00078308788638
C           -6.12780003731338        1.93654755554013        3.04934296047244
C           -4.74109317836314        1.94944435101921        3.08785668761037
C           -4.00503876637251        1.35524601947207        2.08028508357935
C           -4.64568948226211        0.73807873949978        1.00603163727482
C           -1.84328194172075        1.33749033271861       -0.30893615527883
C           -0.46634240221579        1.36147575995776       -0.31728817070683
C            2.53131151092908        1.27349286666081       -0.27447272375703
C            3.92495211135291        1.11524391690367       -0.24292542017319
C            4.84270148918205        2.18130754030692       -0.46347780843966
C            6.24121236562296        1.94874679068063       -0.42405166028113
N            7.12734627753231        2.88748090987390       -0.61602356520214
C            6.69236683115489        4.12150155680311       -0.86026721707475
N            5.41173919699583        4.46494966564159       -0.92475821689231
C            4.51047587362754        3.53116217323364       -0.73369592381148
N            4.44440007035816       -0.12448489059372        0.01408972506281
C            5.59099708519281       -2.64019656082327        0.49786209864541
H            7.15316610654152       -4.09008237188470        0.77188093561088
H            5.52964193876468       -5.92695287182972        1.25974929000306
H            2.32980623123380       -3.43599568948504        0.81419840778824
H            0.14091888324135       -1.87136620840787        0.44250045676273
H           -2.33013998936350       -1.92543564210240        0.46051044442665
H           -2.91400715311806       -1.08304926657869       -2.16550871854617
H           -4.20040306893358       -2.18079047275763       -3.94263009759447
H           -6.67288398768080       -2.21295710038341       -3.85463817326283
H           -7.84492636098976       -1.10758432486706       -1.96355635086343
H           -7.85892965807224        1.27775491976977        1.94865619248595
H           -6.69929309395444        2.40274371778333        3.83585422680233
H           -4.22636902996962        2.42298386747892        3.90909688990722
H           -2.92761721558942        1.35978432792372        2.11915421678606
H           -2.40405414887581        2.23540728949965       -0.52382782942944
H            0.03142090856480        2.29108417475111       -0.54278892272268
H            2.10875161276811        2.24261733732178       -0.47820546360901
H            6.60249776114400        0.94807644757961       -0.22490320854410
H            7.43000989582994        4.89339658995605       -1.01702305835113
H            3.48299008673460        3.86584807977430       -0.79586496751030
H            6.24124967448866       -1.80659511574121        0.27816773054282

          :  Hamiltonian                  GFN2-xTB          :
         :: gradient norm              0.000069787751 Eh/a0 ::
         :: HOMO-LUMO gap              0.385073771569 eV    ::
         :: SCC energy               -99.825921309767 Eh    ::
         :: -> dispersion             -0.076101308595 Eh    ::
         :: -> Gsolv                  -0.050935953940 Eh    ::
         :: repulsion energy           1.645189209789 Eh    ::

    * Orbital Energies and Occupations

         #    Occupation            Energy/Eh            Energy/eV
      -------------------------------------------------------------
         1        2.0000           -0.7586869             -20.6449
       ...           ...                  ...                  ...
        79        2.0000           -0.4345465             -11.8246
        80        2.0000           -0.4218349             -11.4787
        81        2.0000           -0.4208220             -11.4512
        82        2.0000           -0.4131084             -11.2413
        83        2.0000           -0.4102982             -11.1648
        84        2.0000           -0.4092881             -11.1373
        85        2.0000           -0.4038151             -10.9884
        86        2.0000           -0.4025028             -10.9527
        87        2.0000           -0.3780755             -10.2880
        88        1.9923           -0.3692586             -10.0480
        89        1.6219           -0.3651186              -9.9354
        90        1.3858           -0.3642040              -9.9105
        91        0.9994           -0.2940437              -8.0013 (HOMO)
        92        0.0006           -0.2798925              -7.6163 (LUMO)
        93                         -0.2625035              -7.1431
        94                         -0.2615691              -7.1177
        95                         -0.2594242              -7.0593
        96                         -0.2516669              -6.8482
        97                         -0.2498515              -6.7988
        98                         -0.2374211              -6.4606
        99                         -0.2356066              -6.4112
       100                         -0.2181982              -5.9375
       101                         -0.2084097              -5.6711
       102                         -0.2010018              -5.4695
       ...                                ...                  ...
       172                          0.6859223              18.6649
      -------------------------------------------------------------
                  HL-Gap            0.0141512 Eh            0.3851 eV

     #   Z          covCN         q      C6AA      α(0)
     1   6 C        2.912    -0.039    28.958     8.824
     2   6 C        2.913     0.060    26.665     8.468
     3   7 N        1.835    -0.228    26.834     7.677
     4   6 C        2.917     0.062    26.618     8.460
     5   6 C        2.980    -0.008    28.203     8.711
     6   6 C        2.902     0.192    23.916     8.019
     7   7 N        1.850    -0.302    28.683     7.938
     8   6 C        2.943     0.085    26.111     8.381
     9   6 C        2.975    -0.001    28.046     8.687
    10   6 C        2.927    -0.030    28.754     8.794
    11   6 C        2.916    -0.038    28.945     8.822
    12   6 C        2.924     0.045    26.989     8.519
    13   7 N        2.752    -0.019    21.610     6.904
    14   6 C        2.925     0.046    26.964     8.516
    15   6 C        2.920    -0.049    29.219     8.864
    16   6 C        2.918    -0.028    28.697     8.785
    17   6 C        2.919    -0.027    28.687     8.783
    18   6 C        2.916    -0.050    29.246     8.868
    19   6 C        2.885     0.132    25.114     8.216
    20   8 O        1.709    -0.223    17.692     5.679
    21   6 C        2.885     0.132    25.114     8.216
    22   6 C        2.916    -0.050    29.247     8.868
    23   6 C        2.919    -0.028    28.691     8.784
    24   6 C        2.918    -0.028    28.701     8.785
    25   6 C        2.920    -0.049    29.222     8.865
    26   6 C        2.925     0.046    26.965     8.516
    27   6 C        2.917    -0.039    28.967     8.826
    28   6 C        2.921    -0.037    28.922     8.819
    29   6 C        2.911    -0.061    29.510     8.908
    30   6 C        2.942     0.074    26.351     8.419
    31   6 C        2.964    -0.029    28.715     8.789
    32   6 C        2.929     0.075    26.331     8.415
    33   7 N        1.832    -0.235    27.002     7.700
    34   6 C        2.907     0.124    25.279     8.244
    35   7 N        1.832    -0.245    27.238     7.734
    36   6 C        2.923     0.062    26.618     8.461
    37   7 N        1.849    -0.300    28.612     7.928
    38   6 C        2.932    -0.012    28.303     8.725
    39   1 H        0.926     0.052     2.298     2.371
    40   1 H        0.925     0.048     2.340     2.392
    41   1 H        0.925     0.053     2.284     2.364
    42   1 H        0.926     0.054     2.265     2.354
    43   1 H        0.926     0.049     2.338     2.391
    44   1 H        0.926     0.056     2.245     2.343
    45   1 H        0.926     0.059     2.215     2.327
    46   1 H        0.926     0.061     2.184     2.311
    47   1 H        0.926     0.067     2.115     2.274
    48   1 H        0.926     0.067     2.115     2.274
    49   1 H        0.926     0.061     2.186     2.312
    50   1 H        0.926     0.058     2.220     2.330
    51   1 H        0.926     0.056     2.251     2.346
    52   1 H        0.926     0.046     2.364     2.404
    53   1 H        0.926     0.038     2.472     2.459
    54   1 H        0.926     0.027     2.623     2.533
    55   1 H        0.925     0.047     2.358     2.401
    56   1 H        0.926     0.035     2.512     2.478
    57   1 H        0.925     0.033     2.546     2.495
    58   1 H        0.926     0.051     2.308     2.376

molecular dipole:
                 x           y           z       tot (Debye)
 q only:       -5.893      -0.761       0.137
   full:       -5.861      -0.384       0.041      14.930

 projected vibrational frequencies (cm⁻¹)
eigval :       -0.00    -0.00    -0.00    -0.00     0.00     0.00
eigval :        9.33    17.17    20.43    23.20    30.67    41.40
eigval :       46.52    47.90    58.33    72.11    91.34    97.81
eigval :      109.58   130.91   154.96   164.89   178.19   200.20
eigval :      203.58   241.65   247.31   258.54   268.29   287.37
eigval :      318.12   341.15   348.64   367.89   369.65   378.23
eigval :      389.10   391.91   408.60   413.09   425.44   426.63
eigval :      432.91   461.80   473.73   495.62   527.58   537.62
eigval :      539.60   570.70   572.56   586.05   593.42   600.46
eigval :      601.09   608.05   613.60   628.87   658.01   668.32
eigval :      671.44   672.61   673.07   683.26   687.89   694.13
eigval :      771.49   778.69   781.03   792.08   792.44   803.98
eigval :      807.09   822.79   834.22   840.90   851.69   855.98
eigval :      868.80   869.54   871.60   896.64   901.81   905.11
eigval :      906.25   913.52   913.98   914.88   915.90   922.65
eigval :      923.71   927.65   961.26   966.35  1000.15  1005.84
eigval :     1063.21  1077.28  1081.97  1083.23  1084.33  1105.04
eigval :     1113.68  1120.34  1122.37  1125.35  1144.20  1160.83
eigval :     1167.84  1170.74  1179.04  1183.96  1195.51  1199.86
eigval :     1208.52  1216.17  1230.59  1235.85  1245.02  1252.86
eigval :     1258.76  1267.64  1276.45  1290.32  1298.16  1305.19
eigval :     1307.55  1309.32  1315.43  1322.05  1335.62  1344.00
eigval :     1356.46  1383.32  1400.68  1414.72  1419.70  1428.08
eigval :     1432.97  1438.61  1444.20  1448.16  1462.33  1467.97
eigval :     1475.42  1519.28  1520.89  1551.54  1560.58  1560.76
eigval :     1566.54  1568.99  1579.17  1583.06  3039.66  3048.74
eigval :     3056.87  3071.04  3081.69  3083.21  3084.79  3084.95
eigval :     3096.30  3098.49  3099.15  3099.48  3105.80  3105.96
eigval :     3109.09  3110.63  3113.58  3113.94  3117.00  3117.24

   temp. (K)  partition function   enthalpy   heat capacity  entropy
                                   cal/mol     cal/K/mol   cal/K/mol   J/K/mol
 298.15  VIB  0.846E+14            17190.221    107.032    107.406
         ROT  0.568E+08              888.752      2.981     38.463
         INT  0.480E+22            18078.974    110.013    145.868
         TR   0.106E+29             1481.254      4.968     44.450
         TOT                       19560.2276   114.9813   190.3187   796.2934

       T/K    H(0)-H(T)+PV         H(T)/Eh          T*S/Eh         G(T)/Eh
   ------------------------------------------------------------------------
    298.15    0.311712E-01    0.454842E+00    0.904266E-01    0.364415E+00
   ------------------------------------------------------------------------

         :::::::::::::::::::::::::::::::::::::::::::::::::::::
         ::                  THERMODYNAMIC                  ::
         :::::::::::::::::::::::::::::::::::::::::::::::::::::
         :: total free energy         -97.816316871615 Eh   ::
         ::.................................................::
         :: total energy              -98.180732099705 Eh   ::
         :: zero point energy           0.423670572977 Eh   ::
         :: G(RRHO) w/o ZPVE           -0.059255344887 Eh   ::
         :: G(RRHO) contrib.            0.364415228091 Eh   ::
         :::::::::::::::::::::::::::::::::::::::::::::::::::::

           -------------------------------------------------
          | TOTAL ENERGY              -98.180732099705 Eh   |
          | TOTAL ENTHALPY            -97.725890319841 Eh   |
          | TOTAL FREE ENERGY         -97.816316871615 Eh   |
          | GRADIENT NORM               0.000070859190 Eh/α |
          | HOMO-LUMO GAP               0.385073903296 eV   |
           -------------------------------------------------

 * finished run on 2025/09/07 at 20:45:15.791
