   * xtb version 6.7.1 (edcfbbe) compiled by 'albert@albert-system' on 2024-07-22

   ID    Z sym.   atoms
    1    6 C      1-6, 8-20, 22-33, 35-41, 43-49, 51-57, 59-68, 70-86, 88-94
    2    7 N      7, 21, 42, 58, 69, 87
    3    5 B      34, 50
    4    1 H      95-164

          program call               : xtb data2507/gas/m-ν-DABNA/m-ν-DABNA_gas_S0_crest.xyz --gfn 2 --ohess vtight --parallel 40 --molden --ceasefiles --namespace data2507/gas/m-ν-DABNA/m-ν-DABNA_gas_S0_finalOpt
          :  Hamiltonian                  GFN2-xTB          :
 * total energy  :  -240.0753530 Eh     change       -0.5867150E-08 Eh
 * total energy  :  -240.0753544 Eh     change       -0.1426023E-05 Eh
 * total energy  :  -240.0753561 Eh     change       -0.1692058E-05 Eh
 * total energy  :  -240.0753619 Eh     change       -0.5835136E-05 Eh
 * total energy  :  -240.0753645 Eh     change       -0.2611862E-05 Eh
 * total energy  :  -240.0753666 Eh     change       -0.2086382E-05 Eh
 * total energy  :  -240.0753692 Eh     change       -0.2628507E-05 Eh
 * total energy  :  -240.0753723 Eh     change       -0.3050455E-05 Eh
 * total energy  :  -240.0753751 Eh     change       -0.2789098E-05 Eh
 * total energy  :  -240.0753771 Eh     change       -0.2036606E-05 Eh
 * total energy  :  -240.0754437 Eh     change       -0.4296969E-06 Eh
 * total energy  :  -240.0754440 Eh     change       -0.3279577E-06 Eh
 * total energy  :  -240.0754443 Eh     change       -0.2496760E-06 Eh
 * total energy  :  -240.0754445 Eh     change       -0.2155926E-06 Eh
 * total energy  :  -240.0754449 Eh     change       -0.3616335E-06 Eh
 * total energy  :  -240.0754455 Eh     change       -0.6614848E-06 Eh
 * total energy  :  -240.0754458 Eh     change       -0.3272053E-06 Eh
 * total energy  :  -240.0754461 Eh     change       -0.2707162E-06 Eh
 * total energy  :  -240.0754462 Eh     change       -0.8510190E-07 Eh
   *** GEOMETRY OPTIMIZATION CONVERGED AFTER 96 ITERATIONS ***

 final structure:
================
164
 xtb: 6.7.1 (edcfbbe)
C           -5.67376251575141       -5.33656668380792        2.73359376143505
C           -6.41362249380861       -4.90649765365233        1.50241226849933
C           -7.07854905280762       -5.84488725925291        0.72037697484923
C           -7.77930118467523       -5.44264141096458       -0.40227203369791
C           -7.81759897645475       -4.11172190929171       -0.76978552027907
C           -7.15638941647036       -3.15719009610035        0.00231002162373
N           -7.16830491229666       -1.81145361833556       -0.36370722691484
C           -8.26719552837049       -1.26283838812631       -1.03460894950849
C           -9.56939585047398       -1.58445299314008       -0.65456972435794
C          -10.63828890354598       -1.02279604334448       -1.32418468609246
C          -10.43103160691605       -0.14245125550883       -2.37297919837807
C           -9.13953929191186        0.18430216583348       -2.76800466248821
C           -8.89243267456915        1.09391712809482       -3.93452817432903
C           -8.06867693876474       -0.37752740380528       -2.09181097694459
C           -6.05346282820119       -0.99844605423319       -0.11946130510076
C           -6.24767670670946        0.33041792998690        0.23385844976764
C           -5.15207409928710        1.17094548819464        0.42008112589906
C           -3.83783450360073        0.66904016993062        0.32124834071458
C           -3.67207094287379       -0.69834195177804        0.01593374841205
C           -4.76957480055477       -1.51459539448518       -0.23924329350411
N           -2.40212389623199       -1.23224545041072       -0.04870864037625
C           -2.28533771060258       -2.64464759244227       -0.18967930514730
C           -1.96976737443253       -3.20868596712559       -1.42010282333981
C           -1.83386764327755       -4.57985839511136       -1.53491153866667
C           -2.01989161176733       -5.39274398995340       -0.42923876543520
C           -2.34555377085194       -4.83257962485575        0.79407963869131
C           -2.47662383195711       -3.46129110353173        0.91701874180407
C           -1.24373296541517       -0.47833100223736       -0.00015579742632
C           -0.02313675275103       -1.13000368236991       -0.13606805899609
C            1.17809248305968       -0.43303663553916       -0.19219171844850
C            1.17784360711229        0.98238995159732       -0.13915116833652
C           -0.05583995029850        1.58507622916247        0.09618518032300
C           -1.27640134910264        0.92253869017503        0.20926215201759
B           -2.63630908380556        1.57377475175368        0.53489462912363
C           -2.98130902962007        2.99441981211669        1.03252089845363
C           -2.05333701767859        3.94034866031957        1.48930715521890
C           -2.40588120081449        5.21898724076752        1.84924176100560
C           -3.73578897053353        5.62921818280143        1.75458297098732
C           -4.11823058344188        7.03725015926839        2.09649543209102
C           -4.68328874872796        4.71028257845034        1.35855019033560
C           -4.33774460046574        3.39014989236040        1.03643189110548
N           -5.35198219724452        2.50311288303513        0.71748984075508
C           -6.70378246252687        2.94535548285879        0.81136264215750
C           -7.29992054485808        3.08988432333146        2.05774228299348
C           -8.62218570623373        3.48658271782273        2.13804104924719
C           -9.34956563248184        3.72479964028947        0.98552083115843
C           -8.76575984240713        3.57863880105021       -0.26728052636310
C           -9.56912018912625        3.79897978464571       -1.51127954585936
C           -7.43452190447515        3.19321005168560       -0.34221919644520
B            2.53038697943196        1.71227643412254       -0.26086412512996
C            2.85605156783561        3.21169192725400       -0.43000732731753
C            1.92771916577061        4.20739962280613       -0.76199543025483
C            2.26682840943345        5.53436753959276       -0.87838157638820
C            3.58611861698458        5.93887739822295       -0.67509888792457
C            3.95830862294550        7.38608670264737       -0.78935158783486
C            4.53503898680989        4.98041505736324       -0.39123575491179
C            4.19829152449599        3.62450054429283       -0.27689230810907
N            5.21337869161320        2.71254972839089       -0.04239220864860
C            6.53020551345084        3.20519939983158        0.19131342615486
C            6.87401115178547        3.67863236242791        1.45043918357770
C            8.16074261129997        4.13225351871787        1.67820955651218
C            9.10114764212544        4.10324631298035        0.66353441312507
C            8.76955486215931        3.62915213369189       -0.60010658719298
C            9.79403238761382        3.56186422993818       -1.68999743672219
C            7.47333087520790        3.18814655695902       -0.82734229447402
C            5.04589628236739        1.34365182439406       -0.07648364533859
C            6.15160935767358        0.50360759033523        0.03750531042946
C            5.99556208957615       -0.87092685221678       -0.08644963564427
N            7.12504476683556       -1.69844834250506       -0.05076291310970
C            7.04808559936807       -2.97086855309076        0.51974172928521
C            7.76365457182105       -4.03726322661825       -0.02319341290141
C            7.66091602610526       -5.29411537852909        0.54033825452228
C            6.84313324639622       -5.51171532800067        1.63465247424537
C            6.12373482930718       -4.45928774747784        2.19033671736876
C            5.25845309782071       -4.68592803782361        3.39374321811306
C            6.24062342137029       -3.19715111137877        1.63454890015276
C            8.31893936524726       -1.25346506804725       -0.62768200664328
C            8.30192415123388       -0.51578383917120       -1.81137857721619
C            9.48677611651750       -0.07531280002511       -2.36512176791057
C           10.69811649948454       -0.36272676616962       -1.75870965570842
C           10.73394573256773       -1.10113873409884       -0.58193102449237
C           12.03733816850487       -1.39654446396403        0.09744977416086
C            9.54240054890835       -1.53735090761511       -0.02481650202222
C            4.73093989228409       -1.42352069679289       -0.24773211435164
C            3.61119425962990       -0.59774317563354       -0.23499101735996
C            3.74695840483696        0.80604892492288       -0.19047940427520
N            2.35226957132698       -1.15661867759803       -0.29912150667360
C            2.25241693193569       -2.57736130863589       -0.35317936491027
C            2.37945825657132       -3.32797408259786        0.80898171424827
C            2.25521459103329       -4.70397575253776        0.75837987312310
C            1.99865150720365       -5.33438506384516       -0.44753845082833
C            1.87540007199323       -4.58736283289335       -1.60674495339866
C            2.00523434938717       -3.21081914085930       -1.56395625354632
C           -6.46706390578508       -3.57146470590458        1.14269394831422
H           -5.10671909485138       -6.24522527485331        2.54073003211392
H           -4.99317808491078       -4.55848589268556        3.06961728273635
H           -6.37759301448341       -5.54762255429583        3.53926958699132
H           -7.04579996271918       -6.88942494616425        0.99351448277343
H           -8.29198088958862       -6.17588575885453       -1.00795467514935
H           -8.34967237412712       -3.80590966199540       -1.65831300211144
H           -9.73164704143987       -2.26809481573350        0.16545042471810
H          -11.64569719570020       -1.26914467163428       -1.02156961889805
H          -11.27667413600961        0.28739144891537       -2.89057382711003
H           -9.77556546742897        1.68412292125140       -4.16708841830251
H           -8.63823017258821        0.50400699162355       -4.81575797843651
H           -8.05956503756139        1.76375560394189       -3.73235162946693
H           -7.05889499656160       -0.13465231273063       -2.39023827821168
H           -7.25673758669815        0.69111489649064        0.35258107479804
H           -4.64066677687463       -2.54408531184456       -0.53437593572886
H           -1.82422832000322       -2.56456235171448       -2.27470267880701
H           -1.58358341599497       -5.01536513614992       -2.49077874958361
H           -1.91230714793428       -6.46295564276536       -0.52215154368356
H           -2.49217369163275       -5.46456457512530        1.65699021246335
H           -2.72419560402527       -3.01127377442151        1.86704773907221
H           -0.00783532000829       -2.20601526767713       -0.19479118679276
H           -0.06615540547846        2.65527139602344        0.20122570283788
H           -1.02009233494891        3.64714333374852        1.58399860358326
H           -1.65548419537728        5.91519525165518        2.19607321580506
H           -3.83816605296025        7.26680640429935        3.12422193007275
H           -3.59582959764753        7.73875696997574        1.44658601504371
H           -5.18906320381077        7.19030974063307        1.98478298616781
H           -5.71636581786709        5.02143898057034        1.30160971803446
H           -6.72245092572030        2.89416925942608        2.94880290384354
H           -9.08965665513771        3.60393191394452        3.10452142223466
H          -10.38469706237977        4.02568281880530        1.05669845433272
H          -10.32675633247800        4.56338103689161       -1.35433958116184
H          -10.07350994587891        2.87177753916602       -1.78428339781869
H           -8.93158580624442        4.09579812064963       -2.34025659025737
H           -6.95592009747261        3.06987288646103       -1.30296321964433
H            0.90740712238918        3.91837036168024       -0.95821005370206
H            1.51633849577186        6.26946024981118       -1.13255361126301
H            3.70284278609947        7.76663849423171       -1.77789389551632
H            3.40918304843612        7.97564166201275       -0.05563056298869
H            5.02349286731434        7.53050930602462       -0.62472067722403
H            5.56416681073609        5.28721147823646       -0.27165895551279
H            6.13203363590435        3.69131182668645        2.23457373546433
H            8.43317357753314        4.50538308546105        2.65444338065080
H           10.10590958371563        4.45204275741553        0.85345522761985
H           10.24770019028051        2.57006789943662       -1.70091649088243
H            9.33762976046703        3.73348552109699       -2.66211314808044
H           10.58084818757674        4.29558988141137       -1.53206906795226
H            7.18987724667834        2.81504084756515       -1.80091147505406
H            7.14091041595775        0.90021422306037        0.19838469708110
H            8.38845387054635       -3.87568769216891       -0.88905424067067
H            8.21555372262441       -6.11605397974452        0.11125929569310
H            6.76129100672480       -6.50062128178278        2.06144642884290
H            5.87271244931023       -4.72666729516551        4.29388085261217
H            4.72653989159804       -5.63162117198377        3.31118997375321
H            4.53645130303816       -3.88188367564667        3.51130735909757
H            5.69759080337015       -2.36826111936770        2.06519888180650
H            7.35859447088666       -0.30070092777741       -2.29021516411959
H            9.46704564014425        0.48655723342498       -3.28798919596647
H           11.62091216021526       -0.01794087348580       -2.20292018602022
H           12.26056584827771       -0.61861043217977        0.82857486848661
H           12.85215658878206       -1.42638936976589       -0.62226067207469
H           11.99329801431914       -2.34788093955186        0.62268971875250
H            9.55610705138989       -2.10655730870888        0.89393312114361
H            4.63364298059591       -2.49140749404727       -0.36284525821090
H            2.57070561082714       -2.82283847697491        1.74399911458573
H            2.35366636314405       -5.28483142436601        1.66300131678853
H            1.89552174126913       -6.40844484546791       -0.48408065398878
H            1.67826715487641       -5.07817298953180       -2.54820333706569
H            1.90675981411386       -2.61666608289424       -2.46037178380167
H           -5.96630229403414       -2.83176047584721        1.75042914452506

          :  Hamiltonian                  GFN2-xTB          :
         :: gradient norm              0.000054511637 Eh/a0 ::
         :: HOMO-LUMO gap              2.201201756933 eV    ::
         :: SCC energy              -244.469662920544 Eh    ::
         :: -> dispersion             -0.254766532135 Eh    ::
         :: repulsion energy           4.394216723071 Eh    ::

    * Orbital Energies and Occupations

         #    Occupation            Energy/Eh            Energy/eV
      -------------------------------------------------------------
         1        2.0000           -0.6592932             -17.9403
       ...           ...                  ...                  ...
       213        2.0000           -0.3835939             -10.4381
       214        2.0000           -0.3776117             -10.2753
       215        2.0000           -0.3745682             -10.1925
       216        2.0000           -0.3740099             -10.1773
       217        2.0000           -0.3693034             -10.0493
       218        2.0000           -0.3643328              -9.9140
       219        2.0000           -0.3588526              -9.7649
       220        2.0000           -0.3543846              -9.6433
       221        2.0000           -0.3452133              -9.3937
       222        2.0000           -0.3381685              -9.2020
       223        2.0000           -0.3367184              -9.1626
       224        2.0000           -0.3333950              -9.0721
       225        2.0000           -0.3273350              -8.9072 (HOMO)
       226                         -0.2464424              -6.7060 (LUMO)
       227                         -0.2343783              -6.3778
       228                         -0.2302325              -6.2649
       229                         -0.2299420              -6.2570
       230                         -0.2285239              -6.2185
       231                         -0.2282095              -6.2099
       232                         -0.2249770              -6.1219
       233                         -0.2244569              -6.1078
       234                         -0.2228516              -6.0641
       235                         -0.2225526              -6.0560
       236                         -0.2201893              -5.9917
       ...                                ...                  ...
       446                          0.7441720              20.2500
      -------------------------------------------------------------
                  HL-Gap            0.0808926 Eh            2.2012 eV

     #   Z          covCN         q      C6AA      α(0)
     1   6 C        3.758    -0.107    22.588     6.776
     2   6 C        2.966     0.016    27.661     8.627
     3   6 C        2.924    -0.052    29.287     8.875
     4   6 C        2.918    -0.033    28.813     8.802
     5   6 C        2.923    -0.056    29.380     8.889
     6   6 C        2.921     0.065    26.549     8.450
     7   7 N        2.755    -0.077    22.739     7.082
     8   6 C        2.925     0.066    26.527     8.446
     9   6 C        2.922    -0.052    29.295     8.876
    10   6 C        2.918    -0.033    28.811     8.802
    11   6 C        2.924    -0.051    29.266     8.872
    12   6 C        2.966     0.016    27.649     8.625
    13   6 C        3.758    -0.107    22.598     6.777
    14   6 C        2.930    -0.057    29.422     8.896
    15   6 C        2.926     0.064    26.556     8.451
    16   6 C        2.923    -0.092    30.300     9.027
    17   6 C        2.928     0.060    26.658     8.467
    18   6 C        2.897    -0.114    30.892     9.113
    19   6 C        2.928     0.060    26.658     8.467
    20   6 C        2.922    -0.091    30.286     9.025
    21   7 N        2.758    -0.056    22.326     7.018
    22   6 C        2.934     0.071    26.403     8.427
    23   6 C        2.922    -0.037    28.925     8.820
    24   6 C        2.920    -0.029    28.715     8.787
    25   6 C        2.920    -0.032    28.790     8.799
    26   6 C        2.920    -0.028    28.690     8.784
    27   6 C        2.923    -0.036    28.907     8.817
    28   6 C        2.929     0.059    26.679     8.471
    29   6 C        2.925    -0.090    30.271     9.023
    30   6 C        2.931     0.059    26.680     8.471
    31   6 C        2.883    -0.095    30.376     9.036
    32   6 C        2.930    -0.039    28.969     8.827
    33   6 C        2.883    -0.095    30.378     9.036
    34   5 B        2.723     0.187    18.578     7.223
    35   6 C        2.886    -0.088    30.212     9.011
    36   6 C        2.922    -0.037    28.914     8.818
    37   6 C        2.920    -0.054    29.336     8.882
    38   6 C        2.966     0.015    27.673     8.629
    39   6 C        3.758    -0.106    22.584     6.775
    40   6 C        2.927    -0.068    29.689     8.936
    41   6 C        2.925     0.057    26.727     8.478
    42   7 N        2.756    -0.053    22.265     7.008
    43   6 C        2.933     0.069    26.463     8.437
    44   6 C        2.922    -0.043    29.063     8.841
    45   6 C        2.918    -0.031    28.764     8.795
    46   6 C        2.926    -0.043    29.061     8.841
    47   6 C        2.966     0.020    27.558     8.611
    48   6 C        3.758    -0.111    22.673     6.789
    49   6 C        2.927    -0.047    29.177     8.858
    50   5 B        2.724     0.187    18.574     7.222
    51   6 C        2.887    -0.088    30.212     9.011
    52   6 C        2.922    -0.037    28.909     8.817
    53   6 C        2.920    -0.054    29.334     8.882
    54   6 C        2.966     0.015    27.673     8.629
    55   6 C        3.758    -0.106    22.584     6.775
    56   6 C        2.927    -0.068    29.682     8.935
    57   6 C        2.926     0.057    26.725     8.478
    58   7 N        2.756    -0.053    22.271     7.009
    59   6 C        2.932     0.069    26.462     8.436
    60   6 C        2.922    -0.043    29.077     8.843
    61   6 C        2.919    -0.031    28.767     8.795
    62   6 C        2.925    -0.043    29.060     8.840
    63   6 C        2.966     0.020    27.566     8.612
    64   6 C        3.758    -0.111    22.673     6.789
    65   6 C        2.928    -0.047    29.176     8.858
    66   6 C        2.927     0.060    26.656     8.467
    67   6 C        2.923    -0.093    30.324     9.030
    68   6 C        2.925     0.064    26.560     8.452
    69   7 N        2.755    -0.077    22.729     7.081
    70   6 C        2.922     0.065    26.546     8.449
    71   6 C        2.923    -0.055    29.359     8.886
    72   6 C        2.918    -0.033    28.816     8.803
    73   6 C        2.924    -0.051    29.275     8.873
    74   6 C        2.966     0.016    27.656     8.626
    75   6 C        3.758    -0.106    22.583     6.775
    76   6 C        2.929    -0.059    29.455     8.901
    77   6 C        2.924     0.066    26.529     8.447
    78   6 C        2.923    -0.052    29.282     8.874
    79   6 C        2.918    -0.033    28.819     8.803
    80   6 C        2.924    -0.052    29.283     8.874
    81   6 C        2.966     0.016    27.642     8.624
    82   6 C        3.758    -0.108    22.619     6.781
    83   6 C        2.929    -0.058    29.452     8.900
    84   6 C        2.922    -0.092    30.320     9.030
    85   6 C        2.927     0.060    26.652     8.466
    86   6 C        2.897    -0.114    30.897     9.114
    87   7 N        2.758    -0.057    22.345     7.021
    88   6 C        2.934     0.072    26.391     8.425
    89   6 C        2.922    -0.036    28.887     8.814
    90   6 C        2.920    -0.028    28.694     8.784
    91   6 C        2.920    -0.032    28.788     8.799
    92   6 C        2.920    -0.028    28.707     8.786
    93   6 C        2.922    -0.038    28.936     8.821
    94   6 C        2.929    -0.059    29.477     8.904
    95   1 H        0.925     0.041     2.435     2.440
    96   1 H        0.925     0.039     2.457     2.451
    97   1 H        0.924     0.045     2.383     2.414
    98   1 H        0.926     0.026     2.649     2.545
    99   1 H        0.926     0.027     2.630     2.536
   100   1 H        0.926     0.027     2.624     2.533
   101   1 H        0.926     0.030     2.584     2.514
   102   1 H        0.926     0.028     2.611     2.527
   103   1 H        0.926     0.025     2.663     2.552
   104   1 H        0.925     0.040     2.451     2.448
   105   1 H        0.924     0.046     2.376     2.411
   106   1 H        0.925     0.043     2.407     2.426
   107   1 H        0.926     0.032     2.557     2.501
   108   1 H        0.926     0.020     2.733     2.585
   109   1 H        0.926     0.020     2.739     2.588
   110   1 H        0.926     0.041     2.430     2.437
   111   1 H        0.926     0.035     2.510     2.478
   112   1 H        0.926     0.034     2.524     2.484
   113   1 H        0.926     0.037     2.484     2.464
   114   1 H        0.926     0.039     2.460     2.453
   115   1 H        0.926     0.011     2.877     2.652
   116   1 H        0.926     0.040     2.453     2.449
   117   1 H        0.926     0.034     2.531     2.488
   118   1 H        0.926     0.020     2.735     2.586
   119   1 H        0.925     0.042     2.427     2.436
   120   1 H        0.925     0.042     2.421     2.433
   121   1 H        0.925     0.035     2.521     2.483
   122   1 H        0.926     0.018     2.765     2.600
   123   1 H        0.926     0.039     2.461     2.453
   124   1 H        0.926     0.035     2.519     2.482
   125   1 H        0.926     0.034     2.533     2.489
   126   1 H        0.925     0.044     2.395     2.420
   127   1 H        0.924     0.056     2.251     2.346
   128   1 H        0.925     0.045     2.382     2.414
   129   1 H        0.926     0.038     2.472     2.459
   130   1 H        0.926     0.033     2.539     2.492
   131   1 H        0.926     0.020     2.737     2.587
   132   1 H        0.925     0.041     2.430     2.438
   133   1 H        0.925     0.042     2.420     2.433
   134   1 H        0.925     0.035     2.520     2.483
   135   1 H        0.926     0.018     2.771     2.603
   136   1 H        0.926     0.039     2.461     2.453
   137   1 H        0.926     0.035     2.521     2.483
   138   1 H        0.926     0.033     2.541     2.493
   139   1 H        0.924     0.055     2.262     2.352
   140   1 H        0.925     0.045     2.378     2.412
   141   1 H        0.925     0.044     2.402     2.424
   142   1 H        0.926     0.040     2.443     2.444
   143   1 H        0.926     0.020     2.726     2.582
   144   1 H        0.926     0.028     2.613     2.528
   145   1 H        0.926     0.027     2.626     2.534
   146   1 H        0.926     0.026     2.644     2.543
   147   1 H        0.924     0.045     2.381     2.413
   148   1 H        0.925     0.041     2.438     2.442
   149   1 H        0.925     0.040     2.454     2.450
   150   1 H        0.926     0.031     2.569     2.507
   151   1 H        0.926     0.031     2.574     2.509
   152   1 H        0.926     0.028     2.615     2.529
   153   1 H        0.926     0.025     2.662     2.551
   154   1 H        0.924     0.046     2.375     2.410
   155   1 H        0.925     0.042     2.427     2.436
   156   1 H        0.925     0.042     2.420     2.433
   157   1 H        0.926     0.031     2.579     2.511
   158   1 H        0.926     0.019     2.745     2.591
   159   1 H        0.926     0.040     2.448     2.447
   160   1 H        0.926     0.037     2.486     2.466
   161   1 H        0.926     0.035     2.521     2.483
   162   1 H        0.926     0.036     2.505     2.475
   163   1 H        0.926     0.041     2.431     2.438
   164   1 H        0.926     0.030     2.582     2.513

molecular dipole:
                 x           y           z       tot (Debye)
 q only:        0.204      -0.173      -0.050
   full:        0.223      -0.406      -0.032       1.181

 projected vibrational frequencies (cm⁻¹)
eigval :       -0.00    -0.00    -0.00     0.00     0.00     0.00
eigval :        6.52     6.87    13.06    13.75    15.05    15.73
eigval :       16.82    17.12    18.50    22.87    23.45    25.30
eigval :       28.38    30.70    31.61    35.65    38.03    41.13
eigval :       43.80    44.47    44.86    48.53    49.38    51.11
eigval :       52.30    54.15    57.68    57.82    59.66    61.47
eigval :       62.15    66.30    69.93    72.41    74.35    76.43
eigval :       79.63    86.77    89.68    92.34   107.10   115.78
eigval :      122.70   134.96   149.43   159.91   170.34   171.24
eigval :      176.55   178.68   183.94   187.84   191.67   196.10
eigval :      200.46   203.88   204.31   205.72   206.87   211.41
eigval :      216.04   217.84   218.93   219.70   223.02   230.44
eigval :      236.03   240.07   240.87   241.79   243.55   245.78
eigval :      255.37   263.76   269.95   284.60   287.12   293.09
eigval :      304.30   313.32   321.11   327.75   328.58   334.76
eigval :      347.50   358.07   373.86   374.70   379.53   383.63
eigval :      389.24   396.85   400.63   404.07   411.06   412.34
eigval :      414.53   415.28   415.48   416.65   418.39   422.26
eigval :      424.87   428.18   431.07   443.89   446.45   449.48
eigval :      457.73   461.19   478.29   483.55   488.97   499.37
eigval :      502.04   503.69   504.30   505.59   506.08   510.70
eigval :      518.64   521.88   525.58   532.56   537.61   539.53
eigval :      540.59   542.55   545.44   549.66   554.04   554.55
eigval :      570.06   573.07   579.87   580.42   585.07   590.52
eigval :      594.85   595.94   601.73   608.09   617.18   618.57
eigval :      621.58   623.87   630.57   636.03   640.78   644.31
eigval :      649.30   655.90   657.99   659.35   665.43   666.99
eigval :      670.82   674.48   675.23   677.93   679.74   680.08
eigval :      688.49   703.06   707.17   709.84   712.11   714.62
eigval :      758.29   762.65   771.80   774.73   782.53   784.67
eigval :      788.64   790.24   791.27   794.74   801.31   806.71
eigval :      806.97   810.28   813.06   818.50   820.21   821.44
eigval :      827.44   842.25   842.74   852.96   863.42   866.05
eigval :      868.58   873.38   875.98   877.18   883.27   883.81
eigval :      883.93   884.85   886.49   886.67   887.00   888.51
eigval :      888.71   890.22   896.90   897.73   898.25   899.12
eigval :      906.82   908.43   911.83   918.29   922.43   923.00
eigval :      923.99   925.14   925.69   926.46   927.30   927.90
eigval :      928.46   928.55   928.61   929.07   931.30   937.20
eigval :      957.39   981.84   987.31   987.95   988.23   988.59
eigval :      990.04   992.12   994.58   995.61   996.57   997.02
eigval :      999.47  1000.24  1014.93  1016.48  1019.31  1021.16
eigval :     1029.41  1029.70  1030.53  1030.85  1031.13  1031.22
eigval :     1031.78  1031.88  1034.80  1034.87  1046.93  1054.16
eigval :     1067.87  1077.73  1079.41  1079.83  1095.67  1106.42
eigval :     1112.81  1113.71  1114.68  1119.88  1128.24  1129.56
eigval :     1132.77  1134.92  1135.96  1136.29  1155.14  1162.57
eigval :     1169.05  1169.73  1179.15  1180.50  1182.05  1182.31
eigval :     1185.82  1187.53  1188.76  1189.35  1189.66  1189.99
eigval :     1192.02  1192.47  1197.18  1207.38  1209.04  1210.08
eigval :     1212.47  1212.83  1227.71  1229.36  1240.37  1250.11
eigval :     1253.02  1258.24  1260.47  1268.10  1269.15  1269.35
eigval :     1273.07  1273.58  1273.63  1274.39  1275.65  1276.30
eigval :     1278.22  1283.49  1286.24  1292.53  1294.07  1304.41
eigval :     1307.70  1308.95  1309.67  1310.76  1312.21  1314.21
eigval :     1316.25  1316.83  1322.36  1323.69  1330.40  1331.25
eigval :     1331.83  1333.55  1335.67  1337.63  1344.45  1344.92
eigval :     1357.03  1357.62  1377.44  1390.13  1402.07  1402.21
eigval :     1402.44  1402.99  1403.19  1403.62  1403.87  1404.20
eigval :     1409.04  1416.61  1423.34  1423.66  1430.20  1434.26
eigval :     1434.87  1436.14  1437.41  1438.33  1438.74  1445.03
eigval :     1448.52  1451.17  1463.97  1466.22  1471.35  1472.23
eigval :     1472.77  1474.51  1475.52  1475.90  1477.77  1479.80
eigval :     1480.71  1481.63  1482.18  1482.37  1483.05  1483.21
eigval :     1483.82  1484.21  1484.52  1485.12  1486.24  1487.52
eigval :     1488.77  1489.11  1489.29  1489.61  1489.80  1491.41
eigval :     1505.71  1539.33  1542.30  1547.77  1549.55  1561.52
eigval :     1568.65  1578.63  1581.42  1581.78  1583.49  1584.49
eigval :     1584.69  1585.27  1585.50  1585.83  1595.90  1597.28
eigval :     1597.49  1597.94  1598.84  1599.65  1603.39  1604.25
eigval :     1604.40  1604.56  2994.99  2996.34  2997.12  2997.23
eigval :     2999.16  3001.25  3001.30  3004.11  3014.73  3014.83
eigval :     3026.44  3028.25  3032.28  3036.10  3036.31  3037.12
eigval :     3037.68  3037.70  3037.79  3039.22  3039.71  3042.55
eigval :     3042.65  3043.21  3068.84  3069.53  3070.17  3070.30
eigval :     3071.70  3071.74  3075.43  3076.32  3078.40  3078.58
eigval :     3078.69  3079.23  3079.43  3080.13  3080.35  3081.23
eigval :     3081.54  3081.77  3082.11  3082.60  3083.03  3083.19
eigval :     3084.11  3085.21  3085.47  3086.05  3088.18  3089.65
eigval :     3091.54  3091.94  3092.59  3092.92  3094.14  3094.59
eigval :     3096.16  3096.31  3098.77  3099.78  3101.78  3103.67
eigval :     3104.23  3106.84  3108.80  3111.10  3115.68  3143.82

   temp. (K)  partition function   enthalpy   heat capacity  entropy
                                   cal/mol     cal/K/mol   cal/K/mol   J/K/mol
 298.15  VIB  0.168E+45            50888.743    297.902    327.218
         ROT  0.542E+09              888.752      2.981     42.945
         INT  0.909E+53            51777.496    300.883    370.164
         TR   0.407E+29             1481.254      4.968     47.126
         TOT                       53258.7497   305.8514   417.2898  1745.9407

       T/K    H(0)-H(T)+PV         H(T)/Eh          T*S/Eh         G(T)/Eh
   ------------------------------------------------------------------------
    298.15    0.848732E-01    0.138072E+01    0.198268E+00    0.118246E+01
   ------------------------------------------------------------------------

         :::::::::::::::::::::::::::::::::::::::::::::::::::::
         ::                  THERMODYNAMIC                  ::
         :::::::::::::::::::::::::::::::::::::::::::::::::::::
         :: total free energy        -238.892990922120 Eh   ::
         ::.................................................::
         :: total energy             -240.075446197472 Eh   ::
         :: zero point energy           1.295849920059 Eh   ::
         :: G(RRHO) w/o ZPVE           -0.113394644707 Eh   ::
         :: G(RRHO) contrib.            1.182455275352 Eh   ::
         :::::::::::::::::::::::::::::::::::::::::::::::::::::

           -------------------------------------------------
          | TOTAL ENERGY             -240.075446197472 Eh   |
          | TOTAL ENTHALPY           -238.694723057428 Eh   |
          | TOTAL FREE ENERGY        -238.892990922120 Eh   |
          | GRADIENT NORM               0.000054530813 Eh/α |
          | HOMO-LUMO GAP               2.201200416404 eV   |
           -------------------------------------------------

 * finished run on 2025/08/22 at 01:59:13.707
