   * xtb version 6.7.1 (edcfbbe) compiled by 'albert@albert-system' on 2024-07-22

   ID    Z sym.   atoms
    1    6 C      1-6, 8-20, 22-33, 35-41, 43-49, 51-57, 59-68, 70-86, 88-94
    2    7 N      7, 21, 42, 58, 69, 87
    3    5 B      34, 50
    4    1 H      95-164

          program call               : xtb data2507/gas/m-ν-DABNA/m-ν-DABNA_gas_T1_crest.xyz --gfn 2 --spinpol --tblite --uhf 2 --ohess vtight --parallel 40 --molden --ceasefiles --namespace data2507/gas/m-ν-DABNA/m-ν-DABNA_gas_T1_finalOpt
 * total energy  :  -239.9926492 Eh     change       -0.4328714E-07 Eh
 * total energy  :  -239.9926520 Eh     change       -0.2859192E-05 Eh
 * total energy  :  -239.9926536 Eh     change       -0.1566690E-05 Eh
 * total energy  :  -239.9926554 Eh     change       -0.1839285E-05 Eh
 * total energy  :  -239.9926575 Eh     change       -0.2046888E-05 Eh
 * total energy  :  -239.9926593 Eh     change       -0.1809448E-05 Eh
 * total energy  :  -239.9926612 Eh     change       -0.1915986E-05 Eh
 * total energy  :  -239.9926631 Eh     change       -0.1931447E-05 Eh
 * total energy  :  -239.9926658 Eh     change       -0.2619807E-05 Eh
 * total energy  :  -239.9926688 Eh     change       -0.3033259E-05 Eh
 * total energy  :  -239.9926776 Eh     change       -0.1667158E-06 Eh
 * total energy  :  -239.9926778 Eh     change       -0.2006814E-06 Eh
 * total energy  :  -239.9926780 Eh     change       -0.2099777E-06 Eh
 * total energy  :  -239.9926782 Eh     change       -0.1938405E-06 Eh
 * total energy  :  -239.9926784 Eh     change       -0.2150959E-06 Eh
 * total energy  :  -239.9926786 Eh     change       -0.2226798E-06 Eh
 * total energy  :  -239.9926788 Eh     change       -0.1572642E-06 Eh
 * total energy  :  -239.9926791 Eh     change       -0.2714504E-06 Eh
 * total energy  :  -239.9926791 Eh     change       -0.6656023E-08 Eh
   *** GEOMETRY OPTIMIZATION CONVERGED AFTER 36 ITERATIONS ***

 final structure:
================
164
 xtb: 6.7.1 (edcfbbe)
C           -5.64099529065160       -5.37453142297125        2.62035981846594
C           -6.38924164463389       -4.92900589458433        1.39973804393562
C           -7.05499934961799       -5.85814548970484        0.60707251238328
C           -7.76685696710339       -5.44087384501419       -0.50359226224674
C           -7.81704459648331       -4.10453963585007       -0.84754442287866
C           -7.15525598769938       -3.15851901009922       -0.06414949938788
N           -7.17375551830234       -1.80819300385374       -0.40895789391330
C           -8.27573654725189       -1.24629856417107       -1.06105775475438
C           -9.57645275693160       -1.58900560116109       -0.69189262896823
C          -10.64918026483681       -1.00960899246074       -1.33915029529589
C          -10.44868020680589       -0.08917193714493       -2.35473742099556
C           -9.15903825416957        0.26089222481448       -2.73752300775965
C           -8.92129603762496        1.21664544424613       -3.86865031147060
C           -8.08413040198318       -0.31857962492250       -2.08385130482574
C           -6.05971662725856       -0.99824723501164       -0.14943295390233
C           -6.25003213810880        0.32274211048959        0.25717279825370
C           -5.15574618230611        1.16434583637258        0.44537643292616
C           -3.83684881991637        0.67815255588697        0.31335563730729
C           -3.67532299593212       -0.68136946787593       -0.03185708534238
C           -4.77110349411885       -1.49698107999912       -0.30510754764535
N           -2.39872735117678       -1.20919725405959       -0.11793016629676
C           -2.28103566110170       -2.61621312426653       -0.29991548645589
C           -1.93612796036117       -3.14062372997015       -1.54041918224123
C           -1.80159908985535       -4.50747855197083       -1.69662229760548
C           -2.01606009506044       -5.35602082190369       -0.62279462399115
C           -2.37009780962385       -4.83482303763735        0.61021251267426
C           -2.50203652021019       -3.46835161999248        0.77484947167634
C           -1.24602580682699       -0.46305338372941       -0.03633001222290
C           -0.02209711262833       -1.11907879977237       -0.14475345208552
C            1.18349929659915       -0.42345371674678       -0.18833943942551
C            1.18641203059286        0.99951742709376       -0.15439235114574
C           -0.05306937755977        1.60689331998108        0.07543811140130
C           -1.27905299102351        0.94202712707865        0.19013651636986
B           -2.63903362032222        1.57993422349476        0.53449545468491
C           -2.98129354380475        2.98799102032196        1.05579338598262
C           -2.05335555422713        3.93636386248617        1.51386971559347
C           -2.41057953744041        5.21170480203115        1.88735768374592
C           -3.74150607418792        5.62156535298969        1.81132630767154
C           -4.12515895926818        7.02733313557493        2.16052294979984
C           -4.69234379389097        4.69651840426196        1.42140187946129
C           -4.34370614484491        3.38289076995135        1.08968994197604
N           -5.35907431564166        2.48801293689185        0.78582889645166
C           -6.70822476581521        2.91472716940919        0.94223754476627
C           -7.24087064533113        3.07275372843199        2.21618811960802
C           -8.56126325443084        3.45639955357670        2.35902163755513
C           -9.35113063576787        3.66914373344316        1.24261220317752
C           -8.83158813142069        3.50963196932805       -0.03651114464957
C           -9.69745386980806        3.69968687271578       -1.24282938410419
C           -7.50166414174667        3.13744277243315       -0.17514856843325
B            2.54132940188811        1.71930339279041       -0.28983486908868
C            2.87045242053454        3.21115551512438       -0.48618522011610
C            1.94521410206023        4.20916044839330       -0.82806446982574
C            2.29437485690740        5.53207339696550       -0.97618877770464
C            3.61860066836366        5.93509339247606       -0.80798980133016
C            3.99960187318008        7.37611172066195       -0.96229763683343
C            4.56734429248715        4.97222612950272       -0.51714582593352
C            4.22073609383935        3.62595439545569       -0.36184067406954
N            5.23354807162131        2.71066345473763       -0.11645800098809
C            6.55076690526209        3.20416440918651        0.10419869926023
C            6.88483483408801        3.73956061986757        1.34159224092529
C            8.17194776848425        4.19588295366185        1.55954080619929
C            9.12258527013896        4.11089370182897        0.55724377250872
C            8.80064524836581        3.57595561266528       -0.68434756510239
C            9.83366043676545        3.45024867232055       -1.76074960229057
C            7.50438452997251        3.13010865438864       -0.90238295751203
C            5.05891030771869        1.34064003317989       -0.11837695105469
C            6.16157090646647        0.49951828560386        0.01696626821351
C            6.00426122096515       -0.88362444174173       -0.07422324655496
N            7.12904614680609       -1.71630178276928       -0.02192013930603
C            7.04577115554432       -2.96706597929393        0.59195146243441
C            7.75351295058437       -4.05701366987698        0.08491656330815
C            7.63909881304124       -5.29386450486535        0.68817677593052
C            6.81781900406270       -5.46971427312859        1.78775946085039
C            6.10588870388919       -4.39379739193733        2.30780979890866
C            5.23776526679419       -4.57508567491294        3.51685836508169
C            6.23291630130950       -3.15173457930014        1.71137150555447
C            8.31822835298128       -1.29680286526851       -0.62535160457594
C            8.29140684884670       -0.58527760286778       -1.82505889287400
C            9.47224915424676       -0.16588591968409       -2.40344225052475
C           10.68900380393315       -0.44681732985717       -1.80530179060383
C           10.73450869808999       -1.15786016400907       -0.61083348923475
C           12.04791200448446       -1.44294029448741        0.05353390644426
C            9.54826359187138       -1.57346644885458       -0.02979387163872
C            4.73255751020762       -1.42758583927583       -0.22283914661489
C            3.61717480770359       -0.59281975193929       -0.22364826708167
C            3.75329239310205        0.81226464047601       -0.21362056217704
N            2.35109741375701       -1.14748725664147       -0.26781317430656
C            2.25156890979677       -2.56932516877686       -0.28484602323109
C            2.36869369783934       -3.28733128498218        0.89848848416335
C            2.24991539722536       -4.66480000988174        0.88296438984074
C            2.00952715101130       -5.32818910017702       -0.30846425832700
C            1.89667095739867       -4.61293325044916       -1.48874575091180
C            2.02072546780351       -3.23534456959837       -1.48153484239268
C           -6.45177155407727       -3.58878417897009        1.06224818344919
H           -5.09338500200474       -6.29331208879895        2.41984181119671
H           -4.94264711684075       -4.60925052948910        2.94946662231443
H           -6.33850153953238       -5.57336845534328        3.43469123613519
H           -7.01453133935396       -6.90687298234656        0.86231066241151
H           -8.27941766881246       -6.16709405424358       -1.11778512810802
H           -8.35798348188784       -3.78658439782020       -1.72636443095193
H           -9.73393582898360       -2.30256813073579        0.10316670528642
H          -11.65474060624956       -1.27325715133009       -1.04501206659186
H          -11.29729001304672        0.35431658049743       -2.85563277987076
H           -9.79954185992431        1.82990613360306       -4.05579626973001
H           -8.69631052173516        0.66173075302673       -4.78008451509890
H           -8.07334742663588        1.86424747037136       -3.65686181974345
H           -7.07617798729666       -0.05855446125406       -2.37419140017770
H           -7.25943663356447        0.67228785771421        0.40337494794243
H           -4.63856429183839       -2.51556358929756       -0.63602022202161
H           -1.76770168873187       -2.46902488806296       -2.36920083084538
H           -1.53046661841594       -4.91209102562616       -2.66031699088342
H           -1.90906552190084       -6.42286587279710       -0.74808351872703
H           -2.53914396590821       -5.49403874831150        1.44810382325237
H           -2.77132544000835       -3.04870689866647        1.73277357727390
H           -0.00835299061568       -2.19522088322655       -0.19507224787872
H           -0.06367029905431        2.67660924855479        0.17679457573484
H           -1.01791708461492        3.64746373432576        1.59349891686830
H           -1.65763540370998        5.90894125650224        2.22770384950211
H           -5.20047276913203        7.16981326561784        2.08181101381797
H           -3.81547263848698        7.26486585385711        3.17811139952793
H           -3.63122829769025        7.73225194656528        1.49169614058549
H           -5.72664328137452        5.00549545801683        1.37780005284800
H           -6.61566507187752        2.89728535447316        3.07872044653913
H           -8.97892330293291        3.58309751488597        3.34683247300078
H          -10.38435052871075        3.96011316142005        1.36390514777431
H          -10.14185893276041        2.74396954312446       -1.52230817724476
H           -9.11542581082985        4.06163456101385       -2.08680019100577
H          -10.50173041240340        4.40229536874546       -1.03795543423175
H           -7.07318439355861        3.00579231257395       -1.15812388422356
H            0.91984314309597        3.92464839879790       -1.00068524426175
H            1.54283997291243        6.26696188903023       -1.22927060774927
H            3.71061819931429        7.74362295698850       -1.94672356294734
H            3.48587079115602        7.98492671208815       -0.21823144385532
H            5.07177658162128        7.51186940258157       -0.84070361533862
H            5.60069520969792        5.27458988810280       -0.42706048380802
H            6.13474302941603        3.79673437743839        2.11586165630516
H            8.43663614644454        4.61576350389185        2.51867778226349
H           10.12718002700248        4.46386881834206        0.73975323013354
H           10.26208948504162        2.44749839182848       -1.73794418207481
H            9.39082421720078        3.60359325046634       -2.74220029190873
H           10.63672579494667        4.16898947715707       -1.61694432910496
H            7.22879707310670        2.71140281438130       -1.85949242629411
H            7.15216326417641        0.89472323290172        0.17414711952830
H            8.38075972317520       -3.92855584658812       -0.78466165498132
H            8.18751490297158       -6.13377183726533        0.28677883864886
H            6.72752010390354       -6.44347279968537        2.24633017286320
H            4.68900073706241       -5.51293371744225        3.45787338699517
H            4.53036534771055       -3.75561346748490        3.61527036140614
H            5.85209540790611       -4.60504527152952        4.41732950027300
H            5.69607238311676       -2.30495538322769        2.11445403462511
H            7.34375264413779       -0.37562710929651       -2.29795118043137
H            9.44467436213535        0.37450868853147       -3.33887098663335
H           11.60887191081706       -0.11893790314850       -2.26787797206091
H           12.36819715661022       -0.57659678121141        0.63351101099799
H           12.81735143918889       -1.65291316898486       -0.68648978750272
H           11.96568157228291       -2.29095768504088        0.72899181538070
H            9.56846601297007       -2.12037167284743        0.90225358988556
H            4.62793753011949       -2.49681969578636       -0.32211254475062
H            2.54739955740530       -2.75653839136693        1.82160565592750
H            2.34049413601362       -5.22061695222811        1.80385528076092
H            1.91071738910933       -6.40314838217624       -0.31745625562725
H            1.71208270217652       -5.12930263274904       -2.41885853367409
H            1.93087488007128       -2.66570378288027       -2.39454302875685
H           -5.95050879672932       -2.85627633099469        1.67849891401161

 projected vibrational frequencies (cm⁻¹)
eigval :       -0.00    -0.00     0.00     0.00     0.00     0.00
eigval :        5.85     6.66    12.79    13.05    14.88    15.69
eigval :       17.36    18.09    19.01    23.01    23.34    26.08
eigval :       28.58    31.10    32.19    34.76    37.13    37.26
eigval :       38.94    41.39    45.00    48.42    50.03    52.32
eigval :       53.18    55.40    58.12    59.13    61.50    62.22
eigval :       63.18    66.91    68.62    72.30    73.25    75.22
eigval :       79.76    87.12    87.60    92.01   106.23   113.33
eigval :      121.74   133.52   148.22   158.50   166.85   169.49
eigval :      175.17   178.07   183.04   186.95   191.03   195.25
eigval :      199.66   203.13   203.84   204.72   206.56   209.88
eigval :      214.30   217.20   217.70   219.31   222.43   228.33
eigval :      235.06   238.57   241.07   241.76   243.63   244.19
eigval :      248.62   263.13   268.89   283.68   286.69   292.09
eigval :      304.42   314.71   318.14   327.84   328.63   333.99
eigval :      350.03   359.54   370.07   373.76   377.68   380.03
eigval :      383.22   389.89   394.73   397.63   409.22   411.52
eigval :      413.22   414.16   414.51   415.99   416.98   421.23
eigval :      423.47   426.84   431.51   439.69   444.02   446.57
eigval :      455.68   460.07   475.78   481.57   487.60   498.18
eigval :      501.31   502.92   503.71   504.79   505.07   509.42
eigval :      513.75   517.54   522.21   525.54   531.85   533.52
eigval :      535.22   537.42   539.79   541.03   543.74   546.49
eigval :      552.37   556.61   571.34   572.49   582.13   588.23
eigval :      593.06   594.27   599.31   604.29   609.76   611.12
eigval :      618.81   620.71   627.22   630.69   638.35   640.02
eigval :      647.43   653.90   655.74   657.18   663.62   663.87
eigval :      665.43   668.48   669.66   672.39   673.36   677.36
eigval :      680.84   695.53   699.62   703.13   709.78   711.37
eigval :      755.68   760.91   769.96   772.81   780.91   782.74
eigval :      786.29   788.76   789.76   791.40   793.76   796.56
eigval :      802.18   803.41   803.75   806.63   807.61   810.22
eigval :      825.12   830.60   840.69   842.14   849.96   857.57
eigval :      857.87   861.44   872.41   874.92   881.48   881.76
eigval :      882.07   882.62   884.53   884.81   885.86   887.24
eigval :      887.33   889.23   895.67   895.81   896.51   897.43
eigval :      901.64   903.74   907.51   911.61   916.04   920.36
eigval :      923.03   924.36   924.92   925.68   925.92   926.39
eigval :      927.38   927.43   927.47   927.86   930.40   934.47
eigval :      955.14   979.62   986.45   986.88   987.25   987.55
eigval :      988.92   989.17   991.42   993.64   995.11   995.21
eigval :      998.63  1000.13  1013.73  1015.66  1018.00  1019.09
eigval :     1027.80  1028.13  1029.70  1029.99  1030.18  1030.31
eigval :     1030.88  1031.45  1034.30  1035.05  1045.29  1053.14
eigval :     1059.47  1071.07  1077.98  1078.78  1087.47  1101.90
eigval :     1108.37  1112.59  1113.93  1115.05  1128.57  1129.88
eigval :     1132.83  1134.54  1135.78  1136.27  1148.44  1157.61
eigval :     1163.17  1163.55  1176.54  1177.78  1178.46  1181.17
eigval :     1183.53  1186.50  1186.98  1187.83  1188.48  1188.66
eigval :     1190.72  1191.72  1193.45  1204.22  1206.21  1207.42
eigval :     1208.13  1209.60  1217.01  1225.01  1227.37  1243.19
eigval :     1248.00  1251.28  1255.84  1257.87  1264.49  1268.28
eigval :     1268.57  1269.58  1271.56  1273.11  1273.28  1273.63
eigval :     1274.66  1275.47  1275.76  1283.85  1289.22  1297.11
eigval :     1299.80  1303.47  1304.73  1305.72  1311.86  1313.91
eigval :     1315.86  1316.51  1318.31  1322.28  1323.78  1328.96
eigval :     1330.61  1332.50  1333.56  1334.14  1334.82  1346.92
eigval :     1357.12  1358.82  1362.70  1367.75  1370.04  1386.81
eigval :     1392.83  1400.83  1401.16  1401.33  1401.56  1402.49
eigval :     1403.15  1403.76  1404.61  1405.14  1405.99  1412.24
eigval :     1414.77  1418.24  1433.54  1433.83  1434.67  1435.08
eigval :     1436.14  1437.26  1445.76  1447.77  1456.44  1461.14
eigval :     1467.94  1469.39  1470.14  1471.41  1473.36  1474.03
eigval :     1475.50  1476.48  1478.60  1478.90  1479.05  1479.60
eigval :     1479.88  1482.52  1483.09  1483.19  1483.23  1483.27
eigval :     1484.94  1485.26  1485.75  1486.99  1488.42  1488.77
eigval :     1488.79  1489.52  1498.27  1500.01  1509.08  1515.66
eigval :     1526.05  1528.04  1565.69  1568.10  1572.80  1574.97
eigval :     1575.55  1575.76  1577.84  1579.36  1579.61  1582.28
eigval :     1582.40  1585.72  1590.51  1592.82  1593.34  1594.89
eigval :     1598.56  1600.12  2994.33  2995.26  2995.74  2995.76
eigval :     2996.03  2996.08  2998.59  3001.57  3009.53  3010.09
eigval :     3025.93  3026.38  3030.43  3030.96  3035.57  3036.30
eigval :     3036.47  3037.27  3038.37  3039.72  3039.88  3040.03
eigval :     3041.15  3041.19  3065.54  3066.31  3068.57  3069.89
eigval :     3071.40  3071.49  3076.12  3076.69  3077.71  3078.37
eigval :     3078.88  3078.91  3079.02  3079.25  3079.73  3079.88
eigval :     3080.11  3080.14  3082.20  3082.90  3083.02  3083.58
eigval :     3084.96  3085.49  3086.15  3086.42  3088.50  3090.33
eigval :     3091.05  3091.64  3092.20  3092.40  3092.88  3095.20
eigval :     3096.09  3096.49  3097.12  3098.93  3099.59  3100.62
eigval :     3107.40  3107.89  3108.67  3109.12  3117.28  3150.67

   temp. (K)  partition function   enthalpy   heat capacity  entropy
                                   cal/mol     cal/K/mol   cal/K/mol   J/K/mol
 298.15  VIB  0.293E+45            51135.805    299.362    328.716
         ROT  0.542E+09              888.752      2.981     42.947
         INT  0.159E+54            52024.557    302.343    371.664
         TR   0.407E+29             1481.254      4.968     47.126
         TOT                       53505.8110   307.3108   418.7900  1752.2173

       T/K    H(0)-H(T)+PV         H(T)/Eh          T*S/Eh         G(T)/Eh
   ------------------------------------------------------------------------
    298.15    0.852669E-01    0.137663E+01    0.198981E+00    0.117765E+01
   ------------------------------------------------------------------------

         :::::::::::::::::::::::::::::::::::::::::::::::::::::
         ::                  THERMODYNAMIC                  ::
         :::::::::::::::::::::::::::::::::::::::::::::::::::::
         :: total free energy        -238.815026873763 Eh   ::
         ::.................................................::
         :: total energy             -239.992679077328 Eh   ::
         :: zero point energy           1.291365896450 Eh   ::
         :: G(RRHO) w/o ZPVE           -0.113713692885 Eh   ::
         :: G(RRHO) contrib.            1.177652203565 Eh   ::
         :::::::::::::::::::::::::::::::::::::::::::::::::::::

           -------------------------------------------------
          | TOTAL ENERGY             -239.992679077328 Eh   |
          | TOTAL ENTHALPY           -238.616046243504 Eh   |
          | TOTAL FREE ENERGY        -238.815026873763 Eh   |
          | GRADIENT NORM               0.000094195056 Eh/α |
           -------------------------------------------------

 * finished run on 2025/08/22 at 02:56:05.882
