   * xtb version 6.7.1 (edcfbbe) compiled by 'albert@albert-system' on 2024-07-22

   ID    Z sym.   atoms
    1    6 C      1-6, 8-20, 22-33, 35-41, 43-49, 51-57, 59-68, 70-86, 88-94
    2    7 N      7, 21, 42, 58, 69, 87
    3    5 B      34, 50
    4    1 H      95-164

          program call               : xtb data2507/gas/m-ν-DABNA/m-ν-DABNA.xyz --gfn 2 --ohess vtight --parallel 40 --molden --ceasefiles --namespace data2507/gas/m-ν-DABNA/m-ν-DABNA_gas_S0_preOpt
          :  Hamiltonian                  GFN2-xTB          :
 * total energy  :  -239.9220783 Eh     change       -0.1148385E-07 Eh
 * total energy  :  -239.9982061 Eh     change       -0.7612780E-01 Eh
 * total energy  :  -240.0282842 Eh     change       -0.3007806E-01 Eh
 * total energy  :  -240.0394115 Eh     change       -0.1112728E-01 Eh
 * total energy  :  -240.0458235 Eh     change       -0.6412034E-02 Eh
 * total energy  :  -240.0499623 Eh     change       -0.4138825E-02 Eh
 * total energy  :  -240.0530527 Eh     change       -0.3090421E-02 Eh
 * total energy  :  -240.0554886 Eh     change       -0.2435884E-02 Eh
 * total energy  :  -240.0573868 Eh     change       -0.1898155E-02 Eh
 * total energy  :  -240.0588726 Eh     change       -0.1485860E-02 Eh
 * total energy  :  -240.0727294 Eh     change       -0.3208297E-06 Eh
 * total energy  :  -240.0727296 Eh     change       -0.2371207E-06 Eh
 * total energy  :  -240.0727298 Eh     change       -0.1908646E-06 Eh
 * total energy  :  -240.0727300 Eh     change       -0.2088350E-06 Eh
 * total energy  :  -240.0727302 Eh     change       -0.1856218E-06 Eh
 * total energy  :  -240.0727304 Eh     change       -0.2157763E-06 Eh
 * total energy  :  -240.0727306 Eh     change       -0.1564264E-06 Eh
 * total energy  :  -240.0727307 Eh     change       -0.1012184E-06 Eh
 * total energy  :  -240.0727308 Eh     change       -0.9809460E-07 Eh
   *** GEOMETRY OPTIMIZATION CONVERGED AFTER 210 ITERATIONS ***

 final structure:
================
164
 xtb: 6.7.1 (edcfbbe)
C           -8.40663919092094       -6.37767260945303        0.74166154761236
C           -7.69738981443181       -5.29848358055223       -0.02024992428304
C           -6.95595977586541       -5.61517727684125       -1.15382488134308
C           -6.29613597096423       -4.62160864092121       -1.85420997510698
C           -6.36450425506652       -3.30585077883681       -1.44072429729895
C           -7.08935002948611       -2.97239665697727       -0.29740256157309
N           -7.14633936265435       -1.64989531817160        0.15267594952877
C           -8.32752675421539       -1.14683157665595        0.70791232825807
C           -8.28771223278301       -0.25974504781164        1.78256857808369
C           -9.46240144706147        0.25093795171111        2.29848367195823
C          -10.68465250018463       -0.12182969194579        1.76924726318747
C          -10.74403557373993       -1.01824789798404        0.70715437261658
C          -12.07067745303362       -1.42259319744208        0.13711871026564
C           -9.56475981178125       -1.51838696699372        0.18249283318165
C           -6.02240580050577       -0.82389470471570        0.04047766848951
C           -6.18435821166875        0.53753704095793       -0.18169932973536
C           -5.06979067930666        1.37062174715889       -0.24444457489693
C           -3.76662192202795        0.83725563999796       -0.18975813125619
C           -3.63053550007296       -0.55498914470998       -0.01077874841359
C           -4.74788227030916       -1.36733707526904        0.15364715107108
N           -2.37054057666712       -1.11569387991280        0.02467801122045
C           -2.28313239140170       -2.53626090657850        0.06171804758294
C           -2.51792928679610       -3.26937134250405       -1.09436141354395
C           -2.42867702252026       -4.64918738628698       -1.06685481468193
C           -2.09820447661364       -5.30153945255404        0.10866245957539
C           -1.86607058380906       -4.57195985191627        1.26261261881085
C           -1.96285102496269       -3.19285469026666        1.24420535268193
C           -1.19918065530220       -0.38001703157179        0.05085821744888
C            0.00981460714289       -1.06132064609091        0.13716185815709
C            1.22174420151714       -0.39318229101108        0.26830175768366
C            1.24680006042961        1.02185396980776        0.33190820264809
C            0.02567568313632        1.66317726271279        0.13666652408838
C           -1.20514832615251        1.03414353749857       -0.03755672566435
B           -2.55007860749372        1.73741383827754       -0.31112650121164
C           -2.87023563825833        3.20396737146193       -0.67549761266449
C           -1.92818070589827        4.16913575481440       -1.05617382880599
C           -2.25821246498788        5.48312356898006       -1.28823949267335
C           -3.57775027930414        5.90950248255003       -1.13639177796529
C           -3.93433218743678        7.35045983178542       -1.34299460315863
C           -4.53997577969763        4.97729130883002       -0.81329115975988
C           -4.21767926335366        3.62700375483358       -0.61897732435297
N           -5.24394630544411        2.73242345715168       -0.37323475504774
C           -6.57782813314655        3.21661806774737       -0.23912500683574
C           -7.12962676981058        3.35238977151516        1.02784296622467
C           -8.43976575952524        3.77490757495762        1.15792352578758
C           -9.19387836005808        4.06493458367949        0.03481130487207
C           -8.65029708255120        3.94004889447293       -1.23808968327891
C           -9.47145141087818        4.23185627636071       -2.45700058471058
C           -7.33654876597171        3.50968824485688       -1.36370599964612
B            2.61053920757667        1.71615686062358        0.52245640851702
C            2.96210444910865        3.19209154833074        0.81152559520530
C            2.04674601712577        4.18018890548129        1.19810393899204
C            2.40894696710149        5.48715239736447        1.42226888499278
C            3.73965516536551        5.87857440112230        1.27629759096220
C            4.13684516654059        7.30566205265162        1.50380600713020
C            4.67561717231614        4.92426221905351        0.94054667904540
C            4.31543493283810        3.58752144555770        0.72043299824700
N            5.31723272802621        2.67558595861930        0.43716500517860
C            6.66377388280018        3.13934234779469        0.36474118244722
C            7.49280122056032        3.04035506662101        1.47570737170212
C            8.80683676150000        3.45837323257730        1.38289645299706
C            9.29063016632534        3.98018850607843        0.19537414012192
C            8.46876731804898        4.09274725486957       -0.91871265212651
C            8.99038683041749        4.64116666284242       -2.21186411474680
C            7.15150278407666        3.66223883301415       -0.82317418672664
C            5.12011332221146        1.31442048434178        0.33789397105452
C            6.21269823939129        0.46950160814504        0.15544682335917
C            6.03302687821353       -0.90767309065817        0.16147650917433
N            7.14244740729519       -1.75407331584990        0.05193019121179
C            8.36808361113986       -1.36863077502829        0.60456115261831
C            8.41735097195091       -0.68095826719984        1.81615705295561
C            9.63408610978097       -0.28178231778650        2.33303476370946
C           10.81116035960472       -0.57180136605634        1.66712902319909
C           10.78189379934740       -1.27089093619460        0.46483026980867
C           12.05962008875160       -1.58412754771128       -0.25458668561492
C            9.56030180607766       -1.65824559504981       -0.05835392477068
C            7.02475274608610       -2.97944857655853       -0.61027716748073
C            6.21770208466097       -3.10420474476488       -1.74026044870020
C            6.09127429495407       -4.32914610608346       -2.36523606684861
C            6.77280882798520       -5.43541925263248       -1.89109945594094
C            7.59513656718861       -5.32572097566057       -0.77448262864733
C            8.32910083433340       -6.52726034674687       -0.25895571119994
C            7.70899443405839       -4.10041241530870       -0.14076365679982
C            4.75745349084065       -1.44766057055547        0.27646533791475
C            3.65088300991037       -0.60526902588951        0.31860224613807
C            3.81037983322502        0.79501634899281        0.38922153862051
N            2.38183281029281       -1.14510708270021        0.32859063332282
C            2.25691756695000       -2.56394802490144        0.29187407214191
C            1.94079305230368       -3.26093105214983        1.45091452085752
C            1.79133019770140       -4.63537779173472        1.40941412898992
C            1.96529915475267       -5.31849491011462        0.21773007753663
C            2.29120110694361       -4.62543087346507       -0.93598639894656
C            2.43324829194849       -3.25045298858892       -0.90325223464941
C           -7.75247016726003       -3.98107404776548        0.40108559465715
H           -9.02874524724764       -6.97061043678050        0.07293695593596
H           -7.68353051796074       -7.04873683045672        1.20493657739715
H           -9.03471959475088       -5.95548020482394        1.52197753799667
H           -6.90043858614438       -6.64157914142637       -1.48582564263246
H           -5.73021697945388       -4.87218762917359       -2.73968628977827
H           -5.86008137956686       -2.53028531802865       -1.99680951337241
H           -7.33546522443311        0.02432549462653        2.20399751556106
H           -9.42306487942468        0.94006687265261        3.12937884877124
H          -11.59926352642565        0.28008042723308        2.18002123137956
H          -12.68239302594186       -1.89794840620518        0.90313652126450
H          -11.94464958691731       -2.11884661270871       -0.68807106497451
H          -12.61128339567134       -0.54819241623674       -0.22338112758439
H           -9.59494623555005       -2.20449349757855       -0.65228442584756
H           -7.18036585930606        0.93414056754737       -0.29565860792990
H           -4.64143897438860       -2.41975287315093        0.36413957498446
H           -2.77095308565617       -2.74958958741122       -2.00645510326841
H           -2.61355755530682       -5.21649980637434       -1.96670026639882
H           -2.02364011285599       -6.37843311295774        0.12649078697050
H           -1.61250773992540       -5.07895846508808        2.18168511523628
H           -1.78437969719771       -2.61376984521089        2.13819894453576
H            0.00728770229237       -2.13831194673512        0.09575445004686
H            0.03303778317440        2.73834401536306        0.11708909891858
H           -0.90275027086914        3.86469843955433       -1.19341823621737
H           -1.49766156671986        6.19396073868674       -1.57886774522930
H           -4.99846680017559        7.51605957411055       -1.19183670788379
H           -3.38115636505712        7.97989463318510       -0.64651993984387
H           -3.67211854513336        7.66466636422086       -2.35298044895748
H           -5.56626553954813        5.30066414215115       -0.71521328226677
H           -6.53086385734066        3.11960776577595        1.89536507905673
H           -8.87569194308195        3.87941609881108        2.14017995889001
H          -10.21741305062438        4.39231374089543        0.14567155869633
H           -9.95116519127892        3.31733132843734       -2.80745589621338
H           -8.84808086858821        4.61378736438528       -3.26219711725443
H          -10.25044612506006        4.95774781411638       -2.23628917697552
H           -6.89154536171812        3.39672462552524       -2.34209231402398
H            1.01664519232051        3.90006696018123        1.35047103521631
H            1.66725611597748        6.21631497702637        1.71624069677105
H            3.62596259426719        7.95690488262412        0.79491942520519
H            3.85455580991851        7.62266805189268        2.50727739263513
H            5.20990693490158        7.43692485782306        1.38562666467083
H            5.71253130170641        5.21785172740381        0.86181305017844
H            7.10238326431720        2.63156982006368        2.39529880794812
H            9.45828177686884        3.37770414249784        2.24012540241546
H           10.31913792810608        4.30494828801386        0.13285090414830
H            9.87685721140850        5.24885314926215       -2.04781453756337
H            9.25807630102937        3.82283411364345       -2.88091989566216
H            8.23365172678090        5.24468006769325       -2.70834030459524
H            6.49223746992772        3.73347853683323       -1.67639869673321
H            7.20811470075002        0.86482146188956        0.03354586822061
H            7.50027570829749       -0.46433247072885        2.34277264670354
H            9.66411367063868        0.25258316457705        3.27151446686485
H           11.75926718295247       -0.25858590916327        2.07922689433265
H           12.72155669637723       -2.16676482302351        0.38501844682412
H           12.57993846145084       -0.66451583831994       -0.52028105516515
H           11.86714516563347       -2.14942109823854       -1.16287262699208
H            9.52123690305272       -2.18959170151478       -0.99889851986881
H            5.69635329461793       -2.23865179141494       -2.12022019844491
H            5.46214492982203       -4.41837273515527       -3.23908706247761
H            6.67148251762116       -6.38932804949874       -2.38773532515355
H            7.62281454850190       -7.27140681053551        0.10856387352412
H            8.99898956182402       -6.25599834118291        0.55300208239779
H            8.91213602034307       -6.98782981591356       -1.05518051293904
H            8.33287772831486       -4.00418308559892        0.73665661747214
H            4.64183431136445       -2.51926577391038        0.30982833536112
H            1.80473844653819       -2.71646719563650        2.37362889308660
H            1.54082885465879       -5.17480670798250        2.31076127883078
H            1.84807036533575       -6.39134578028996        0.18814995759994
H            2.43163716452184       -5.15688672686469       -1.86525258108786
H            2.68061125763498       -2.69875896172503       -1.79788514264303
H           -8.31278855262376       -3.72281588659292        1.28862082693392

          :  Hamiltonian                  GFN2-xTB          :
         :: gradient norm              0.000041787700 Eh/a0 ::
         :: HOMO-LUMO gap              2.204421649374 eV    ::
         :: SCC energy              -244.467206686840 Eh    ::
         :: -> dispersion             -0.252017337266 Eh    ::
         :: repulsion energy           4.394475927539 Eh    ::

    * Orbital Energies and Occupations

         #    Occupation            Energy/Eh            Energy/eV
      -------------------------------------------------------------
         1        2.0000           -0.6576661             -17.8960
       ...           ...                  ...                  ...
       213        2.0000           -0.3824132             -10.4060
       214        2.0000           -0.3763022             -10.2397
       215        2.0000           -0.3731505             -10.1539
       216        2.0000           -0.3728451             -10.1456
       217        2.0000           -0.3680817             -10.0160
       218        2.0000           -0.3629307              -9.8758
       219        2.0000           -0.3572472              -9.7212
       220        2.0000           -0.3531488              -9.6097
       221        2.0000           -0.3439320              -9.3589
       222        2.0000           -0.3368843              -9.1671
       223        2.0000           -0.3355837              -9.1317
       224        2.0000           -0.3318552              -9.0302
       225        2.0000           -0.3258681              -8.8673 (HOMO)
       226                         -0.2448572              -6.6629 (LUMO)
       227                         -0.2330982              -6.3429
       228                         -0.2287332              -6.2241
       229                         -0.2283658              -6.2141
       230                         -0.2268281              -6.1723
       231                         -0.2263770              -6.1600
       232                         -0.2243111              -6.1038
       233                         -0.2239582              -6.0942
       234                         -0.2227612              -6.0616
       235                         -0.2224645              -6.0536
       236                         -0.2193394              -5.9685
       ...                                ...                  ...
       446                          0.7459736              20.2990
      -------------------------------------------------------------
                  HL-Gap            0.0810109 Eh            2.2044 eV

     #   Z          covCN         q      C6AA      α(0)
     1   6 C        3.758    -0.108    22.618     6.780
     2   6 C        2.966     0.016    27.645     8.624
     3   6 C        2.925    -0.051    29.271     8.872
     4   6 C        2.918    -0.033    28.811     8.802
     5   6 C        2.923    -0.053    29.312     8.878
     6   6 C        2.923     0.065    26.545     8.449
     7   7 N        2.754    -0.076    22.710     7.078
     8   6 C        2.923     0.065    26.545     8.449
     9   6 C        2.923    -0.052    29.299     8.877
    10   6 C        2.918    -0.032    28.803     8.801
    11   6 C        2.925    -0.051    29.264     8.871
    12   6 C        2.966     0.016    27.650     8.625
    13   6 C        3.758    -0.108    22.616     6.780
    14   6 C        2.928    -0.059    29.463     8.902
    15   6 C        2.924     0.064    26.564     8.452
    16   6 C        2.923    -0.092    30.323     9.030
    17   6 C        2.931     0.060    26.661     8.468
    18   6 C        2.897    -0.114    30.900     9.114
    19   6 C        2.928     0.060    26.655     8.467
    20   6 C        2.923    -0.092    30.311     9.029
    21   7 N        2.757    -0.056    22.318     7.016
    22   6 C        2.934     0.071    26.407     8.428
    23   6 C        2.923    -0.037    28.918     8.819
    24   6 C        2.920    -0.028    28.692     8.784
    25   6 C        2.920    -0.032    28.799     8.800
    26   6 C        2.920    -0.029    28.721     8.788
    27   6 C        2.922    -0.037    28.931     8.820
    28   6 C        2.928     0.059    26.678     8.470
    29   6 C        2.925    -0.090    30.261     9.021
    30   6 C        2.930     0.059    26.681     8.471
    31   6 C        2.883    -0.095    30.373     9.035
    32   6 C        2.930    -0.039    28.971     8.827
    33   6 C        2.884    -0.095    30.373     9.035
    34   5 B        2.723     0.187    18.579     7.223
    35   6 C        2.886    -0.088    30.212     9.011
    36   6 C        2.922    -0.037    28.909     8.817
    37   6 C        2.920    -0.054    29.341     8.883
    38   6 C        2.966     0.015    27.680     8.630
    39   6 C        3.758    -0.106    22.580     6.775
    40   6 C        2.926    -0.068    29.696     8.937
    41   6 C        2.924     0.057    26.724     8.478
    42   7 N        2.757    -0.053    22.271     7.009
    43   6 C        2.934     0.069    26.453     8.435
    44   6 C        2.922    -0.042    29.037     8.837
    45   6 C        2.919    -0.029    28.725     8.789
    46   6 C        2.925    -0.042    29.049     8.839
    47   6 C        2.966     0.019    27.576     8.614
    48   6 C        3.758    -0.110    22.651     6.785
    49   6 C        2.927    -0.048    29.198     8.862
    50   5 B        2.723     0.187    18.577     7.222
    51   6 C        2.886    -0.088    30.211     9.011
    52   6 C        2.922    -0.037    28.909     8.817
    53   6 C        2.920    -0.054    29.339     8.882
    54   6 C        2.966     0.015    27.678     8.629
    55   6 C        3.758    -0.106    22.581     6.775
    56   6 C        2.927    -0.068    29.693     8.936
    57   6 C        2.925     0.057    26.724     8.478
    58   7 N        2.756    -0.054    22.279     7.010
    59   6 C        2.934     0.069    26.445     8.434
    60   6 C        2.922    -0.041    29.023     8.835
    61   6 C        2.919    -0.030    28.739     8.791
    62   6 C        2.925    -0.042    29.050     8.839
    63   6 C        2.966     0.020    27.567     8.612
    64   6 C        3.758    -0.110    22.657     6.786
    65   6 C        2.928    -0.049    29.208     8.863
    66   6 C        2.929     0.060    26.658     8.467
    67   6 C        2.923    -0.093    30.339     9.033
    68   6 C        2.925     0.064    26.562     8.452
    69   7 N        2.754    -0.076    22.718     7.079
    70   6 C        2.923     0.065    26.544     8.449
    71   6 C        2.923    -0.052    29.298     8.876
    72   6 C        2.918    -0.032    28.802     8.801
    73   6 C        2.925    -0.051    29.265     8.871
    74   6 C        2.966     0.016    27.647     8.625
    75   6 C        3.758    -0.108    22.616     6.780
    76   6 C        2.928    -0.059    29.460     8.901
    77   6 C        2.923     0.065    26.544     8.449
    78   6 C        2.923    -0.053    29.312     8.879
    79   6 C        2.918    -0.033    28.812     8.802
    80   6 C        2.925    -0.051    29.273     8.873
    81   6 C        2.966     0.016    27.646     8.625
    82   6 C        3.758    -0.108    22.617     6.780
    83   6 C        2.928    -0.059    29.466     8.902
    84   6 C        2.922    -0.093    30.333     9.032
    85   6 C        2.926     0.060    26.651     8.466
    86   6 C        2.897    -0.114    30.900     9.114
    87   7 N        2.757    -0.057    22.336     7.019
    88   6 C        2.934     0.072    26.394     8.426
    89   6 C        2.922    -0.038    28.938     8.822
    90   6 C        2.920    -0.028    28.712     8.787
    91   6 C        2.920    -0.032    28.794     8.799
    92   6 C        2.920    -0.028    28.699     8.785
    93   6 C        2.922    -0.036    28.901     8.816
    94   6 C        2.928    -0.059    29.465     8.902
    95   1 H        0.925     0.044     2.399     2.422
    96   1 H        0.925     0.045     2.388     2.417
    97   1 H        0.925     0.040     2.447     2.446
    98   1 H        0.926     0.026     2.637     2.539
    99   1 H        0.926     0.027     2.634     2.538
   100   1 H        0.926     0.030     2.581     2.512
   101   1 H        0.926     0.031     2.573     2.508
   102   1 H        0.926     0.028     2.622     2.532
   103   1 H        0.926     0.027     2.632     2.537
   104   1 H        0.925     0.044     2.390     2.418
   105   1 H        0.925     0.040     2.452     2.449
   106   1 H        0.925     0.044     2.398     2.422
   107   1 H        0.926     0.030     2.593     2.518
   108   1 H        0.926     0.020     2.736     2.587
   109   1 H        0.926     0.019     2.752     2.594
   110   1 H        0.926     0.041     2.440     2.443
   111   1 H        0.926     0.036     2.497     2.471
   112   1 H        0.926     0.034     2.527     2.486
   113   1 H        0.926     0.035     2.517     2.481
   114   1 H        0.926     0.041     2.431     2.438
   115   1 H        0.926     0.011     2.872     2.650
   116   1 H        0.926     0.040     2.454     2.450
   117   1 H        0.926     0.033     2.538     2.491
   118   1 H        0.926     0.019     2.741     2.589
   119   1 H        0.925     0.034     2.525     2.485
   120   1 H        0.925     0.042     2.425     2.435
   121   1 H        0.925     0.041     2.433     2.439
   122   1 H        0.926     0.018     2.770     2.603
   123   1 H        0.926     0.039     2.468     2.457
   124   1 H        0.926     0.035     2.511     2.478
   125   1 H        0.926     0.034     2.535     2.490
   126   1 H        0.924     0.050     2.321     2.383
   127   1 H        0.925     0.046     2.369     2.407
   128   1 H        0.925     0.044     2.393     2.419
   129   1 H        0.926     0.041     2.440     2.443
   130   1 H        0.926     0.034     2.535     2.490
   131   1 H        0.926     0.020     2.739     2.588
   132   1 H        0.925     0.042     2.424     2.435
   133   1 H        0.925     0.041     2.431     2.438
   134   1 H        0.925     0.034     2.525     2.485
   135   1 H        0.926     0.017     2.779     2.607
   136   1 H        0.926     0.039     2.461     2.453
   137   1 H        0.926     0.035     2.510     2.477
   138   1 H        0.926     0.033     2.538     2.491
   139   1 H        0.925     0.044     2.398     2.422
   140   1 H        0.924     0.050     2.319     2.381
   141   1 H        0.925     0.047     2.357     2.401
   142   1 H        0.926     0.041     2.439     2.442
   143   1 H        0.926     0.020     2.736     2.587
   144   1 H        0.926     0.031     2.576     2.510
   145   1 H        0.926     0.027     2.625     2.534
   146   1 H        0.926     0.027     2.634     2.538
   147   1 H        0.925     0.044     2.393     2.419
   148   1 H        0.925     0.044     2.395     2.420
   149   1 H        0.925     0.040     2.452     2.449
   150   1 H        0.926     0.029     2.594     2.519
   151   1 H        0.926     0.030     2.582     2.513
   152   1 H        0.926     0.027     2.635     2.539
   153   1 H        0.926     0.026     2.639     2.541
   154   1 H        0.925     0.044     2.391     2.418
   155   1 H        0.925     0.040     2.449     2.447
   156   1 H        0.925     0.044     2.398     2.422
   157   1 H        0.926     0.030     2.592     2.518
   158   1 H        0.926     0.019     2.751     2.594
   159   1 H        0.926     0.041     2.434     2.440
   160   1 H        0.926     0.035     2.511     2.478
   161   1 H        0.926     0.034     2.525     2.485
   162   1 H        0.926     0.037     2.494     2.470
   163   1 H        0.926     0.042     2.428     2.436
   164   1 H        0.926     0.030     2.589     2.516

molecular dipole:
                 x           y           z       tot (Debye)
 q only:       -0.077      -0.497      -0.349
   full:       -0.069      -0.713      -0.348       2.024

 projected vibrational frequencies (cm⁻¹)
eigval :       -0.00    -0.00    -0.00     0.00     0.00     0.00
eigval :        6.21     6.86    11.93    12.63    13.19    13.94
eigval :       14.59    15.29    16.00    16.59    16.76    18.22
eigval :       19.07    19.95    20.95    22.32    24.24    25.38
eigval :       28.58    29.36    36.96    40.45    42.38    44.13
eigval :       44.57    45.36    45.68    49.56    50.92    51.54
eigval :       52.02    55.41    57.23    60.61    60.97    68.60
eigval :       73.35    74.30    80.70    90.92    91.79   104.72
eigval :      121.86   133.45   147.18   160.47   165.56   169.95
eigval :      175.79   180.00   180.94   187.02   189.55   196.90
eigval :      199.32   200.68   201.87   204.54   205.65   207.26
eigval :      210.80   212.73   214.44   215.99   217.36   227.00
eigval :      230.36   238.29   239.04   243.25   245.29   257.98
eigval :      271.04   283.49   287.06   292.36   294.95   295.46
eigval :      302.06   312.85   317.73   326.14   327.13   335.18
eigval :      344.75   356.68   373.68   374.57   374.84   376.77
eigval :      388.00   396.88   400.38   404.23   407.26   411.21
eigval :      412.06   414.16   415.23   416.74   419.32   421.40
eigval :      427.54   428.28   430.63   444.38   446.62   450.35
eigval :      458.40   460.79   478.56   484.44   488.92   501.47
eigval :      502.53   504.38   504.86   504.99   506.38   511.09
eigval :      518.49   522.85   526.01   531.13   534.43   535.80
eigval :      540.52   541.60   544.90   550.75   553.99   554.28
eigval :      573.17   575.79   580.21   580.85   584.67   590.38
eigval :      594.75   595.93   601.89   607.66   616.02   618.01
eigval :      621.73   623.83   630.08   636.14   641.82   645.64
eigval :      649.19   658.21   660.20   661.49   663.22   664.15
eigval :      670.56   673.44   674.60   677.82   679.61   680.36
eigval :      688.52   700.91   705.12   708.81   710.38   711.09
eigval :      752.65   758.30   770.24   782.64   785.02   785.56
eigval :      788.81   789.34   790.93   801.63   803.14   808.88
eigval :      809.99   811.71   812.96   817.03   822.64   823.96
eigval :      825.47   843.02   845.00   849.37   862.58   865.05
eigval :      868.51   873.39   876.16   876.50   880.95   880.99
eigval :      886.07   886.12   887.14   888.14   888.30   888.41
eigval :      888.74   889.71   896.50   896.75   898.66   899.15
eigval :      907.05   908.86   911.95   918.49   923.20   923.58
eigval :      923.84   924.26   924.53   924.68   926.39   927.65
eigval :      928.14   928.32   928.70   931.14   931.52   938.64
eigval :      961.32   983.69   985.69   985.71   988.05   988.97
eigval :      989.50   991.06   994.50   995.18   996.10   996.99
eigval :     1002.91  1003.01  1013.95  1014.07  1020.03  1022.25
eigval :     1028.09  1028.70  1030.59  1030.65  1031.65  1031.69
eigval :     1032.21  1032.28  1032.66  1032.72  1037.51  1037.57
eigval :     1074.86  1079.47  1079.94  1086.66  1097.80  1106.43
eigval :     1113.01  1113.80  1115.34  1120.63  1128.60  1128.82
eigval :     1133.73  1133.78  1134.75  1134.82  1155.39  1163.18
eigval :     1169.19  1170.29  1178.88  1180.14  1181.74  1181.95
eigval :     1185.16  1186.16  1187.64  1188.58  1189.53  1190.07
eigval :     1191.21  1192.54  1198.31  1207.30  1207.44  1211.62
eigval :     1212.53  1213.10  1232.09  1232.32  1240.97  1251.48
eigval :     1254.16  1259.23  1259.65  1267.51  1268.85  1269.29
eigval :     1272.85  1273.58  1273.76  1274.13  1274.52  1274.86
eigval :     1278.70  1282.88  1283.93  1290.97  1293.95  1298.94
eigval :     1302.00  1308.27  1311.55  1312.37  1312.45  1314.12
eigval :     1315.13  1315.88  1322.99  1323.07  1331.03  1331.57
eigval :     1331.66  1337.05  1338.06  1338.39  1344.71  1344.94
eigval :     1357.86  1359.22  1376.11  1389.37  1403.09  1403.52
eigval :     1403.58  1403.62  1404.06  1404.14  1404.28  1404.30
eigval :     1409.90  1417.63  1423.95  1425.92  1433.26  1434.29
eigval :     1435.58  1436.21  1436.72  1436.75  1437.32  1440.88
eigval :     1445.74  1452.86  1467.33  1467.63  1472.41  1472.49
eigval :     1473.27  1473.77  1477.66  1477.81  1479.56  1480.32
eigval :     1481.66  1481.95  1482.11  1482.16  1482.72  1482.96
eigval :     1482.98  1483.06  1483.29  1483.37  1485.63  1486.20
eigval :     1488.97  1489.26  1489.77  1489.84  1490.40  1490.53
eigval :     1505.12  1539.05  1542.00  1547.68  1549.53  1562.18
eigval :     1569.85  1578.67  1579.33  1579.44  1584.14  1584.17
eigval :     1584.22  1584.39  1585.93  1586.07  1597.20  1597.42
eigval :     1598.62  1598.73  1599.29  1599.39  1604.40  1604.42
eigval :     1604.59  1604.67  2997.84  2999.48  3000.95  3001.00
eigval :     3002.93  3003.52  3004.94  3004.98  3014.55  3014.81
eigval :     3017.84  3017.97  3019.63  3020.63  3034.57  3037.22
eigval :     3037.29  3037.81  3040.03  3042.70  3044.17  3044.28
eigval :     3044.46  3044.52  3069.34  3069.80  3071.20  3072.00
eigval :     3072.14  3073.33  3075.66  3075.69  3076.99  3077.23
eigval :     3077.79  3077.89  3077.91  3078.32  3078.64  3078.76
eigval :     3081.11  3081.98  3082.29  3083.61  3083.69  3083.91
eigval :     3084.11  3084.56  3087.15  3087.39  3088.60  3089.89
eigval :     3092.42  3093.75  3094.76  3094.98  3095.68  3096.00
eigval :     3098.05  3098.63  3098.74  3099.49  3103.58  3103.80
eigval :     3105.51  3105.72  3108.87  3110.65  3114.71  3144.21

   temp. (K)  partition function   enthalpy   heat capacity  entropy
                                   cal/mol     cal/K/mol   cal/K/mol   J/K/mol
 298.15  VIB  0.504E+48            51352.610    293.781    332.716
         ROT  0.566E+09              888.752      2.981     43.032
         INT  0.285E+57            52241.363    296.761    375.748
         TR   0.407E+29             1481.254      4.968     47.126
         TOT                       53722.6167   301.7296   422.8740  1769.3048

       T/K    H(0)-H(T)+PV         H(T)/Eh          T*S/Eh         G(T)/Eh
   ------------------------------------------------------------------------
    298.15    0.856124E-01    0.138068E+01    0.200921E+00    0.117975E+01
   ------------------------------------------------------------------------

         :::::::::::::::::::::::::::::::::::::::::::::::::::::
         ::                  THERMODYNAMIC                  ::
         :::::::::::::::::::::::::::::::::::::::::::::::::::::
         :: total free energy        -238.892976538947 Eh   ::
         ::.................................................::
         :: total energy             -240.072730759302 Eh   ::
         :: zero point energy           1.295062862256 Eh   ::
         :: G(RRHO) w/o ZPVE           -0.115308641902 Eh   ::
         :: G(RRHO) contrib.            1.179754220354 Eh   ::
         :::::::::::::::::::::::::::::::::::::::::::::::::::::

           -------------------------------------------------
          | TOTAL ENERGY             -240.072730759302 Eh   |
          | TOTAL ENTHALPY           -238.692055457899 Eh   |
          | TOTAL FREE ENERGY        -238.892976538947 Eh   |
          | GRADIENT NORM               0.000041598036 Eh/α |
          | HOMO-LUMO GAP               2.204418776981 eV   |
           -------------------------------------------------

 * finished run on 2025/08/22 at 01:23:04.073
