   * xtb version 6.7.1 (edcfbbe) compiled by 'albert@albert-system' on 2024-07-22

   ID    Z sym.   atoms
    1    6 C      1-6, 8-20, 22-33, 35-41, 43-49, 51-57, 59-68, 70-86, 88-94
    2    7 N      7, 21, 42, 58, 69, 87
    3    5 B      34, 50
    4    1 H      95-164

          program call               : xtb data2507/gas/m-ν-DABNA/m-ν-DABNA_gas_S0_finalOpt.xtbopt.xyz --gfn 2 --spinpol --tblite --uhf 2 --ohess vtight --parallel 40 --molden --ceasefiles --namespace data2507/gas/m-ν-DABNA/m-ν-DABNA_gas_T1_preOpt
 * total energy  :  -239.9919793 Eh     change       -0.6936594E-07 Eh
 * total energy  :  -239.9924415 Eh     change       -0.4621540E-03 Eh
 * total energy  :  -239.9925487 Eh     change       -0.1072447E-03 Eh
 * total energy  :  -239.9925633 Eh     change       -0.1460842E-04 Eh
 * total energy  :  -239.9925765 Eh     change       -0.1319201E-04 Eh
 * total energy  :  -239.9925818 Eh     change       -0.5286719E-05 Eh
 * total energy  :  -239.9925920 Eh     change       -0.1020060E-04 Eh
 * total energy  :  -239.9925963 Eh     change       -0.4280367E-05 Eh
 * total energy  :  -239.9926004 Eh     change       -0.4143777E-05 Eh
 * total energy  :  -239.9926043 Eh     change       -0.3848735E-05 Eh
 * total energy  :  -239.9926714 Eh     change       -0.1793519E-06 Eh
 * total energy  :  -239.9926717 Eh     change       -0.3148523E-06 Eh
 * total energy  :  -239.9926719 Eh     change       -0.1673157E-06 Eh
 * total energy  :  -239.9926721 Eh     change       -0.2176367E-06 Eh
 * total energy  :  -239.9926726 Eh     change       -0.4239829E-06 Eh
 * total energy  :  -239.9926729 Eh     change       -0.3452633E-06 Eh
 * total energy  :  -239.9926733 Eh     change       -0.4009712E-06 Eh
 * total energy  :  -239.9926736 Eh     change       -0.3239951E-06 Eh
 * total energy  :  -239.9926737 Eh     change       -0.4284166E-07 Eh
   *** GEOMETRY OPTIMIZATION CONVERGED AFTER 56 ITERATIONS ***

 final structure:
================
164
 xtb: 6.7.1 (edcfbbe)
C           -5.65160207500405       -5.31765263979454        2.71228044067201
C           -6.39611279137399       -4.89724620481653        1.48050655016328
C           -7.05856765402044       -5.84216612612422        0.70395726907064
C           -7.76655621708655       -5.44720159890313       -0.41732479339538
C           -7.81608518721862       -4.11797708589901       -0.78786053836108
C           -7.15773303757191       -3.15629013327554       -0.02077531431050
N           -7.17462595263570       -1.81308690535977       -0.39199904034528
C           -8.27114557584596       -1.26346616838396       -1.06328244003382
C           -9.57508600348706       -1.59883153708541       -0.69878335570747
C          -10.64199034985104       -1.03118028748512       -1.36579533584052
C          -10.43250583487677       -0.12985585749222       -2.39660357209886
C           -9.13952728112893        0.21284043597508       -2.77471547146642
C           -8.89149077434722        1.14730558125743       -3.92132273404423
C           -8.07051584974565       -0.35468608129376       -2.10124973166771
C           -6.06203422677317       -0.99822158130654       -0.14087463864461
C           -6.25488023838213        0.32879418068675        0.24399533213667
C           -5.16161085960315        1.17300029408467        0.42615168217377
C           -3.84182177302873        0.68525977498492        0.30936688444877
C           -3.67820573028168       -0.67840826764259       -0.01812914497511
C           -4.77256178603229       -1.49841993536476       -0.28389261609760
N           -2.40107235167679       -1.20634691986763       -0.09467981534814
C           -2.28305685147590       -2.61562901555880       -0.25917334060919
C           -1.94357764267906       -3.15648903540479       -1.49404832842303
C           -1.81033465873321       -4.52541953647719       -1.63264691246312
C           -2.02106954655513       -5.35954085726814       -0.54689021521419
C           -2.36971852062989       -4.82194972727138        0.68059582307931
C           -2.49988986159974       -3.45329706164892        0.82769387633969
C           -1.24896854462837       -0.45870422381817       -0.01782479463291
C           -0.02473263687181       -1.11430068824793       -0.12515291259590
C            1.18098240717781       -0.41881605646425       -0.16929956346512
C            1.18451784704615        1.00398216161517       -0.13114362087603
C           -0.05609107020713        1.61124123615665        0.09285451474941
C           -1.28318023594569        0.94746382313420        0.20154925137896
B           -2.64547294170627        1.58927815633550        0.52999099418879
C           -2.99203250949770        3.00394611644648        1.03091875967499
C           -2.06858163450473        3.95844587958490        1.48540419301602
C           -2.42881924356180        5.23932446436832        1.83653412227840
C           -3.75855397244383        5.64884048960610        1.74081725030105
C           -4.14510435511588        7.05955640363431        2.06605863456851
C           -4.70587032409668        4.71842080280481        1.35518719945082
C           -4.35449831740706        3.40010108805108        1.04577774024387
N           -5.36736476837401        2.50147004631318        0.74520398801631
C           -6.71797098244638        2.93158080785850        0.87834948878638
C           -7.26782254691040        3.10649248195779        2.14271615614112
C           -8.58966620805540        3.49316555401882        2.26238245390891
C           -9.36375663975909        3.69267910193777        1.13257636289024
C           -8.82681593734587        3.51639693688751       -0.13715315314564
C           -9.67571745706797        3.69270806460534       -1.35754749532827
C           -7.49572110078909        3.14065768069200       -0.25263914370973
B            2.54049643025186        1.72400511867408       -0.25655733786892
C            2.87175878139294        3.21768574844100       -0.43670254588868
C            1.94884160564339        4.22081232434586       -0.76985177883189
C            2.29917365412799        5.54545428092411       -0.89850419946792
C            3.62261634303933        5.94571668253918       -0.71823958106069
C            4.00449553670291        7.38877115500214       -0.84940455674534
C            4.56972607134361        4.97831970280020       -0.43731764973971
C            4.22193148805655        3.63010151522162       -0.30266047165647
N            5.23371082787911        2.71099078318245       -0.06812078043477
C            6.55175761380395        3.20005506753385        0.15824079123291
C            6.88880000706854        3.71362816729223        1.40400348742839
C            8.17679801719911        4.16499860689943        1.62716394048726
C            9.12531854954643        4.09635315459360        0.62164487924827
C            8.80041155758794        3.58315202643548       -0.62832226116992
C            9.83132936055067        3.47463356995623       -1.70858888046936
C            7.50323313075487        3.14247213984417       -0.85142456954384
C            5.05783827093195        1.34128832318541       -0.08714226895522
C            6.16038690645916        0.49791892449472        0.03371568251428
C            6.00221788685854       -0.88391131977055       -0.07538786529963
N            7.12784876393578       -1.71646381497269       -0.04345883606776
C            7.05000800690479       -2.97739371944625        0.54991116916523
C            7.75568603971863       -4.05785677135151        0.02008413574387
C            7.64688176269444       -5.30466979479265        0.60344357422922
C            6.83295709928068       -5.49994586046941        1.70526844987242
C            6.12291420171310       -4.43391539330671        2.24760630975265
C            5.26252934058035       -4.63599879720870        3.45886950117175
C            6.24469083272318       -3.18180626575767        1.67128065987545
C            8.31198161046359       -1.28666867738221       -0.64983826703452
C            8.27520804404634       -0.55619851522124       -1.83787987018781
C            9.45109817820001       -0.12648681417395       -2.41874572429959
C           10.67278129182903       -0.41619186673501       -1.83501664184155
C           10.72827583195263       -1.14658802565018       -0.65270689808004
C           12.04729776955702       -1.44236314807190       -0.00432194902551
C            9.54694508172926       -1.57200810094239       -0.06873600837280
C            4.72933369956328       -1.42527436109955       -0.22298091101074
C            3.61453887870353       -0.58966799688021       -0.20956202892037
C            3.75158086836860        0.81520204119980       -0.18617827351961
N            2.34804615209007       -1.14326066780657       -0.25331019414293
C            2.24779292791294       -2.56492018009992       -0.27881870853654
C            2.36726132229673       -3.29031846302508        0.89975908134643
C            2.24744751703264       -4.66760265214400        0.87603839936292
C            2.00426965437745       -5.32351149133943       -0.31895070753206
C            1.88944342868650       -4.60092300311664       -1.49457671685659
C            2.01396800302188       -3.22346351758929       -1.47909059218157
C           -6.45830146465838       -3.56394593184832        1.11652621304575
H           -5.11054109730075       -6.24506894024226        2.53526941806458
H           -4.94792110495209       -4.54937176808832        3.02256689788159
H           -6.35087121050740       -5.49076813033037        3.53098386894546
H           -7.01860354795826       -6.88565736175239        0.97990304830122
H           -8.27659490500826       -6.18567922468593       -1.01887683539376
H           -8.35366063455400       -3.81781123774433       -1.67495283700778
H           -9.73963846214466       -2.29736948821011        0.10809673332549
H          -11.65013900688625       -1.28911018065109       -1.07546761329948
H          -11.27664486505793        0.30435661614036       -2.91293322434238
H           -9.76714216472537        1.75850447497991       -4.12652671911742
H           -8.66058729093748        0.57533932931458       -4.82066627353225
H           -8.04400441494361        1.79722937231111       -3.71489182038292
H           -7.06002363498660       -0.10022056236873       -2.38764263994548
H           -7.26511532407823        0.68045690085663        0.37913373607757
H           -4.63854135469416       -2.52176153830774       -0.59914867313583
H           -1.77870266746553       -2.49610758859945       -2.33250067420969
H           -1.54357437774907       -4.94297139926762       -2.59202487333775
H           -1.91540901511902       -6.42802876503331       -0.65857586046522
H           -2.53587754921585       -5.46993762747824        1.52778788003485
H           -2.76495025266300       -3.02077642760452        1.78106016257513
H           -0.01075152042992       -2.19047183996305       -0.17503863379602
H           -0.06690535908433        2.68077007916712        0.19412705463468
H           -1.03411811056542        3.67070790502479        1.58024532951633
H           -1.67885002865887        5.94102119992484        2.17428465605899
H           -3.85821999210244        7.30677449802759        3.08807333228552
H           -3.63337219283622        7.75575373559354        1.40158870480083
H           -5.21784703303366        7.20465888285324        1.96130995410174
H           -5.73964315161550        5.02680645940052        1.29716076355584
H           -6.65481291598296        2.94137065762693        3.01597574287464
H           -9.02085050083043        3.63265469328635        3.24263832100659
H          -10.39817920711727        3.98631802425977        1.23587393313340
H          -10.47949170590566        4.40165096858783       -1.17353142662895
H          -10.12073936894252        2.73501989229496       -1.62907255983524
H           -9.08094439771575        4.03998987595309       -2.19879262392472
H           -7.05383224910795        2.99584469663080       -1.22780495356991
H            0.92421326965745        3.93965451006446       -0.95174690054792
H            1.54901129255353        6.28390341732063       -1.14519884120850
H            3.71777253597274        7.77165740941927       -1.82860468551851
H            3.48932678814876        7.98610461383519       -0.09705039687964
H            5.07643367772633        7.52223109384326       -0.72328191207026
H            5.60280714954376        5.27885329495459       -0.33846626614080
H            6.14038593768466        3.75799528784876        2.18073189072854
H            8.44382962536469        4.56801678031747        2.59286257431558
H           10.13066495848422        4.44505088266925        0.80821235259296
H           10.25881209177472        2.47121195531262       -1.70348331408186
H            9.38690042189124        3.64489848432433       -2.68652949077548
H           10.63535870522044        4.19009192537617       -1.55412485135019
H            7.22535066269304        2.74043661880068       -1.81499360412248
H            7.15185677819672        0.89060698177889        0.19155249649272
H            8.37690588095503       -3.91415838131740       -0.85143032391403
H            8.19387226695049       -6.13698864641613        0.18466807240711
H            6.74696568704739       -6.48135797049007        2.14807413902038
H            5.88119265057257       -4.66483506743269        4.35643525925138
H            4.72561665358940       -5.58030569342444        3.39484463356504
H            4.54522576631421       -3.82636894656415        3.56672912985164
H            5.70938873294886       -2.34265679375665        2.09196804322595
H            7.32374420593930       -0.33978355702320       -2.29993819680932
H            9.41570373752750        0.42930226661598       -3.34483995023222
H           11.58871124520641       -0.08016706285346       -2.29957348870337
H           12.37402488354788       -0.58465381028142        0.58486909171989
H           12.80968639453282       -1.64272923886514       -0.75429801157225
H           11.97018170119480       -2.29981389659004        0.65977113774289
H            9.57498773567124       -2.13380303603877        0.85420464913764
H            4.62316571913810       -2.49318173686722       -0.33428712503409
H            2.54801744172461       -2.76524173150301        1.82577278871206
H            2.33957956788467       -5.22919714804563        1.79326690874571
H            1.90531832335109       -6.39838278779852       -0.33445344853380
H            1.70314546613841       -5.11147655062026       -2.42756825747663
H            1.92234565927311       -2.64810731409603       -2.38833564725171
H           -5.95959479480087       -2.81922635835960        1.72007621832596

 projected vibrational frequencies (cm⁻¹)
eigval :       -0.00    -0.00    -0.00     0.00     0.00     0.00
eigval :        6.08     7.03    12.98    13.43    15.27    16.33
eigval :       18.25    19.21    23.24    23.45    25.36    26.00
eigval :       28.68    31.13    32.15    35.29    37.69    37.85
eigval :       38.97    42.25    45.37    48.59    50.13    52.76
eigval :       52.99    55.07    58.31    59.04    60.39    62.11
eigval :       62.73    67.11    69.23    72.22    73.51    75.20
eigval :       79.65    87.01    87.74    92.17   106.34   114.02
eigval :      121.89   133.72   147.46   158.34   167.03   169.59
eigval :      175.29   178.08   183.15   186.69   190.95   195.13
eigval :      199.57   203.10   203.79   204.67   206.54   209.98
eigval :      214.17   217.21   217.72   219.40   222.55   228.29
eigval :      234.97   238.82   241.05   241.82   243.55   244.17
eigval :      248.62   263.34   268.66   283.68   286.82   292.12
eigval :      304.48   314.99   318.15   327.86   328.69   334.26
eigval :      349.96   359.19   370.02   373.71   377.57   380.03
eigval :      383.19   389.96   394.79   397.57   409.25   411.61
eigval :      413.30   414.30   414.59   416.05   417.08   421.18
eigval :      423.46   426.85   431.51   439.65   444.26   446.66
eigval :      455.60   460.07   475.77   481.62   487.50   498.25
eigval :      501.42   503.01   503.85   504.89   505.11   509.51
eigval :      513.80   517.70   522.28   525.44   531.85   533.59
eigval :      535.21   537.48   539.82   540.96   543.83   546.46
eigval :      552.40   556.67   571.28   572.47   582.10   588.36
eigval :      593.18   594.36   599.35   604.37   609.89   611.18
eigval :      618.81   620.78   627.25   630.86   638.27   640.19
eigval :      647.54   653.90   655.74   657.22   663.64   663.98
eigval :      665.41   668.58   669.66   672.38   673.39   677.45
eigval :      680.87   695.63   699.70   703.25   709.88   711.66
eigval :      755.74   760.97   770.10   772.90   781.06   782.87
eigval :      786.33   788.95   789.91   791.45   793.76   796.51
eigval :      802.05   803.54   803.80   806.74   807.59   809.95
eigval :      825.09   829.11   840.42   841.87   849.88   857.18
eigval :      857.66   861.32   872.49   875.00   881.47   881.92
eigval :      882.07   882.58   884.71   885.00   885.70   887.49
eigval :      887.56   889.20   895.72   895.83   896.50   897.44
eigval :      901.65   903.68   907.29   911.41   916.16   920.30
eigval :      923.22   924.61   924.99   925.84   926.10   926.47
eigval :      927.51   927.54   927.62   927.97   930.52   934.52
eigval :      955.01   979.34   986.33   986.82   987.18   987.50
eigval :      988.91   989.10   991.31   993.63   995.16   995.23
eigval :      998.68  1000.24  1014.13  1016.00  1018.33  1019.53
eigval :     1027.91  1028.24  1029.93  1030.28  1030.44  1030.55
eigval :     1031.31  1031.82  1034.63  1035.26  1045.26  1053.12
eigval :     1059.38  1070.86  1077.99  1078.77  1087.36  1101.63
eigval :     1108.25  1112.53  1113.81  1114.94  1128.47  1129.67
eigval :     1132.66  1134.55  1135.73  1136.09  1148.27  1157.73
eigval :     1163.62  1163.81  1177.35  1178.31  1178.93  1181.65
eigval :     1183.78  1186.92  1187.38  1188.25  1188.92  1189.07
eigval :     1191.24  1192.18  1193.99  1204.44  1206.42  1207.84
eigval :     1208.55  1210.05  1216.79  1225.29  1227.60  1243.14
eigval :     1248.39  1251.42  1255.94  1257.83  1264.52  1268.51
eigval :     1268.74  1269.91  1271.68  1273.37  1273.47  1273.90
eigval :     1274.91  1275.67  1276.07  1283.84  1289.04  1297.64
eigval :     1300.21  1303.78  1304.88  1306.00  1311.84  1313.74
eigval :     1315.75  1316.42  1318.04  1322.40  1323.80  1329.01
eigval :     1330.87  1332.47  1333.63  1334.17  1334.78  1347.11
eigval :     1357.17  1358.81  1363.05  1367.46  1370.11  1386.93
eigval :     1392.94  1401.29  1401.68  1402.04  1402.18  1403.26
eigval :     1404.18  1404.44  1405.04  1405.77  1406.24  1412.25
eigval :     1414.84  1418.27  1434.03  1434.43  1434.88  1435.28
eigval :     1436.32  1437.39  1445.85  1447.91  1456.39  1460.59
eigval :     1468.76  1469.89  1470.68  1471.83  1473.82  1474.50
eigval :     1475.79  1476.82  1479.35  1479.50  1479.83  1480.41
eigval :     1480.95  1483.40  1483.54  1483.66  1484.14  1484.61
eigval :     1485.11  1485.87  1486.36  1487.65  1488.72  1488.86
eigval :     1489.45  1490.24  1498.51  1500.02  1509.19  1515.60
eigval :     1526.19  1528.24  1566.13  1567.75  1572.08  1574.96
eigval :     1575.61  1575.80  1577.85  1579.40  1579.57  1582.53
eigval :     1582.59  1585.10  1590.52  1592.77  1593.35  1595.08
eigval :     1598.68  1600.14  2994.77  2995.55  2995.83  2996.00
eigval :     2996.17  2996.28  2999.05  3002.58  3009.99  3010.59
eigval :     3026.76  3027.35  3030.93  3031.82  3036.39  3036.47
eigval :     3036.59  3038.06  3039.38  3040.60  3040.80  3040.86
eigval :     3041.51  3041.65  3065.98  3066.69  3068.98  3070.54
eigval :     3071.94  3072.07  3076.78  3077.32  3078.04  3078.36
eigval :     3078.77  3079.54  3079.68  3079.73  3080.37  3080.51
eigval :     3080.68  3080.70  3082.54  3083.53  3083.62  3083.79
eigval :     3084.88  3085.52  3086.63  3086.91  3088.91  3090.45
eigval :     3091.46  3092.05  3092.66  3092.78  3093.43  3095.58
eigval :     3095.97  3096.66  3097.35  3098.99  3099.89  3100.95
eigval :     3107.81  3108.88  3109.30  3109.57  3117.64  3153.96

   temp. (K)  partition function   enthalpy   heat capacity  entropy
                                   cal/mol     cal/K/mol   cal/K/mol   J/K/mol
 298.15  VIB  0.152E+45            51114.042    299.443    328.183
         ROT  0.543E+09              888.752      2.981     42.948
         INT  0.825E+53            52002.795    302.424    371.132
         TR   0.407E+29             1481.254      4.968     47.126
         TOT                       53484.0487   307.3917   418.2580  1749.9913

       T/K    H(0)-H(T)+PV         H(T)/Eh          T*S/Eh         G(T)/Eh
   ------------------------------------------------------------------------
    298.15    0.852323E-01    0.137681E+01    0.198728E+00    0.117808E+01
   ------------------------------------------------------------------------

         :::::::::::::::::::::::::::::::::::::::::::::::::::::
         ::                  THERMODYNAMIC                  ::
         :::::::::::::::::::::::::::::::::::::::::::::::::::::
         :: total free energy        -238.814594374576 Eh   ::
         ::.................................................::
         :: total energy             -239.992673669745 Eh   ::
         :: zero point energy           1.291574891812 Eh   ::
         :: G(RRHO) w/o ZPVE           -0.113495596643 Eh   ::
         :: G(RRHO) contrib.            1.178079295169 Eh   ::
         :::::::::::::::::::::::::::::::::::::::::::::::::::::

           -------------------------------------------------
          | TOTAL ENERGY             -239.992673669745 Eh   |
          | TOTAL ENTHALPY           -238.615866521040 Eh   |
          | TOTAL FREE ENERGY        -238.814594374576 Eh   |
          | GRADIENT NORM               0.000127317526 Eh/α |
           -------------------------------------------------

 * finished run on 2025/08/22 at 02:00:16.173
