   * xtb version 6.7.1 (edcfbbe) compiled by 'albert@albert-system' on 2024-07-22

   ID    Z sym.   atoms
    1    9 F      1, 3, 4
    2    6 C      2, 5-8, 10-18, 20-35, 37-52
    3    7 N      9, 19, 36
    4    1 H      53-80

          program call               : xtb data2507/gas/CzB-FMPPI/CzB-FMPPI_gas_S0_crest.xyz --gfn 2 --ohess vtight --parallel 40 --molden --ceasefiles --namespace data2507/gas/CzB-FMPPI/CzB-FMPPI_gas_S0_finalOpt
          :  Hamiltonian                  GFN2-xTB          :
 * total energy  :  -135.8511183 Eh     change       -0.6934044E-09 Eh
 * total energy  :  -135.8511196 Eh     change       -0.1295630E-05 Eh
 * total energy  :  -135.8511207 Eh     change       -0.1086723E-05 Eh
 * total energy  :  -135.8511230 Eh     change       -0.2286862E-05 Eh
 * total energy  :  -135.8511251 Eh     change       -0.2074331E-05 Eh
 * total energy  :  -135.8511274 Eh     change       -0.2326059E-05 Eh
 * total energy  :  -135.8511311 Eh     change       -0.3748433E-05 Eh
 * total energy  :  -135.8511363 Eh     change       -0.5192065E-05 Eh
 * total energy  :  -135.8511399 Eh     change       -0.3550349E-05 Eh
 * total energy  :  -135.8511419 Eh     change       -0.2023291E-05 Eh
 * total energy  :  -135.8511670 Eh     change       -0.1387731E-05 Eh
 * total energy  :  -135.8511673 Eh     change       -0.3244792E-06 Eh
 * total energy  :  -135.8511679 Eh     change       -0.5952776E-06 Eh
 * total energy  :  -135.8511688 Eh     change       -0.8696510E-06 Eh
 * total energy  :  -135.8511694 Eh     change       -0.6355300E-06 Eh
 * total energy  :  -135.8511698 Eh     change       -0.3692908E-06 Eh
 * total energy  :  -135.8511700 Eh     change       -0.2719175E-06 Eh
 * total energy  :  -135.8511702 Eh     change       -0.2024665E-06 Eh
 * total energy  :  -135.8511703 Eh     change       -0.3347895E-07 Eh
   *** GEOMETRY OPTIMIZATION CONVERGED AFTER 31 ITERATIONS ***

 final structure:
================
80
 xtb: 6.7.1 (edcfbbe)
F           -0.90249535650591        5.33995196364299       -0.84624667168266
C           -2.16133418182812        5.22429273045233       -0.39294853856626
F           -2.93230187204541        5.91963852970987       -1.25323133793963
F           -2.20996374444113        5.88614175907554        0.77158545409075
C           -2.60094530549022        3.79326058502871       -0.27563500688384
C           -2.20118912041730        2.88192241347492       -1.24555030065639
C           -2.61650853225773        1.56790123551283       -1.16193744658806
C           -3.43348754888876        1.16344320518004       -0.10905133771542
N           -3.80927424406463       -0.18195572058419       -0.00189565655316
C           -2.92508616131551       -1.23942625075308        0.12035546834558
C           -1.47805524763369       -1.10704897403981        0.14353095249865
C           -0.82344706636344       -0.05254653905424        0.77837470318223
C            0.55412820667398        0.02173761845721        0.76452091728608
C            1.32029530435876       -0.95541345894260        0.13121425590502
C            2.78496203183687       -0.86323637584903        0.11147492915675
C            3.41887808045919        0.36387720484657       -0.07797387517821
C            4.79533572224464        0.45436177113765       -0.10636552030731
C            5.57577495009837       -0.68523293806307        0.07187618387600
N            6.97223748780639       -0.59637286608452        0.05266157522078
C            7.73531473133468        0.29955839277204        0.77637718618575
C            7.33757128379902        1.25708950678334        1.69830842999001
C            8.32055990015028        2.01193540917317        2.30921553575641
C            9.67003673037078        1.81911798585171        2.02230052423454
C           10.07331204996693        0.85106135504816        1.12459095738685
C            9.10367190771425        0.07972331072608        0.49766127152615
C            9.15967389807193       -1.00044523474139       -0.44718741167193
C           10.20216979311525       -1.64488906122270       -1.09988990492146
C            9.90090349891295       -2.65695144869503       -1.98906621485375
C            8.57941894157185       -3.01781812570094       -2.24216842548339
C            7.52533207608590       -2.39155164866819       -1.60502353372538
C            7.82301370993595       -1.39054615615265       -0.69154037227383
C            4.95147248639055       -1.91433981591615        0.27025220613132
C            3.57450841494268       -1.99957046343787        0.28101875420246
C            0.66167493576064       -2.02615209161228       -0.47315377993208
C           -0.71433396834795       -2.10281052187472       -0.46643666410274
N           -3.54480690395877       -2.38336394253807        0.23348342810770
C           -4.87418814944563       -2.10159900680774        0.19345013199958
C           -5.96100179723736       -3.01066386381711        0.32130599128269
C           -5.74222137008438       -4.37758876513230        0.52146788163943
C           -6.80414024561042       -5.23227938704203        0.68019410140694
C           -8.10175453335571       -4.72533946234628        0.64478872677659
C           -8.32807353614814       -3.38403980959773        0.44222710445381
C           -7.26965695380076       -2.47957230825849        0.26508022272882
C           -7.47477595519207       -1.06461660558344        0.00822830332758
C           -8.76013164767087       -0.52457872546182       -0.14136625923499
C           -8.96489008340061        0.80196358209630       -0.43783297566596
C           -7.87883372298668        1.65184410152311       -0.62089089494249
C           -6.60344549898517        1.16561871268465       -0.47281963254497
C           -6.37321820185942       -0.17598483536323       -0.13522311547991
C           -5.07429369932200       -0.73236084686394        0.03579344638609
C           -3.83424021695991        2.08326169085143        0.85884008251327
C           -3.42285488794498        3.39839326625572        0.77291176735964
H           -1.56679676935681        3.20272798796344       -2.05716187757792
H           -2.30997383488400        0.84868212751287       -1.90551342353376
H           -1.38686632146397        0.69907702557569        1.31111740147107
H            1.04574510126822        0.83581712964941        1.27634534925517
H            2.82493588992157        1.25206852839744       -0.23593084147499
H            5.27527847376186        1.40505480578540       -0.28421349473004
H            6.29583487661277        1.40194257589345        1.94193985624134
H            8.03601851210273        2.76611311430397        3.02814002159357
H           10.40772677572706        2.43160832555000        2.51902458577452
H           11.11988013467094        0.68960899712835        0.91457678136804
H           11.22520019120287       -1.35319897083914       -0.91604545745742
H           10.69677303108987       -3.17250543168081       -2.50565057313629
H            8.37362801354763       -3.80234048025344       -2.95547845908571
H            6.50409444231193       -2.66611897063480       -1.82253073339793
H            5.55337191919511       -2.79578251736669        0.43336014788766
H            3.10251751455576       -2.95493117229510        0.45609736568327
H            1.23662948568670       -2.79191724777128       -0.97231853337462
H           -1.22457675249108       -2.92908959878462       -0.93626706551789
H           -4.72162402608882       -4.72581478955651        0.55347311163982
H           -6.64102197288023       -6.28817573392504        0.83697655283151
H           -8.94060710434922       -5.39312094629519        0.77775263576451
H           -9.34929744457377       -3.03811459416961        0.42590822480709
H           -9.62383174068578       -1.16037724416706       -0.03421500445650
H           -9.97018225233652        1.18132316678511       -0.54526896942568
H           -8.03607007494228        2.68730408534844       -0.88352199226208
H           -5.76579572155815        1.82407055775272       -0.64079063474596
H           -4.46623647533544        1.75942666284427        1.67198853230179
H           -3.72722396805380        4.11396415075925        1.52084119410714

          :  Hamiltonian                  GFN2-xTB          :
         :: gradient norm              0.000131325950 Eh/a0 ::
         :: HOMO-LUMO gap              2.133697497418 eV    ::
         :: SCC energy              -138.156936815104 Eh    ::
         :: -> dispersion             -0.113382929225 Eh    ::
         :: repulsion energy           2.305766535520 Eh    ::

    * Orbital Energies and Occupations

         #    Occupation            Energy/Eh            Energy/eV
      -------------------------------------------------------------
         1        2.0000           -0.8830224             -24.0283
       ...           ...                  ...                  ...
       112        2.0000           -0.4192364             -11.4080
       113        2.0000           -0.4185873             -11.3903
       114        2.0000           -0.4174157             -11.3585
       115        2.0000           -0.4156621             -11.3107
       116        2.0000           -0.4144390             -11.2775
       117        2.0000           -0.4067523             -11.0683
       118        2.0000           -0.4043014             -11.0016
       119        2.0000           -0.3992793             -10.8649
       120        2.0000           -0.3880161             -10.5585
       121        2.0000           -0.3859134             -10.5012
       122        2.0000           -0.3777085             -10.2780
       123        2.0000           -0.3716132             -10.1121
       124        2.0000           -0.3615934              -9.8395 (HOMO)
       125                         -0.2831814              -7.7058 (LUMO)
       126                         -0.2698419              -7.3428
       127                         -0.2695277              -7.3342
       128                         -0.2538620              -6.9079
       129                         -0.2528271              -6.8798
       130                         -0.2439390              -6.6379
       131                         -0.2355201              -6.4088
       132                         -0.2352745              -6.4021
       133                         -0.2312305              -6.2921
       134                         -0.2209458              -6.0122
       135                         -0.2122974              -5.7769
       ...                                ...                  ...
       236                          0.7469244              20.3248
      -------------------------------------------------------------
                  HL-Gap            0.0784119 Eh            2.1337 eV

     #   Z          covCN         q      C6AA      α(0)
     1   9 F        0.791    -0.207    11.304     3.972
     2   6 C        3.336     0.486    17.279     6.583
     3   9 F        0.791    -0.209    11.333     3.977
     4   9 F        0.791    -0.205    11.282     3.968
     5   6 C        2.977    -0.027    28.664     8.782
     6   6 C        2.921    -0.020    28.501     8.755
     7   6 C        2.923    -0.034    28.839     8.807
     8   6 C        2.912     0.081    26.196     8.393
     9   7 N        2.841    -0.045    22.102     6.982
    10   6 C        3.185     0.127    24.795     8.126
    11   6 C        2.974    -0.001    28.043     8.686
    12   6 C        2.920    -0.035    28.882     8.813
    13   6 C        2.924    -0.034    28.853     8.809
    14   6 C        2.976     0.013    27.723     8.637
    15   6 C        2.976     0.006    27.880     8.661
    16   6 C        2.925    -0.033    28.828     8.805
    17   6 C        2.920    -0.043    29.072     8.842
    18   6 C        2.913     0.064    26.564     8.451
    19   7 N        2.802    -0.043    22.078     6.979
    20   6 C        3.075     0.047    26.879     8.500
    21   6 C        2.910    -0.051    29.263     8.870
    22   6 C        2.924    -0.033    28.830     8.805
    23   6 C        2.920    -0.041    29.010     8.832
    24   6 C        2.913    -0.033    28.815     8.802
    25   6 C        3.068    -0.017    28.357     8.732
    26   6 C        3.068    -0.017    28.356     8.732
    27   6 C        2.913    -0.033    28.815     8.802
    28   6 C        2.920    -0.041    29.012     8.833
    29   6 C        2.924    -0.033    28.833     8.806
    30   6 C        2.910    -0.051    29.266     8.871
    31   6 C        3.075     0.046    26.880     8.500
    32   6 C        2.920    -0.043    29.071     8.842
    33   6 C        2.924    -0.033    28.823     8.804
    34   6 C        2.923    -0.032    28.806     8.802
    35   6 C        2.926    -0.028    28.693     8.785
    36   7 N        1.895    -0.282    28.172     7.869
    37   6 C        3.206     0.058    26.116     8.323
    38   6 C        2.986     0.003    27.942     8.671
    39   6 C        2.922    -0.031    28.762     8.795
    40   6 C        2.917    -0.029    28.730     8.790
    41   6 C        2.918    -0.032    28.788     8.798
    42   6 C        2.922    -0.034    28.852     8.809
    43   6 C        2.979    -0.001    28.037     8.686
    44   6 C        2.980     0.003    27.949     8.672
    45   6 C        2.922    -0.033    28.820     8.804
    46   6 C        2.916    -0.032    28.797     8.800
    47   6 C        2.917    -0.031    28.770     8.796
    48   6 C        2.919    -0.041    29.011     8.833
    49   6 C        2.978    -0.002    28.079     8.692
    50   6 C        3.067     0.019    27.516     8.601
    51   6 C        2.922    -0.033    28.812     8.802
    52   6 C        2.919    -0.022    28.554     8.763
    53   1 H        0.926     0.065     2.142     2.289
    54   1 H        0.926     0.059     2.213     2.326
    55   1 H        0.926     0.024     2.675     2.557
    56   1 H        0.926     0.036     2.497     2.471
    57   1 H        0.926     0.038     2.480     2.463
    58   1 H        0.926     0.043     2.413     2.429
    59   1 H        0.926     0.027     2.631     2.536
    60   1 H        0.926     0.029     2.598     2.520
    61   1 H        0.926     0.028     2.611     2.527
    62   1 H        0.926     0.031     2.571     2.507
    63   1 H        0.926     0.031     2.571     2.507
    64   1 H        0.926     0.028     2.613     2.528
    65   1 H        0.926     0.029     2.602     2.522
    66   1 H        0.926     0.027     2.633     2.537
    67   1 H        0.926     0.043     2.415     2.430
    68   1 H        0.926     0.040     2.455     2.450
    69   1 H        0.926     0.040     2.442     2.444
    70   1 H        0.926     0.053     2.281     2.362
    71   1 H        0.926     0.052     2.297     2.370
    72   1 H        0.926     0.033     2.551     2.498
    73   1 H        0.926     0.030     2.579     2.511
    74   1 H        0.926     0.033     2.551     2.498
    75   1 H        0.926     0.037     2.490     2.468
    76   1 H        0.926     0.032     2.559     2.501
    77   1 H        0.926     0.030     2.581     2.513
    78   1 H        0.926     0.022     2.703     2.571
    79   1 H        0.926     0.062     2.172     2.305
    80   1 H        0.926     0.067     2.119     2.276

molecular dipole:
                 x           y           z       tot (Debye)
 q only:       -0.476      -1.001       0.038
   full:       -0.697      -0.529       0.003       2.224

 projected vibrational frequencies (cm⁻¹)
eigval :       -0.00    -0.00    -0.00    -0.00     0.00     0.00
eigval :        7.91     9.55    11.93    13.53    18.77    24.21
eigval :       31.58    39.79    51.69    55.03    70.04    78.09
eigval :       82.93    86.17    94.93   102.82   107.21   115.17
eigval :      124.99   135.42   145.56   170.98   179.74   186.80
eigval :      198.78   204.17   232.60   246.11   247.93   266.00
eigval :      270.16   271.82   300.11   309.30   337.05   366.57
eigval :      368.97   370.85   377.67   379.46   386.02   392.32
eigval :      397.52   401.20   402.71   410.43   417.95   428.88
eigval :      432.06   439.38   443.65   462.27   473.73   492.95
eigval :      507.19   517.77   519.47   523.60   526.97   534.03
eigval :      535.21   541.17   545.48   560.97   582.54   585.42
eigval :      596.65   599.01   604.62   616.63   626.11   634.77
eigval :      643.76   652.22   673.13   674.01   677.61   682.23
eigval :      686.01   687.54   701.98   708.23   709.99   724.00
eigval :      735.09   755.16   763.64   766.20   768.16   769.58
eigval :      780.86   782.99   801.54   809.76   828.53   834.23
eigval :      862.97   866.33   871.68   872.46   873.72   875.83
eigval :      881.24   898.18   902.52   902.93   908.18   914.50
eigval :      915.53   917.49   921.09   921.41   924.38   926.65
eigval :      927.95   928.11   928.41   929.00   936.01   938.71
eigval :      955.61   985.62  1007.42  1012.22  1017.02  1028.88
eigval :     1031.70  1065.18  1068.37  1070.51  1073.89  1074.48
eigval :     1080.08  1085.72  1108.62  1118.10  1131.89  1135.27
eigval :     1138.56  1144.27  1151.60  1153.10  1171.38  1177.10
eigval :     1181.38  1182.72  1183.63  1185.66  1188.67  1198.79
eigval :     1207.24  1208.65  1236.68  1244.81  1248.25  1255.78
eigval :     1260.22  1264.43  1266.48  1272.62  1283.57  1287.01
eigval :     1300.73  1302.81  1312.85  1315.80  1319.88  1320.50
eigval :     1326.50  1339.14  1346.66  1357.80  1362.13  1371.12
eigval :     1375.35  1394.59  1407.65  1407.87  1413.07  1419.75
eigval :     1428.38  1429.90  1431.37  1435.92  1467.34  1476.41
eigval :     1487.36  1488.34  1502.63  1513.92  1517.93  1544.90
eigval :     1555.44  1561.90  1565.62  1571.16  1573.24  1575.58
eigval :     1588.50  1589.84  1591.63  1594.56  1599.28  1602.39
eigval :     1605.04  1615.26  3074.70  3076.15  3076.55  3079.15
eigval :     3079.42  3081.21  3082.25  3082.30  3083.40  3086.07
eigval :     3086.46  3088.38  3089.29  3089.97  3092.47  3094.98
eigval :     3095.51  3096.05  3096.92  3097.11  3099.17  3099.97
eigval :     3105.65  3106.14  3108.21  3109.53  3110.19  3113.02

   temp. (K)  partition function   enthalpy   heat capacity  entropy
                                   cal/mol     cal/K/mol   cal/K/mol   J/K/mol
 298.15  VIB  0.236E+20            23663.382    149.018    148.451
         ROT  0.156E+09              888.752      2.981     40.475
         INT  0.369E+28            24552.135    151.999    188.926
         TR   0.171E+29             1481.254      4.968     45.410
         TOT                       26033.3885   156.9672   234.3363   980.4630

       T/K    H(0)-H(T)+PV         H(T)/Eh          T*S/Eh         G(T)/Eh
   ------------------------------------------------------------------------
    298.15    0.414868E-01    0.636599E+00    0.111341E+00    0.525259E+00
   ------------------------------------------------------------------------

         :::::::::::::::::::::::::::::::::::::::::::::::::::::
         ::                  THERMODYNAMIC                  ::
         :::::::::::::::::::::::::::::::::::::::::::::::::::::
         :: total free energy        -135.325911572526 Eh   ::
         ::.................................................::
         :: total energy             -135.851170279586 Eh   ::
         :: zero point energy           0.595112594250 Eh   ::
         :: G(RRHO) w/o ZPVE           -0.069853887191 Eh   ::
         :: G(RRHO) contrib.            0.525258707060 Eh   ::
         :::::::::::::::::::::::::::::::::::::::::::::::::::::

           -------------------------------------------------
          | TOTAL ENERGY             -135.851170279586 Eh   |
          | TOTAL ENTHALPY           -135.214570839952 Eh   |
          | TOTAL FREE ENERGY        -135.325911572526 Eh   |
          | GRADIENT NORM               0.000131308497 Eh/α |
          | HOMO-LUMO GAP               2.133697001407 eV   |
           -------------------------------------------------

 * finished run on 2025/07/18 at 12:25:58.736
