   * xtb version 6.7.1 (edcfbbe) compiled by 'albert@albert-system' on 2024-07-22

   ID    Z sym.   atoms
    1    9 F      1, 3, 4
    2    6 C      2, 5-8, 10-18, 20-35, 37-52
    3    7 N      9, 19, 36
    4    1 H      53-80

          program call               : xtb data2507/gas/CzB-FMPPI/CzB-FMPPI_gas_S0_finalOpt.xtbopt.xyz --gfn 2 --spinpol --tblite --uhf 2 --ohess vtight --parallel 40 --molden --ceasefiles --namespace data2507/gas/CzB-FMPPI/CzB-FMPPI_gas_T1_preOpt
 * total energy  :  -135.7581858 Eh     change       -0.1851507E-07 Eh
 * total energy  :  -135.7640146 Eh     change       -0.5828755E-02 Eh
 * total energy  :  -135.7670014 Eh     change       -0.2986828E-02 Eh
 * total energy  :  -135.7678198 Eh     change       -0.8184088E-03 Eh
 * total energy  :  -135.7687246 Eh     change       -0.9047539E-03 Eh
 * total energy  :  -135.7692207 Eh     change       -0.4961877E-03 Eh
 * total energy  :  -135.7695245 Eh     change       -0.3038021E-03 Eh
 * total energy  :  -135.7697144 Eh     change       -0.1898954E-03 Eh
 * total energy  :  -135.7698574 Eh     change       -0.1429517E-03 Eh
 * total energy  :  -135.7699505 Eh     change       -0.9308425E-04 Eh
 * total energy  :  -135.7704031 Eh     change       -0.9609313E-05 Eh
 * total energy  :  -135.7704124 Eh     change       -0.9236453E-05 Eh
 * total energy  :  -135.7704178 Eh     change       -0.5442785E-05 Eh
 * total energy  :  -135.7704207 Eh     change       -0.2868284E-05 Eh
 * total energy  :  -135.7704223 Eh     change       -0.1599388E-05 Eh
 * total energy  :  -135.7704231 Eh     change       -0.8061061E-06 Eh
 * total energy  :  -135.7704236 Eh     change       -0.5332539E-06 Eh
 * total energy  :  -135.7704236 Eh     change        0.1452173E-07 Eh
 * total energy  :  -135.7704236 Eh     change       -0.1717294E-07 Eh
   *** GEOMETRY OPTIMIZATION CONVERGED AFTER 45 ITERATIONS ***

 final structure:
================
80
 xtb: 6.7.1 (edcfbbe)
F           -1.31436688246322        5.69235718303203       -0.77838212752233
C           -2.58897307501347        5.48183691496862       -0.40068249424567
F           -3.35050454130773        6.10611464506244       -1.32670192261639
F           -2.76253241799384        6.16529343387131        0.74054377410617
C           -2.92021936364406        4.02805797263150       -0.27838967581676
C           -2.45198791957532        3.14434065792679       -1.25031168458579
C           -2.75772500509229        1.80544863619314       -1.16431808305870
C           -3.54643898289750        1.33125157346196       -0.10804995954855
N           -3.83007457565131       -0.02890518016521       -0.01391340024148
C           -2.86458547870667       -1.06316699408153       -0.01911450410867
C           -1.47377582197170       -0.93817057464651        0.06544423386553
C           -0.76083166976901        0.23684425398417        0.44597335021638
C            0.59944364270943        0.25459209061193        0.47209354421362
C            1.38013742255227       -0.88334063078135        0.14162353010711
C            2.81392832392391       -0.83542953692421        0.13745911811503
C            3.50946843913508        0.37914431643292       -0.04708757223098
C            4.88016709968425        0.42901637524836       -0.06311981107599
C            5.63579676031064       -0.73609375687239        0.10834501391086
N            7.02888831206012       -0.68989236480062        0.08687866437222
C            7.82118369994172        0.20982858956665        0.77442637382047
C            7.45583512911118        1.20750877547071        1.66763342932166
C            8.46368559539890        1.95424328967403        2.24853816979361
C            9.80504201333798        1.71317746314533        1.96211599210658
C           10.17645963510426        0.70123794757506        1.09713104978264
C            9.18228081818450       -0.06095089865200        0.50141437668705
C            9.20294119729718       -1.17899915863854       -0.40222524448994
C           10.22300955645668       -1.87618197971066       -1.03279722212849
C            9.88802475924995       -2.91074579139927       -1.88585236427873
C            8.55592476160904       -3.23754947257511       -2.12676389180698
C            7.52275119301272       -2.55649361286419       -1.51080488502638
C            7.85360262330106       -1.53701959398739       -0.62878896689982
C            4.96706556044801       -1.95041994108276        0.29887249130204
C            3.59631014305733       -1.99731036619684        0.31095761754289
C            0.66654677424664       -2.07414199929435       -0.16382950477629
C           -0.69018247106088       -2.10518534436793       -0.19605635455831
N           -3.46916563183702       -2.26772148263968       -0.01694684369570
C           -4.77091654511015       -2.04448343019485        0.05232811854836
C           -5.81135080287382       -3.01389329244868        0.16246993343675
C           -5.51029182315725       -4.37467513291634        0.25154791884888
C           -6.51707251778565       -5.30094287006111        0.40621407236206
C           -7.83424024649891       -4.86451142455566        0.48312152043848
C           -8.14143378279736       -3.52220924650512        0.38827547522685
C           -7.14600585518574       -2.55317291604746        0.21302946982831
C           -7.43766349600773       -1.13592540570455        0.05530356599113
C           -8.75037189213207       -0.66878270413714       -0.02139710434288
C           -9.04830824010688        0.66216252323692       -0.23042047549334
C           -8.01971202735433        1.58594513290933       -0.40162224095294
C           -6.71490671597920        1.17554866861123       -0.32164360230051
C           -6.38209278069062       -0.17314974770184       -0.06543830524132
C           -5.05989945705178       -0.64663873884756        0.03021743670793
C           -4.01887111279374        2.22657443378416        0.85938770312573
C           -3.70788354698090        3.56549703227634        0.77430738064657
H           -1.85076911418300        3.51573590044002       -2.06570077089507
H           -2.39619086413704        1.11143574299677       -1.90706676759746
H           -1.30136589622400        1.10818287755077        0.77820465835566
H            1.09738522050017        1.15220565547721        0.80675695028911
H            2.95471121807693        1.28641641036335       -0.22849021716838
H            5.38739825327829        1.36445481843668       -0.24777082608128
H            6.42096598119665        1.38790252929521        1.91475776117560
H            8.20461712745866        2.73871868489216        2.94383385558831
H           10.56303751033248        2.32023746601462        2.43392262630711
H           11.21692990017258        0.50102028400861        0.89106818019437
H           11.25491096300107       -1.60911363929145       -0.86264016303075
H           10.66684415261175       -3.46822285896279       -2.38418918814028
H            8.32402110364891       -4.03739479731907       -2.81413908142743
H            6.49371270379000       -2.80246955031489       -1.72336999270704
H            5.54282130051711       -2.84735167480728        0.47362428786059
H            3.11114845491889       -2.94105153675366        0.50447886275860
H            1.21659085041809       -2.96673426330494       -0.41937309547653
H           -1.22263015846978       -3.00750638510658       -0.45008363505512
H           -4.47281348648924       -4.66611202791241        0.20316842769476
H           -6.28863139355635       -6.35378838422625        0.47503280417964
H           -8.63045101601319       -5.58225458814117        0.61770688588975
H           -9.17828281983940       -3.23452126316081        0.45768075311339
H           -9.57187911788835       -1.36080362753126        0.07028880969415
H          -10.07789631198418        0.98238878043022       -0.28144453970270
H           -8.24871257866783        2.62166019314173       -0.60301296716078
H           -5.92710593545794        1.89184231568002       -0.48532327080385
H           -4.61773098516571        1.85557386488676        1.67736017987197
H           -4.06003745629878        4.25465138377504        1.52600001198072

 projected vibrational frequencies (cm⁻¹)
eigval :       -0.00    -0.00     0.00     0.00     0.00     0.00
eigval :        8.90     9.40    12.74    14.02    17.82    25.35
eigval :       31.96    43.76    50.71    53.33    66.81    80.65
eigval :       83.41    92.68    99.28   106.47   110.86   119.24
eigval :      124.80   138.88   148.00   171.58   174.28   187.04
eigval :      201.11   202.37   230.56   237.96   247.88   261.90
eigval :      271.29   272.15   301.40   306.35   323.92   349.17
eigval :      364.10   369.65   377.23   381.12   383.38   388.83
eigval :      391.35   393.97   398.79   403.00   414.24   418.05
eigval :      426.61   432.96   439.87   448.10   458.27   469.68
eigval :      494.61   499.88   511.15   517.25   520.52   526.14
eigval :      532.38   538.86   539.33   551.26   578.84   582.46
eigval :      588.76   591.52   595.88   609.48   614.54   617.40
eigval :      630.38   646.05   655.94   664.54   670.42   672.81
eigval :      674.41   678.70   685.13   688.60   709.21   718.42
eigval :      728.70   748.43   755.56   756.73   760.57   769.60
eigval :      775.56   779.75   791.40   799.87   814.50   817.56
eigval :      819.38   846.56   851.32   864.33   868.57   872.38
eigval :      872.72   896.54   898.67   902.62   902.96   907.90
eigval :      911.06   912.24   913.89   916.19   916.77   917.24
eigval :      919.05   922.83   923.63   924.17   926.01   930.26
eigval :      936.95   956.96   989.14   996.82  1003.43  1011.57
eigval :     1013.62  1039.35  1049.91  1054.85  1070.23  1071.10
eigval :     1073.63  1081.42  1091.26  1104.94  1115.50  1133.93
eigval :     1135.56  1140.26  1147.78  1153.02  1156.64  1167.23
eigval :     1176.89  1179.79  1180.56  1181.79  1184.18  1195.47
eigval :     1202.15  1205.17  1231.56  1233.23  1242.07  1243.75
eigval :     1249.99  1251.95  1261.36  1264.23  1271.98  1279.17
eigval :     1286.38  1291.22  1295.99  1308.73  1326.20  1328.41
eigval :     1329.61  1333.70  1335.94  1353.76  1357.23  1359.15
eigval :     1363.85  1390.22  1394.42  1406.24  1411.65  1414.62
eigval :     1419.92  1422.88  1427.81  1428.34  1441.20  1454.62
eigval :     1463.85  1466.85  1476.63  1482.01  1484.94  1486.66
eigval :     1500.20  1509.47  1515.77  1541.67  1547.10  1555.76
eigval :     1565.90  1571.48  1578.75  1581.74  1584.78  1588.48
eigval :     1592.02  1606.72  3076.51  3080.33  3080.84  3081.97
eigval :     3082.19  3083.34  3085.27  3085.91  3087.22  3088.81
eigval :     3089.26  3091.87  3093.19  3093.91  3094.84  3097.00
eigval :     3098.54  3099.80  3099.94  3101.15  3102.50  3106.56
eigval :     3106.94  3107.87  3111.67  3112.97  3113.54  3126.18

   temp. (K)  partition function   enthalpy   heat capacity  entropy
                                   cal/mol     cal/K/mol   cal/K/mol   J/K/mol
 298.15  VIB  0.201E+20            23904.450    151.004    149.299
         ROT  0.163E+09              888.752      2.981     40.556
         INT  0.328E+28            24793.203    153.985    189.855
         TR   0.171E+29             1481.254      4.968     45.410
         TOT                       26274.4568   158.9531   235.2650   984.3488

       T/K    H(0)-H(T)+PV         H(T)/Eh          T*S/Eh         G(T)/Eh
   ------------------------------------------------------------------------
    298.15    0.418710E-01    0.632989E+00    0.111782E+00    0.521207E+00
   ------------------------------------------------------------------------

         :::::::::::::::::::::::::::::::::::::::::::::::::::::
         ::                  THERMODYNAMIC                  ::
         :::::::::::::::::::::::::::::::::::::::::::::::::::::
         :: total free energy        -135.249216253119 Eh   ::
         ::.................................................::
         :: total energy             -135.770423596567 Eh   ::
         :: zero point energy           0.591118328329 Eh   ::
         :: G(RRHO) w/o ZPVE           -0.069910984882 Eh   ::
         :: G(RRHO) contrib.            0.521207343447 Eh   ::
         :::::::::::::::::::::::::::::::::::::::::::::::::::::

           -------------------------------------------------
          | TOTAL ENERGY             -135.770423596567 Eh   |
          | TOTAL ENTHALPY           -135.137434256193 Eh   |
          | TOTAL FREE ENERGY        -135.249216253119 Eh   |
          | GRADIENT NORM               0.000142452407 Eh/α |
           -------------------------------------------------

 * finished run on 2025/07/18 at 12:26:08.781
