   * xtb version 6.7.1 (edcfbbe) compiled by 'albert@albert-system' on 2024-07-22

   ID    Z sym.   atoms
    1    9 F      1, 3, 4
    2    6 C      2, 5-8, 10-18, 20-35, 37-52
    3    7 N      9, 19, 36
    4    1 H      53-80

          program call               : xtb data2507/gas/CzB-FMPPI/CzB-FMPPI.xyz --gfn 2 --ohess vtight --parallel 40 --molden --ceasefiles --namespace data2507/gas/CzB-FMPPI/CzB-FMPPI_gas_S0_preOpt
          :  Hamiltonian                  GFN2-xTB          :
 * total energy  :  -135.8276715 Eh     change       -0.1155911E-08 Eh
 * total energy  :  -135.8422800 Eh     change       -0.1460858E-01 Eh
 * total energy  :  -135.8459257 Eh     change       -0.3645686E-02 Eh
 * total energy  :  -135.8468836 Eh     change       -0.9578823E-03 Eh
 * total energy  :  -135.8476390 Eh     change       -0.7553934E-03 Eh
 * total energy  :  -135.8480398 Eh     change       -0.4007635E-03 Eh
 * total energy  :  -135.8483300 Eh     change       -0.2901982E-03 Eh
 * total energy  :  -135.8485610 Eh     change       -0.2310920E-03 Eh
 * total energy  :  -135.8487209 Eh     change       -0.1598862E-03 Eh
 * total energy  :  -135.8488578 Eh     change       -0.1368168E-03 Eh
 * total energy  :  -135.8508313 Eh     change       -0.4770498E-06 Eh
 * total energy  :  -135.8508317 Eh     change       -0.4777859E-06 Eh
 * total energy  :  -135.8508322 Eh     change       -0.4990103E-06 Eh
 * total energy  :  -135.8508328 Eh     change       -0.5351182E-06 Eh
 * total energy  :  -135.8508334 Eh     change       -0.5792749E-06 Eh
 * total energy  :  -135.8508340 Eh     change       -0.6167840E-06 Eh
 * total energy  :  -135.8508346 Eh     change       -0.6390659E-06 Eh
 * total energy  :  -135.8508353 Eh     change       -0.6480108E-06 Eh
 * total energy  :  -135.8508353 Eh     change       -0.2554287E-08 Eh
   *** GEOMETRY OPTIMIZATION CONVERGED AFTER 152 ITERATIONS ***

 final structure:
================
80
 xtb: 6.7.1 (edcfbbe)
F           -3.40875637053776        6.34466164994092        0.90435839765890
C           -2.42286481698818        5.46497007350831        1.17355458752037
F           -2.12073993520831        5.63379772378553        2.47141184787158
F           -1.35462106524207        5.87459535033741        0.47608598724549
C           -2.82897181891702        4.05433683008661        0.85705022907362
C           -2.43583334081884        3.46177368957250       -0.33548121839344
C           -2.84019851626344        2.17264117845983       -0.62307761922530
C           -3.63972110207711        1.47649123495711        0.27930482680061
N           -4.01024318598966        0.15453036376851       -0.00036019511043
C           -3.12281946445972       -0.88796362715872       -0.20009416848319
C           -1.67558378476312       -0.76412084494934       -0.14742978326952
C           -1.01894770606438        0.05370711239787        0.77071547120815
C            0.35949343084704        0.11637018958216        0.78645720879434
C            1.12208805984497       -0.62930350468562       -0.11021409099376
C            2.58851344898085       -0.55236795062069       -0.09433854143636
C            3.31168987310535       -0.50373047612873       -1.28467626289045
C            4.68978149568108       -0.43308275120613       -1.27435339036258
C            5.38014842742012       -0.41122176580577       -0.06524965797699
N            6.77831520405786       -0.34039646895150       -0.05072146469640
C            7.54815872644628        0.57589925812409       -0.74033524561975
C            7.15258901597582        1.63792740172935       -1.54073955074049
C            8.13965260848071        2.42990678950913       -2.09540077030595
C            9.48997860263776        2.18317150870921       -1.85769411805659
C            9.88868282819089        1.14252896624792       -1.04298219103308
C            8.91499190430246        0.33252991922446       -0.47367589664207
C            8.96310458452115       -0.79306203099111        0.41701521008296
C           10.00215479823614       -1.50023156064610        1.00739448317507
C            9.69459160366444       -2.57636986036297        1.81546735508911
C            8.37169495944390       -2.95902507787276        2.02597892969699
C            7.32085400601513       -2.27124989850032        1.44987584438394
C            7.62284016811960       -1.17422173543286        0.65590933425860
C            4.66606880302402       -0.46080101738471        1.12914689042383
C            3.28800912977867       -0.52967415686092        1.11081192011043
C            0.46139905744396       -1.46123148015497       -1.01364884710471
C           -0.91477302256881       -1.53514475759273       -1.02701452331918
N           -3.73875602434402       -2.01878161674500       -0.41779556069196
C           -5.06909323296705       -1.74470246004073       -0.35972850657419
C           -6.15230222107691       -2.65813167810623       -0.48711262314990
C           -5.92819834235905       -4.02314337386387       -0.69435104862087
C           -6.98617055632555       -4.89355401802892       -0.77469115506833
C           -8.28499458948924       -4.40591364142550       -0.64304530641503
C           -8.51661755200565       -3.06472423256507       -0.44579336920762
C           -7.46253015672936       -2.14130107364436       -0.36909902011371
C           -7.67381183551995       -0.71376258281519       -0.20286880625515
C           -8.96219118370860       -0.16118549047142       -0.17310145879186
C           -9.17371859661009        1.19309594582884       -0.06960860915801
C           -8.09199538299396        2.06597009495516       -0.01262131522086
C           -6.81369962128185        1.56528672104652       -0.02867178729798
C           -6.57603335076574        0.18481427957394       -0.09709443570006
C           -5.27380355258973       -0.38980633035001       -0.11075721068595
C           -4.03166896651111        2.07713937618259        1.47523600094911
C           -3.63076410547290        3.36624278612553        1.76128905117994
H           -1.81661087442946        4.00589557096553       -1.03129663267908
H           -2.53919442483207        1.69824300792235       -1.54424597164561
H           -1.58140288080609        0.62501914920857        1.49426030250749
H            0.85307112002625        0.76481008828172        1.49531259491388
H            2.78573658522546       -0.50814760427408       -2.22803661319665
H            5.24170936457750       -0.40857050313630       -2.20210398053928
H            6.10830565198522        1.84879649945657       -1.71606761893565
H            7.85745171024975        3.26158087940606       -2.72412763163919
H           10.23114222527336        2.82392244328469       -2.31177776471162
H           10.93436204741930        0.96107426597284       -0.84520612296765
H           11.02782235111030       -1.21324538221040        0.83092080193282
H           10.48753574303155       -3.13860389035727        2.28581436571766
H            8.16256223574821       -3.81507808939205        2.65052804611276
H            6.30000920451822       -2.58696656060442        1.60461033989757
H            5.19816215593720       -0.43143116745633        2.06825364920259
H            2.74508426618352       -0.58194427896290        2.04293156963988
H            1.03728084657689       -2.07073736817028       -1.69427098116450
H           -1.42717987375245       -2.18925474144851       -1.71507929143530
H           -4.90665205858902       -4.35965947497499       -0.77871268735368
H           -6.81893549915169       -5.94865380190238       -0.93249503835985
H           -9.12058168895300       -5.08871552198238       -0.69660069565977
H           -9.53850687559572       -2.73503078262800       -0.34640582134136
H           -9.82302950355527       -0.80588662296659       -0.24395229477092
H          -10.18116490684236        1.58131296501199       -0.04950368876578
H           -8.25476008646210        3.13216096136176        0.03830288534329
H           -5.97997064316106        2.24930867148205       -0.00969410431558
H           -4.64923033621275        1.52798745906454        2.16986418959813
H           -3.92739319108050        3.83763384875607        2.68554136769552

          :  Hamiltonian                  GFN2-xTB          :
         :: gradient norm              0.000037382126 Eh/a0 ::
         :: HOMO-LUMO gap              2.138901651364 eV    ::
         :: SCC energy              -138.156631231954 Eh    ::
         :: -> dispersion             -0.113147531129 Eh    ::
         :: repulsion energy           2.305795967417 Eh    ::

    * Orbital Energies and Occupations

         #    Occupation            Energy/Eh            Energy/eV
      -------------------------------------------------------------
         1        2.0000           -0.8826498             -24.0181
       ...           ...                  ...                  ...
       112        2.0000           -0.4193770             -11.4118
       113        2.0000           -0.4186848             -11.3930
       114        2.0000           -0.4178159             -11.3694
       115        2.0000           -0.4157084             -11.3120
       116        2.0000           -0.4144577             -11.2780
       117        2.0000           -0.4070104             -11.0753
       118        2.0000           -0.4041479             -10.9974
       119        2.0000           -0.3995127             -10.8713
       120        2.0000           -0.3879660             -10.5571
       121        2.0000           -0.3858737             -10.5002
       122        2.0000           -0.3775386             -10.2733
       123        2.0000           -0.3715511             -10.1104
       124        2.0000           -0.3615285              -9.8377 (HOMO)
       125                         -0.2829253              -7.6988 (LUMO)
       126                         -0.2697773              -7.3410
       127                         -0.2692239              -7.3260
       128                         -0.2537957              -6.9061
       129                         -0.2525736              -6.8729
       130                         -0.2438734              -6.6361
       131                         -0.2358828              -6.4187
       132                         -0.2357593              -6.4153
       133                         -0.2313205              -6.2946
       134                         -0.2207753              -6.0076
       135                         -0.2126055              -5.7853
       ...                                ...                  ...
       236                          0.7470923              20.3294
      -------------------------------------------------------------
                  HL-Gap            0.0786032 Eh            2.1389 eV

     #   Z          covCN         q      C6AA      α(0)
     1   9 F        0.791    -0.209    11.333     3.977
     2   6 C        3.336     0.486    17.279     6.583
     3   9 F        0.791    -0.206    11.302     3.971
     4   9 F        0.791    -0.204    11.281     3.968
     5   6 C        2.977    -0.027    28.660     8.782
     6   6 C        2.920    -0.021    28.520     8.758
     7   6 C        2.923    -0.034    28.845     8.807
     8   6 C        2.912     0.081    26.199     8.393
     9   7 N        2.841    -0.045    22.102     6.982
    10   6 C        3.185     0.127    24.796     8.126
    11   6 C        2.974    -0.001    28.040     8.686
    12   6 C        2.920    -0.035    28.880     8.813
    13   6 C        2.924    -0.034    28.850     8.808
    14   6 C        2.977     0.013    27.721     8.636
    15   6 C        2.976     0.007    27.870     8.660
    16   6 C        2.925    -0.033    28.825     8.805
    17   6 C        2.920    -0.043    29.066     8.841
    18   6 C        2.913     0.064    26.561     8.451
    19   7 N        2.803    -0.044    22.088     6.980
    20   6 C        3.075     0.046    26.879     8.500
    21   6 C        2.910    -0.051    29.266     8.871
    22   6 C        2.924    -0.033    28.832     8.806
    23   6 C        2.920    -0.041    29.012     8.833
    24   6 C        2.913    -0.033    28.816     8.802
    25   6 C        3.068    -0.017    28.359     8.732
    26   6 C        3.068    -0.017    28.359     8.732
    27   6 C        2.913    -0.033    28.816     8.802
    28   6 C        2.920    -0.041    29.013     8.833
    29   6 C        2.924    -0.033    28.832     8.806
    30   6 C        2.910    -0.051    29.267     8.871
    31   6 C        3.075     0.047    26.879     8.500
    32   6 C        2.920    -0.043    29.062     8.840
    33   6 C        2.925    -0.033    28.816     8.803
    34   6 C        2.923    -0.032    28.803     8.801
    35   6 C        2.926    -0.028    28.693     8.784
    36   7 N        1.895    -0.282    28.175     7.869
    37   6 C        3.206     0.058    26.116     8.323
    38   6 C        2.986     0.003    27.942     8.671
    39   6 C        2.922    -0.031    28.762     8.795
    40   6 C        2.917    -0.029    28.730     8.790
    41   6 C        2.918    -0.032    28.788     8.798
    42   6 C        2.922    -0.034    28.853     8.809
    43   6 C        2.979    -0.001    28.037     8.686
    44   6 C        2.980     0.003    27.949     8.672
    45   6 C        2.922    -0.033    28.821     8.804
    46   6 C        2.916    -0.032    28.797     8.800
    47   6 C        2.917    -0.031    28.770     8.796
    48   6 C        2.919    -0.041    29.012     8.833
    49   6 C        2.978    -0.002    28.079     8.692
    50   6 C        3.067     0.019    27.518     8.602
    51   6 C        2.922    -0.032    28.807     8.802
    52   6 C        2.921    -0.021    28.531     8.759
    53   1 H        0.926     0.067     2.121     2.277
    54   1 H        0.926     0.059     2.215     2.327
    55   1 H        0.926     0.024     2.671     2.556
    56   1 H        0.926     0.036     2.496     2.471
    57   1 H        0.926     0.038     2.476     2.461
    58   1 H        0.926     0.042     2.416     2.431
    59   1 H        0.926     0.027     2.636     2.539
    60   1 H        0.926     0.029     2.600     2.522
    61   1 H        0.926     0.028     2.613     2.528
    62   1 H        0.926     0.031     2.571     2.508
    63   1 H        0.926     0.031     2.572     2.508
    64   1 H        0.926     0.028     2.614     2.528
    65   1 H        0.926     0.029     2.601     2.522
    66   1 H        0.926     0.027     2.633     2.537
    67   1 H        0.926     0.043     2.414     2.430
    68   1 H        0.926     0.038     2.472     2.459
    69   1 H        0.926     0.041     2.440     2.443
    70   1 H        0.926     0.053     2.279     2.361
    71   1 H        0.926     0.052     2.296     2.370
    72   1 H        0.926     0.033     2.551     2.498
    73   1 H        0.926     0.030     2.579     2.512
    74   1 H        0.926     0.033     2.551     2.498
    75   1 H        0.926     0.037     2.490     2.468
    76   1 H        0.926     0.032     2.559     2.501
    77   1 H        0.926     0.031     2.579     2.511
    78   1 H        0.926     0.022     2.702     2.570
    79   1 H        0.926     0.062     2.171     2.304
    80   1 H        0.926     0.065     2.138     2.287

molecular dipole:
                 x           y           z       tot (Debye)
 q only:       -0.463      -0.960      -0.290
   full:       -0.683      -0.502      -0.185       2.204

 projected vibrational frequencies (cm⁻¹)
eigval :       -0.00    -0.00    -0.00     0.00     0.00     0.00
eigval :        7.68     9.09    13.58    15.14    19.61    20.97
eigval :       34.14    37.99    51.19    55.79    72.32    76.47
eigval :       81.92    87.25    93.63   100.20   105.22   114.34
eigval :      126.34   143.46   145.18   159.33   178.75   186.00
eigval :      199.40   218.91   222.24   241.64   252.02   260.23
eigval :      268.92   271.68   300.09   315.73   336.94   356.73
eigval :      370.17   372.91   374.63   379.66   383.10   390.96
eigval :      394.49   398.05   402.65   417.61   420.66   428.22
eigval :      437.23   439.42   440.76   462.76   474.39   488.11
eigval :      511.67   517.78   519.30   523.29   526.91   533.83
eigval :      535.22   541.19   544.42   560.84   582.44   585.46
eigval :      594.02   600.87   606.79   617.50   626.13   635.04
eigval :      644.13   651.86   672.09   673.86   677.08   681.95
eigval :      685.59   689.99   700.84   707.70   709.88   724.08
eigval :      735.10   755.14   763.61   766.25   768.22   769.63
eigval :      780.91   783.03   801.44   808.92   828.60   835.11
eigval :      863.01   866.58   872.02   872.70   873.77   875.82
eigval :      881.40   897.97   902.55   902.99   908.19   914.57
eigval :      915.63   917.49   921.20   921.30   924.37   926.57
eigval :      927.32   927.78   928.05   929.28   935.09   938.73
eigval :      955.77   985.77  1007.55  1012.18  1017.16  1028.70
eigval :     1031.35  1064.65  1068.89  1070.33  1073.73  1074.88
eigval :     1080.49  1085.72  1108.65  1118.03  1131.54  1134.85
eigval :     1138.63  1143.02  1151.55  1152.94  1171.33  1176.91
eigval :     1181.39  1182.71  1183.35  1185.64  1188.66  1198.46
eigval :     1205.84  1208.62  1236.79  1244.59  1248.20  1255.67
eigval :     1259.99  1264.70  1266.35  1271.50  1283.58  1286.95
eigval :     1300.67  1303.18  1312.30  1315.57  1320.17  1320.78
eigval :     1326.80  1339.06  1346.76  1357.66  1362.17  1371.21
eigval :     1375.26  1394.36  1407.57  1407.81  1412.44  1419.69
eigval :     1428.45  1429.87  1431.63  1435.92  1467.39  1476.49
eigval :     1487.30  1488.37  1502.62  1513.81  1517.93  1545.01
eigval :     1555.87  1562.38  1565.80  1571.35  1573.27  1575.47
eigval :     1589.24  1591.14  1591.86  1594.56  1599.31  1602.45
eigval :     1605.04  1615.33  3074.67  3076.02  3076.36  3078.96
eigval :     3079.52  3080.73  3081.30  3082.13  3083.52  3085.34
eigval :     3086.08  3088.01  3089.40  3089.63  3091.93  3094.48
eigval :     3095.25  3095.60  3096.42  3096.89  3099.15  3100.83
eigval :     3105.43  3106.10  3106.76  3110.51  3110.94  3113.01

   temp. (K)  partition function   enthalpy   heat capacity  entropy
                                   cal/mol     cal/K/mol   cal/K/mol   J/K/mol
 298.15  VIB  0.225E+20            23675.940    149.038    148.488
         ROT  0.157E+09              888.752      2.981     40.488
         INT  0.353E+28            24564.692    152.019    188.975
         TR   0.171E+29             1481.254      4.968     45.410
         TOT                       26045.9460   156.9874   234.3856   980.6693

       T/K    H(0)-H(T)+PV         H(T)/Eh          T*S/Eh         G(T)/Eh
   ------------------------------------------------------------------------
    298.15    0.415069E-01    0.636569E+00    0.111364E+00    0.525204E+00
   ------------------------------------------------------------------------

         :::::::::::::::::::::::::::::::::::::::::::::::::::::
         ::                  THERMODYNAMIC                  ::
         :::::::::::::::::::::::::::::::::::::::::::::::::::::
         :: total free energy        -135.325630904770 Eh   ::
         ::.................................................::
         :: total energy             -135.850835264538 Eh   ::
         :: zero point energy           0.595061663562 Eh   ::
         :: G(RRHO) w/o ZPVE           -0.069857303795 Eh   ::
         :: G(RRHO) contrib.            0.525204359768 Eh   ::
         :::::::::::::::::::::::::::::::::::::::::::::::::::::

           -------------------------------------------------
          | TOTAL ENERGY             -135.850835264538 Eh   |
          | TOTAL ENTHALPY           -135.214266744017 Eh   |
          | TOTAL FREE ENERGY        -135.325630904770 Eh   |
          | GRADIENT NORM               0.000037386602 Eh/α |
          | HOMO-LUMO GAP               2.138901830606 eV   |
           -------------------------------------------------

 * finished run on 2025/07/18 at 12:21:57.841
