   * xtb version 6.7.1 (edcfbbe) compiled by 'albert@albert-system' on 2024-07-22

   ID    Z sym.   atoms
    1    9 F      1, 3, 4
    2    6 C      2, 5-8, 10-18, 20-35, 37-52
    3    7 N      9, 19, 36
    4    1 H      53-80

          program call               : xtb data2507/gas/CzB-FMPPI/CzB-FMPPI_gas_T1_crest.xyz --gfn 2 --spinpol --tblite --uhf 2 --ohess vtight --parallel 40 --molden --ceasefiles --namespace data2507/gas/CzB-FMPPI/CzB-FMPPI_gas_T1_finalOpt
 * total energy  :  -135.7704272 Eh     change        0.1878738E-07 Eh
 * total energy  :  -135.7704366 Eh     change       -0.9405221E-05 Eh
 * total energy  :  -135.7704416 Eh     change       -0.5020379E-05 Eh
 * total energy  :  -135.7704434 Eh     change       -0.1843796E-05 Eh
 * total energy  :  -135.7704458 Eh     change       -0.2387098E-05 Eh
 * total energy  :  -135.7704480 Eh     change       -0.2219627E-05 Eh
 * total energy  :  -135.7704493 Eh     change       -0.1290860E-05 Eh
 * total energy  :  -135.7704501 Eh     change       -0.7993050E-06 Eh
 * total energy  :  -135.7704511 Eh     change       -0.9216555E-06 Eh
 * total energy  :  -135.7704518 Eh     change       -0.7389539E-06 Eh
 * total energy  :  -135.7704552 Eh     change       -0.6145953E-06 Eh
 * total energy  :  -135.7704556 Eh     change       -0.4485644E-06 Eh
 * total energy  :  -135.7704561 Eh     change       -0.4732277E-06 Eh
 * total energy  :  -135.7704566 Eh     change       -0.5013306E-06 Eh
 * total energy  :  -135.7704572 Eh     change       -0.5731484E-06 Eh
 * total energy  :  -135.7704576 Eh     change       -0.4800770E-06 Eh
 * total energy  :  -135.7704586 Eh     change       -0.9139154E-06 Eh
 * total energy  :  -135.7704593 Eh     change       -0.7152270E-06 Eh
 * total energy  :  -135.7704593 Eh     change       -0.1203131E-07 Eh
   *** GEOMETRY OPTIMIZATION CONVERGED AFTER 22 ITERATIONS ***

 final structure:
================
80
 xtb: 6.7.1 (edcfbbe)
F           -1.56326568075228        5.67817788585757        0.08369196291497
C           -2.76545598960438        5.37217178608203       -0.45619390693529
F           -2.71542876582782        5.81066904153790       -1.72557409642572
F           -3.65914927786290        6.14739899972541        0.17832740037587
C           -3.07558543568960        3.91222043244329       -0.35535321993668
C           -2.59260206844142        3.03866634016548       -1.32868760404526
C           -2.83937122690882        1.68890055973229       -1.22165625460615
C           -3.57548733009571        1.19244769612562       -0.13814502139515
N           -3.80238045432771       -0.17673544359814       -0.02443373048822
C           -2.79934935561281       -1.17459073403980       -0.04496713295578
C           -1.41218387093914       -0.99854702011063        0.00263271448023
C           -0.73329130280209        0.20691506566273        0.34831488296338
C            0.62601147314037        0.26917388873848        0.35738048236889
C            1.43943980204317       -0.85010213873194        0.04355362483621
C            2.87144452036826       -0.75964921221704        0.04288943183716
C            3.53190519377488        0.47059138221929       -0.16391342274007
C            4.90052563121887        0.56245732636474       -0.16055315030879
C            5.68876975033060       -0.57348733139940        0.05443872775364
N            7.07969524021366       -0.48081304487570        0.06550248043555
C            7.82172053830995        0.46140616781087        0.75247965766742
C            7.39798723164507        1.46658148665494        1.61085331091758
C            8.36331026503454        2.26048792116237        2.20127004427219
C            9.71959869838282        2.05858330065569        1.95818497986117
C           10.14907367679993        1.03989897130337        1.12872691221617
C            9.19828075860532        0.23068446654844        0.52422201730302
C            9.28195720157251       -0.90755338037234       -0.35008596239841
C           10.34246713000360       -1.58493429203538       -0.93372754967050
C           10.06696813584538       -2.65145501453931       -1.76848487477674
C            8.75400345028274       -3.02970906368815       -2.03757446554193
C            7.68131832621993       -2.36903063786021       -1.46872375057085
C            7.95229313995294       -1.31683791277168       -0.60489327155308
C            5.05486628341474       -1.80389749341183        0.25991363189253
C            3.68606077587560       -1.89307412165755        0.25124503349733
C            0.76179518442425       -2.06677086493400       -0.23982553464251
C           -0.59361014628847       -2.14204413160983       -0.25615368764708
N           -3.35862197993173       -2.40054242132157       -0.00922895683599
C           -4.66505387725127       -2.22460218912127        0.09705354322336
C           -5.66484002600149       -3.22975075247648        0.25429929287904
C           -5.31094169743513       -4.57690176324107        0.35520628869209
C           -6.27727089664666       -5.53654918922558        0.55755599554940
C           -7.60654771416452       -5.14730754964621        0.67046984449643
C           -7.96613248568532       -3.81895584437563        0.56409070217611
C           -7.01340809022417       -2.81741130123360        0.34095481996537
C           -7.36242777312426       -1.41451085043437        0.17188293340606
C           -8.69339359510536       -0.99743031464186        0.12930956466730
C           -9.04713840281549        0.31879717354329       -0.08592618303477
C           -8.05938853158428        1.27771409797219       -0.29921907007389
C           -6.73836824584397        0.91668573217772       -0.25597670051330
C           -6.34758135305244       -0.41536350074198        0.00575652018351
C           -5.00641882912468       -0.83873634119236        0.06575535227574
C           -4.05508778714426        2.07657340025257        0.83630703118117
C           -3.80266001142489        3.42593328585534        0.73039114520965
H           -2.03533874126595        3.42639538312194       -2.16728430106459
H           -2.47001764294957        1.00311405561407       -1.96821668206971
H           -1.29704041908372        1.06770999263432        0.66887544883738
H            1.09799071282048        1.18926766090606        0.66770425508998
H            2.95214252977605        1.35532500450311       -0.37598193844324
H            5.38192445001761        1.50823265755205       -0.36099358670601
H            6.35110377540772        1.61726555650634        1.82501012198218
H            8.05835408903343        3.05155694779717        2.86996658889484
H           10.44313402862498        2.70176159531105        2.43617423342918
H           11.20112997255682        0.87026599216862        0.95690817599624
H           11.35953292757283       -1.27855898766925       -0.74184197755236
H           10.87802485266613       -3.19427263389487       -2.23023740111803
H            8.56891714223893       -3.85429619663680       -2.70974606281322
H            6.66764697187677       -2.65556485155842       -1.70317902266798
H            5.65478788584133       -2.67834182735370        0.46460005453268
H            3.22658921662968       -2.84680648466948        0.45812740777593
H            1.33824157420603       -2.94426021766512       -0.48981848743618
H           -1.09897157726042       -3.06474220299642       -0.49160743743939
H           -4.26544175665520       -4.83109564810749        0.27811566384445
H           -6.00783446391666       -6.57896484453245        0.63613560158526
H           -8.37089098214086       -5.89113372809777        0.84289909718481
H           -9.01010625259679       -3.56806403172852        0.66313641857124
H           -9.48529567667394       -1.71822282123000        0.25379442804089
H          -10.08904266840908        0.60005446763491       -0.10890867637978
H           -8.33287782701678        2.30183369845208       -0.50440848296067
H           -5.98344288647698        1.65950416186921       -0.45278407122703
H           -4.61168194931709        1.68850734930368        1.67592621005744
H           -4.16205872935321        4.10803639187922        1.48517537855296

 projected vibrational frequencies (cm⁻¹)
eigval :       -0.00    -0.00    -0.00     0.00     0.00     0.00
eigval :        9.13     9.71    13.00    13.88    17.85    25.27
eigval :       32.17    44.06    50.25    53.22    66.96    80.71
eigval :       83.49    92.37    99.62   105.95   111.33   118.58
eigval :      127.15   136.59   147.62   172.12   174.46   187.93
eigval :      201.33   202.38   229.88   237.16   248.76   261.65
eigval :      271.15   271.94   301.42   306.59   323.98   347.88
eigval :      364.90   372.75   376.34   381.95   382.24   388.45
eigval :      390.89   394.48   398.64   402.78   414.12   417.97
eigval :      426.50   433.11   439.87   447.82   458.18   470.93
eigval :      494.45   499.96   510.29   517.24   520.59   526.13
eigval :      532.68   538.85   539.39   551.04   578.91   582.45
eigval :      588.81   591.47   595.86   609.31   614.50   617.47
eigval :      630.20   646.40   656.07   664.59   670.27   672.42
eigval :      674.42   679.21   685.20   688.58   709.19   717.93
eigval :      728.68   748.49   755.41   756.74   760.52   769.63
eigval :      775.55   779.76   791.86   799.83   814.65   817.14
eigval :      819.92   846.90   851.23   864.27   868.49   872.42
eigval :      872.80   896.55   898.57   902.65   903.01   908.25
eigval :      911.08   912.48   913.88   916.18   916.98   917.17
eigval :      919.10   922.74   923.58   923.95   926.09   930.41
eigval :      936.79   957.10   988.79   996.83  1003.13  1010.56
eigval :     1011.58  1039.62  1050.28  1060.32  1068.21  1070.30
eigval :     1073.73  1081.45  1091.25  1104.96  1115.52  1134.00
eigval :     1135.77  1140.56  1147.81  1152.93  1156.62  1167.32
eigval :     1176.95  1179.80  1180.60  1181.86  1184.30  1195.38
eigval :     1202.32  1205.17  1230.95  1233.23  1242.14  1243.64
eigval :     1250.08  1252.09  1261.29  1264.26  1271.65  1278.95
eigval :     1286.40  1291.16  1296.08  1308.74  1326.17  1328.56
eigval :     1329.47  1333.65  1335.91  1353.74  1357.18  1359.12
eigval :     1363.69  1390.21  1394.53  1406.19  1411.63  1414.78
eigval :     1419.90  1422.82  1427.74  1428.16  1441.16  1454.36
eigval :     1463.72  1466.84  1476.61  1481.73  1484.89  1486.47
eigval :     1500.36  1509.07  1515.51  1541.49  1546.99  1555.56
eigval :     1565.83  1571.47  1578.66  1581.67  1584.76  1588.48
eigval :     1591.99  1606.80  3076.48  3080.37  3080.91  3082.13
eigval :     3082.16  3083.58  3085.41  3086.01  3087.21  3088.16
eigval :     3089.28  3091.85  3093.27  3093.72  3094.93  3097.37
eigval :     3098.61  3099.82  3099.96  3100.96  3102.40  3105.87
eigval :     3107.32  3107.93  3111.77  3113.34  3114.91  3126.56

   temp. (K)  partition function   enthalpy   heat capacity  entropy
                                   cal/mol     cal/K/mol   cal/K/mol   J/K/mol
 298.15  VIB  0.187E+20            23902.754    151.002    149.225
         ROT  0.163E+09              888.752      2.981     40.560
         INT  0.305E+28            24791.506    153.983    189.785
         TR   0.171E+29             1481.254      4.968     45.410
         TOT                       26272.7600   158.9514   235.1949   984.0555

       T/K    H(0)-H(T)+PV         H(T)/Eh          T*S/Eh         G(T)/Eh
   ------------------------------------------------------------------------
    298.15    0.418683E-01    0.632991E+00    0.111749E+00    0.521242E+00
   ------------------------------------------------------------------------

         :::::::::::::::::::::::::::::::::::::::::::::::::::::
         ::                  THERMODYNAMIC                  ::
         :::::::::::::::::::::::::::::::::::::::::::::::::::::
         :: total free energy        -135.249216895064 Eh   ::
         ::.................................................::
         :: total energy             -135.770459275191 Eh   ::
         :: zero point energy           0.591122761026 Eh   ::
         :: G(RRHO) w/o ZPVE           -0.069880380899 Eh   ::
         :: G(RRHO) contrib.            0.521242380127 Eh   ::
         :::::::::::::::::::::::::::::::::::::::::::::::::::::

           -------------------------------------------------
          | TOTAL ENERGY             -135.770459275191 Eh   |
          | TOTAL ENTHALPY           -135.137468206069 Eh   |
          | TOTAL FREE ENERGY        -135.249216895064 Eh   |
          | GRADIENT NORM               0.000066405799 Eh/α |
           -------------------------------------------------

 * finished run on 2025/07/18 at 12:30:50.511
