   * xtb version 6.7.1 (edcfbbe) compiled by 'albert@albert-system' on 2024-07-22

   ID    Z sym.   atoms
    1    6 C      1-6, 8-13, 15-19, 21-26, 28, 29
    2    8 O      7
    3    7 N      14, 20
    4   16 S      27
    5    1 H      30-45

          program call               : xtb data2507/gas/BTaz-Ar-PXZ/BTaz-Ar-PXZ_gas_T1_crest.xyz --gfn 2 --spinpol --tblite --uhf 2 --ohess vtight --parallel 40 --molden --ceasefiles --namespace data2507/gas/BTaz-Ar-PXZ/BTaz-Ar-PXZ_gas_T1_finalOpt
 * total energy  :   -74.8106716 Eh     change       -0.8302209E-08 Eh
 * total energy  :   -74.8106786 Eh     change       -0.6929865E-05 Eh
 * total energy  :   -74.8106812 Eh     change       -0.2630058E-05 Eh
 * total energy  :   -74.8106821 Eh     change       -0.8862881E-06 Eh
 * total energy  :   -74.8106827 Eh     change       -0.5634879E-06 Eh
 * total energy  :   -74.8106830 Eh     change       -0.3190090E-06 Eh
 * total energy  :   -74.8106834 Eh     change       -0.4082271E-06 Eh
 * total energy  :   -74.8106839 Eh     change       -0.4836373E-06 Eh
 * total energy  :   -74.8106845 Eh     change       -0.5877575E-06 Eh
 * total energy  :   -74.8106848 Eh     change       -0.3839861E-06 Eh
 * total energy  :   -74.8106846 Eh     change        0.2240625E-06 Eh
 * total energy  :   -74.8106848 Eh     change       -0.1413165E-06 Eh
 * total energy  :   -74.8106850 Eh     change       -0.2173730E-06 Eh
 * total energy  :   -74.8106851 Eh     change       -0.1412532E-06 Eh
 * total energy  :   -74.8106852 Eh     change       -0.7192662E-07 Eh
   *** GEOMETRY OPTIMIZATION CONVERGED AFTER 15 ITERATIONS ***

 final structure:
================
45
 xtb: 6.7.1 (edcfbbe)
C           -4.77765578272528        3.50070560161753        0.47296048417495
C           -3.39454249706746        3.54369191637685        0.53438678251825
C           -2.64893548944307        2.38863963162123        0.39363328169254
C           -3.27306802660578        1.16066828745468        0.17010828599362
C           -4.67804839527647        1.12247089692043        0.16167729767185
C           -5.41801229380079        2.28538703816426        0.30161954056766
O           -5.37426155112372       -0.04606544074938        0.04597553146154
C           -4.65841449773394       -1.20124222787583       -0.08363845113447
C           -5.37879370208394       -2.37837455621347       -0.20580209095280
C           -4.71906330102069       -3.58143557187784       -0.38971309829291
C           -3.33705981661433       -3.59794183395486       -0.48152011034941
C           -2.61081529382480       -2.42859073666970       -0.35863682219095
C           -3.25350527472317       -1.21251061693666       -0.12293032566596
N           -2.55294801704023       -0.01897231228194        0.01489751889755
C           -1.15116637278023       -0.00610919075504        0.00120662268034
C           -0.41895689069087       -0.78163177752114        0.93019682814632
C            0.93914034149838       -0.75914149523485        0.93239877073127
C            1.66684692176303        0.02253645757733       -0.02590052362481
C            3.04890729467753        0.01723704736337       -0.01415999577699
N            3.81337538067435       -0.67160660313526        0.83115639337150
C            5.10653119698881       -0.49533448696814        0.61742119194810
C            6.15292915587162       -1.09247871135020        1.35114988727100
C            7.45284470884787       -0.81405467753163        1.01541705389598
C            7.76641597606885        0.05082697963412       -0.04011221840699
C            6.76418498807524        0.65761435219371       -0.78357894186301
C            5.45199776596171        0.38933856963961       -0.46265867907529
S            4.01468014869037        1.00083138304509       -1.20822769831160
C            0.90695399920248        0.78716764309566       -0.96774567653629
C           -0.45250952950488        0.78238503965694       -0.94016352599699
H           -5.35877207890930        4.40290452537918        0.57761535507769
H           -2.88789151125833        4.48129947518782        0.70105870441295
H           -1.57457943307417        2.42934648227405        0.46933271719907
H           -6.49334794299098        2.21135881228705        0.28192374721459
H           -6.45465448548203       -2.32500425713009       -0.16231866024408
H           -5.28487624784156       -4.49482225087798       -0.48025300895605
H           -2.81621152251320       -4.52592461610282       -0.65796092182779
H           -1.53774774777944       -2.44899167031576       -0.45721546520780
H           -0.96113348923455       -1.35458311494659        1.66923514351408
H            1.51124229137160       -1.31410057547634        1.65749674283696
H            5.90175825497329       -1.75676774413212        2.16232540661672
H            8.25770006897479       -1.26931718754479        1.57438242333932
H            8.80012779292449        0.24878127582998       -0.27918930147316
H            7.00390529594219        1.32524361611069       -1.59711906980845
H            1.43803837878255        1.36062320357276       -1.71215799659896
H           -1.01831584384588        1.34493471307964       -1.66940574863923

 projected vibrational frequencies (cm⁻¹)
eigval :       -0.00    -0.00     0.00     0.00     0.00     0.00
eigval :       17.96    28.31    33.16    55.58    55.89    85.22
eigval :       90.72   124.29   126.73   143.34   178.84   197.94
eigval :      230.10   241.10   258.74   265.84   302.52   307.89
eigval :      361.59   374.51   387.99   391.35   397.67   402.73
eigval :      405.83   434.71   437.76   470.67   475.44   480.11
eigval :      500.69   515.27   530.99   532.94   541.49   575.10
eigval :      586.63   595.26   621.71   641.90   642.17   667.07
eigval :      667.08   671.66   688.93   698.90   745.65   777.34
eigval :      779.75   793.48   797.03   819.00   839.03   846.89
eigval :      857.06   867.58   868.27   877.32   882.08   898.96
eigval :      899.98   906.72   908.31   909.16   913.46   914.13
eigval :      922.37   923.75   974.29  1029.42  1057.51  1085.66
eigval :     1086.35  1113.86  1118.32  1121.20  1135.83  1140.06
eigval :     1169.39  1173.04  1175.63  1184.55  1199.55  1211.21
eigval :     1221.94  1229.52  1233.87  1245.08  1253.88  1297.37
eigval :     1305.88  1316.26  1319.19  1329.18  1342.98  1350.65
eigval :     1368.07  1385.66  1404.17  1413.32  1433.01  1440.37
eigval :     1442.87  1475.61  1490.49  1496.33  1537.70  1542.69
eigval :     1550.88  1555.67  1572.15  1579.06  1591.73  3070.45
eigval :     3071.67  3075.34  3085.40  3092.76  3096.56  3097.55
eigval :     3097.66  3106.05  3106.25  3106.66  3115.63  3116.29
eigval :     3116.78  3117.58  3118.00

   temp. (K)  partition function   enthalpy   heat capacity  entropy
                                   cal/mol     cal/K/mol   cal/K/mol   J/K/mol
 298.15  VIB  0.435E+09            12483.912     83.278     75.004
         ROT  0.226E+08              888.752      2.981     36.630
         INT  0.983E+16            13372.664     86.258    111.634
         TR   0.752E+28             1481.254      4.968     43.774
         TOT                       14853.9183    91.2266   155.4074   650.2248

       T/K    H(0)-H(T)+PV         H(T)/Eh          T*S/Eh         G(T)/Eh
   ------------------------------------------------------------------------
    298.15    0.236712E-01    0.353280E+00    0.738391E-01    0.279441E+00
   ------------------------------------------------------------------------

         :::::::::::::::::::::::::::::::::::::::::::::::::::::
         ::                  THERMODYNAMIC                  ::
         :::::::::::::::::::::::::::::::::::::::::::::::::::::
         :: total free energy         -74.531243934495 Eh   ::
         ::.................................................::
         :: total energy              -74.810685196432 Eh   ::
         :: zero point energy           0.329609128643 Eh   ::
         :: G(RRHO) w/o ZPVE           -0.050167866705 Eh   ::
         :: G(RRHO) contrib.            0.279441261937 Eh   ::
         :::::::::::::::::::::::::::::::::::::::::::::::::::::

           -------------------------------------------------
          | TOTAL ENERGY              -74.810685196432 Eh   |
          | TOTAL ENTHALPY            -74.457404842190 Eh   |
          | TOTAL FREE ENERGY         -74.531243934495 Eh   |
          | GRADIENT NORM               0.000038741885 Eh/α |
           -------------------------------------------------

 * finished run on 2025/09/04 at 13:19:10.877
