   * xtb version 6.7.1 (edcfbbe) compiled by 'albert@albert-system' on 2024-07-22

   ID    Z sym.   atoms
    1    6 C      1-6, 8-13, 15-19, 21-26, 28, 29
    2    8 O      7
    3    7 N      14, 20
    4   16 S      27
    5    1 H      30-45

          program call               : xtb data2507/gas/BTaz-Ar-PXZ/BTaz-Ar-PXZ_gas_S0_finalOpt.xtbopt.xyz --gfn 2 --spinpol --tblite --uhf 2 --ohess vtight --parallel 40 --molden --ceasefiles --namespace data2507/gas/BTaz-Ar-PXZ/BTaz-Ar-PXZ_gas_T1_preOpt
 * total energy  :   -74.8022603 Eh     change        0.1551228E-07 Eh
 * total energy  :   -74.8082351 Eh     change       -0.5974820E-02 Eh
 * total energy  :   -74.8104591 Eh     change       -0.2224005E-02 Eh
 * total energy  :   -74.8105776 Eh     change       -0.1184650E-03 Eh
 * total energy  :   -74.8106236 Eh     change       -0.4596831E-04 Eh
 * total energy  :   -74.8106413 Eh     change       -0.1767310E-04 Eh
 * total energy  :   -74.8106509 Eh     change       -0.9641893E-05 Eh
 * total energy  :   -74.8106645 Eh     change       -0.1358733E-04 Eh
 * total energy  :   -74.8106699 Eh     change       -0.5376058E-05 Eh
 * total energy  :   -74.8106746 Eh     change       -0.4759292E-05 Eh
 * total energy  :   -74.8106812 Eh     change       -0.7858260E-06 Eh
 * total energy  :   -74.8106820 Eh     change       -0.8153044E-06 Eh
 * total energy  :   -74.8106828 Eh     change       -0.8384663E-06 Eh
 * total energy  :   -74.8106834 Eh     change       -0.5944274E-06 Eh
 * total energy  :   -74.8106838 Eh     change       -0.3856563E-06 Eh
 * total energy  :   -74.8106837 Eh     change        0.7627345E-07 Eh
 * total energy  :   -74.8106841 Eh     change       -0.4228883E-06 Eh
 * total energy  :   -74.8106841 Eh     change        0.1412019E-08 Eh
 * total energy  :   -74.8106842 Eh     change       -0.1345838E-07 Eh
   *** GEOMETRY OPTIMIZATION CONVERGED AFTER 23 ITERATIONS ***

 final structure:
================
45
 xtb: 6.7.1 (edcfbbe)
C           -4.77537933717425        3.51022996674349        0.42219849211590
C           -3.39228592966715        3.55318349766355        0.48412659350918
C           -2.64738145364881        2.39563455539892        0.36112278548319
C           -3.27236238142452        1.16499607316087        0.15553955573403
C           -4.67730970825980        1.12773585350347        0.14513272523351
C           -5.41653961835560        2.29309118290454        0.26743624506155
O           -5.37415386222317       -0.04181685337227        0.04399427010056
C           -4.65886906831216       -1.19925469728404       -0.06775299622853
C           -5.37987851280897       -2.37723823234157       -0.17730482135543
C           -4.72049927935133       -3.58329240014056       -0.34190086695470
C           -3.33805400603093       -3.60254626953895       -0.42606032776833
C           -2.61115682292078       -2.43228473647161       -0.31599208814101
C           -3.25386015939641       -1.21236589156027       -0.10142238691622
N           -2.55289393503439       -0.01737666584300        0.02011856957234
C           -1.15094545927657       -0.00490169076169        0.00651750852554
C           -0.41865220227696       -0.76119882837411        0.95098608751513
C            0.93952291942991       -0.73782208495895        0.95294674918704
C            1.66689429914224        0.02339123160069       -0.02193559304762
C            3.04899036305828        0.01857018969203       -0.01126792896545
N            3.81494125453954       -0.64850721898348        0.85007885292946
C            5.10770653786385       -0.47756375525283        0.62990474887007
C            6.15545756408681       -1.05486389838111        1.37750726226294
C            7.45475110283644       -0.78557609796211        1.03221152561850
C            7.76658691949862        0.05056688513648       -0.04678010538634
C            6.76307250582926        0.63775583254067       -0.80407243066460
C            5.45143876989270        0.37868651635995       -0.47346831923912
S            4.01300651344540        0.97162516641780       -1.23154986185406
C            0.90667925935300        0.76810819989293       -0.97938125259843
C           -0.45275476532427        0.76453601967367       -0.95074411064231
H           -5.35591551744668        4.41426800658647        0.51336988755003
H           -2.88514203317418        4.49280888244512        0.63736079975426
H           -1.57302719553341        2.43648603947645        0.43684529170809
H           -6.49190457955952        2.21967535435340        0.24722090606753
H           -6.45587221244361       -2.32224979476834       -0.13953468422325
H           -5.28684679677779       -4.49722469827166       -0.42316393926385
H           -2.81734914943236       -4.53348191591650       -0.58662905229037
H           -1.53759759183506       -2.45501705907439       -0.40850235448104
H           -0.96072877973557       -1.31939796077403        1.70129624720072
H            1.51180347760283       -1.27723480513975        1.68953807177943
H            5.90578935624442       -1.69714239602068        2.20668045373567
H            8.26057467387003       -1.22565588811953        1.60184544201817
H            8.79988200153283        0.24160644910417       -0.29312951481547
H            7.00132943004758        1.28342887569945       -1.63557064753820
H            1.43744844172265        1.32587381061137       -1.73581457367468
H           -1.01897808046510        1.31265596985901       -1.69056460239479

 projected vibrational frequencies (cm⁻¹)
eigval :       -0.00    -0.00    -0.00    -0.00     0.00     0.00
eigval :       17.96    28.08    33.10    55.44    55.85    85.19
eigval :       90.63   123.88   126.60   142.92   178.78   197.63
eigval :      229.97   241.23   258.48   265.86   302.41   307.81
eigval :      361.60   374.45   387.78   391.30   397.67   402.60
eigval :      405.62   434.69   437.61   470.44   475.40   480.14
eigval :      500.71   515.18   530.93   532.94   541.48   575.06
eigval :      586.59   595.30   621.53   641.93   642.26   667.05
eigval :      667.08   671.62   688.73   698.96   745.54   777.30
eigval :      779.70   793.28   797.23   818.84   838.99   846.79
eigval :      857.07   867.45   868.13   877.15   882.07   898.92
eigval :      899.96   906.51   908.22   909.18   913.36   914.09
eigval :      921.97   923.35   974.09  1029.47  1057.62  1085.51
eigval :     1086.19  1113.77  1118.13  1121.06  1135.78  1139.68
eigval :     1169.29  1173.08  1175.29  1184.42  1199.50  1211.35
eigval :     1221.81  1229.51  1233.79  1244.98  1254.35  1297.33
eigval :     1305.71  1316.16  1319.13  1329.08  1342.93  1350.68
eigval :     1367.89  1385.77  1404.35  1413.53  1433.03  1440.54
eigval :     1442.94  1475.51  1490.32  1496.08  1537.71  1542.76
eigval :     1551.04  1555.86  1572.30  1578.97  1591.70  3070.62
eigval :     3072.00  3075.53  3085.46  3093.19  3096.78  3097.77
eigval :     3097.88  3106.25  3106.45  3106.74  3115.91  3116.61
eigval :     3116.95  3117.78  3118.17

   temp. (K)  partition function   enthalpy   heat capacity  entropy
                                   cal/mol     cal/K/mol   cal/K/mol   J/K/mol
 298.15  VIB  0.445E+09            12487.658     83.280     75.038
         ROT  0.226E+08              888.752      2.981     36.629
         INT  0.100E+17            13376.411     86.261    111.667
         TR   0.752E+28             1481.254      4.968     43.774
         TOT                       14857.6647    91.2290   155.4412   650.3660

       T/K    H(0)-H(T)+PV         H(T)/Eh          T*S/Eh         G(T)/Eh
   ------------------------------------------------------------------------
    298.15    0.236772E-01    0.353277E+00    0.738551E-01    0.279422E+00
   ------------------------------------------------------------------------

         :::::::::::::::::::::::::::::::::::::::::::::::::::::
         ::                  THERMODYNAMIC                  ::
         :::::::::::::::::::::::::::::::::::::::::::::::::::::
         :: total free energy         -74.531262192570 Eh   ::
         ::.................................................::
         :: total energy              -74.810684149241 Eh   ::
         :: zero point energy           0.329599894870 Eh   ::
         :: G(RRHO) w/o ZPVE           -0.050177938200 Eh   ::
         :: G(RRHO) contrib.            0.279421956670 Eh   ::
         :::::::::::::::::::::::::::::::::::::::::::::::::::::

           -------------------------------------------------
          | TOTAL ENERGY              -74.810684149241 Eh   |
          | TOTAL ENTHALPY            -74.457407058511 Eh   |
          | TOTAL FREE ENERGY         -74.531262192570 Eh   |
          | GRADIENT NORM               0.000120974394 Eh/α |
           -------------------------------------------------

 * finished run on 2025/09/04 at 13:18:02.691
