   * xtb version 6.7.1 (edcfbbe) compiled by 'albert@albert-system' on 2024-07-22

   ID    Z sym.   atoms
    1    6 C      1-6, 8-13, 15-19, 21-26, 28, 29
    2    8 O      7
    3    7 N      14, 20
    4   16 S      27
    5    1 H      30-45

          program call               : xtb data2507/gas/BTaz-Ar-PXZ/BTaz-Ar-PXZ_gas_S0_crest.xyz --gfn 2 --ohess vtight --parallel 40 --molden --ceasefiles --namespace data2507/gas/BTaz-Ar-PXZ/BTaz-Ar-PXZ_gas_S0_finalOpt
          :  Hamiltonian                  GFN2-xTB          :
 * total energy  :   -74.8876689 Eh     change       -0.1413483E-08 Eh
 * total energy  :   -74.8876702 Eh     change       -0.1262248E-05 Eh
 * total energy  :   -74.8876719 Eh     change       -0.1791067E-05 Eh
 * total energy  :   -74.8876729 Eh     change       -0.9577775E-06 Eh
 * total energy  :   -74.8876735 Eh     change       -0.5649756E-06 Eh
 * total energy  :   -74.8876738 Eh     change       -0.3663315E-06 Eh
 * total energy  :   -74.8876742 Eh     change       -0.4021807E-06 Eh
 * total energy  :   -74.8876747 Eh     change       -0.4602172E-06 Eh
 * total energy  :   -74.8876750 Eh     change       -0.2837044E-06 Eh
 * total energy  :   -74.8876751 Eh     change       -0.1011146E-06 Eh
 * total energy  :   -74.8876752 Eh     change       -0.7693895E-07 Eh
   *** GEOMETRY OPTIMIZATION CONVERGED AFTER 11 ITERATIONS ***

 final structure:
================
45
 xtb: 6.7.1 (edcfbbe)
C           -4.77529037042782        3.51358525071043        0.46531750637320
C           -3.39649263569935        3.55985544182842        0.49871247635181
C           -2.65177840697046        2.39918583341940        0.35421017389173
C           -3.27461272950538        1.17240632217942        0.16101010113293
C           -4.67534679383337        1.13171254126308        0.16699396374362
C           -5.41332513272008        2.29217579947759        0.30907973940722
O           -5.37959342589207       -0.04064485927538        0.05408286284081
C           -4.65965949111811       -1.20141481409343       -0.07844032843472
C           -5.38207412923728       -2.37399382423167       -0.19951597247928
C           -4.72845135328003       -3.58469518193415       -0.37363903196115
C           -3.35053775775428       -3.60817603247438       -0.44585812291790
C           -2.62129280191237       -2.43533528620051       -0.32228358133570
C           -3.25888346423318       -1.21904504444154       -0.11164567930068
N           -2.55500447212289       -0.01742464921796        0.01421862286473
C           -1.14742757620405       -0.00695252598094       -0.00001459469026
C           -0.42895036755713       -0.69617239528003        0.97698960851308
C            0.94787196528544       -0.68586437763773        0.96272290816273
C            1.64083238196864        0.01671387965723       -0.02828470076200
C            3.08314245977233        0.01240950230509       -0.01749349371690
N            3.80057131078130       -0.61996741313603        0.83814389685475
C            5.13294129212052       -0.46100541780836        0.62986600832532
C            6.15394741667169       -1.02420158133638        1.39248345678854
C            7.46217885300483       -0.76393862095604        1.04786212231547
C            7.77299885285781        0.04706146140488       -0.04281902247607
C            6.77913781769184        0.61657893709437       -0.81428917860219
C            5.46226073302078        0.36002780087575       -0.47434084536010
S            4.00937259112896        0.92213981823291       -1.23711147881171
C            0.91759443637924        0.70497806920563       -1.00330337035368
C           -0.46053292313404        0.69261534655472       -0.99084754007678
H           -5.35921265271220        4.41402404553500        0.57202466607454
H           -2.88456616506069        4.49899282252381        0.64173685118868
H           -1.57537287054580        2.44904250266203        0.40207603837431
H           -6.48889592197741        2.21643488196602        0.30092938646739
H           -6.45808509423531       -2.31612932807742       -0.16076685952645
H           -5.30016092767598       -4.49474870701411       -0.46368068964366
H           -2.82738872699781       -4.53879375805116       -0.60310879247876
H           -1.54591700809093       -2.46744182287117       -0.39954267307823
H           -0.96315573467027       -1.22996214941918        1.74902506267138
H            1.51492630360778       -1.20857908390780        1.71629831712677
H            5.90046002575632       -1.64970084248461        2.23329029853461
H            8.26307624957778       -1.19395255247347        1.63042924953127
H            8.80733880444136        0.23362194885742       -0.28931548276019
H            7.01611873894567        1.24461212758781       -1.65899855789426
H            1.44415499504192        1.24334575780155       -1.77793136206842
H           -1.01737778118598        1.21748026056097       -1.75286295690601

          :  Hamiltonian                  GFN2-xTB          :
         :: gradient norm              0.000042145768 Eh/a0 ::
         :: HOMO-LUMO gap              1.541266271717 eV    ::
         :: SCC energy               -76.168565656741 Eh    ::
         :: -> dispersion             -0.059776097893 Eh    ::
         :: repulsion energy           1.280890501569 Eh    ::

    * Orbital Energies and Occupations

         #    Occupation            Energy/Eh            Energy/eV
      -------------------------------------------------------------
         1        2.0000           -0.7332273             -19.9521
       ...           ...                  ...                  ...
        57        2.0000           -0.4367376             -11.8842
        58        2.0000           -0.4349394             -11.8353
        59        2.0000           -0.4319549             -11.7541
        60        2.0000           -0.4279891             -11.6462
        61        2.0000           -0.4270667             -11.6211
        62        2.0000           -0.4207588             -11.4494
        63        2.0000           -0.4156510             -11.3104
        64        2.0000           -0.4124084             -11.2222
        65        2.0000           -0.3951394             -10.7523
        66        2.0000           -0.3948109             -10.7434
        67        2.0000           -0.3916370             -10.6570
        68        2.0000           -0.3885533             -10.5731
        69        2.0000           -0.3434516              -9.3458 (HOMO)
        70                         -0.2868110              -7.8045 (LUMO)
        71                         -0.2407118              -6.5501
        72                         -0.2380757              -6.4784
        73                         -0.2349555              -6.3935
        74                         -0.2293690              -6.2414
        75                         -0.2275583              -6.1922
        76                         -0.2138882              -5.8202
        77                         -0.2104194              -5.7258
        78                         -0.1974206              -5.3721
        79                         -0.1875983              -5.1048
        80                         -0.1282265              -3.4892
       ...                                ...                  ...
       137                          0.6773579              18.4318
      -------------------------------------------------------------
                  HL-Gap            0.0566406 Eh            1.5413 eV

     #   Z          covCN         q      C6AA      α(0)
     1   6 C        2.919    -0.040    28.989     8.829
     2   6 C        2.919    -0.038    28.956     8.824
     3   6 C        2.924    -0.060    29.484     8.905
     4   6 C        2.922     0.042    27.056     8.530
     5   6 C        2.884     0.125    25.256     8.239
     6   6 C        2.920    -0.056    29.392     8.890
     7   8 O        1.709    -0.254    18.211     5.762
     8   6 C        2.884     0.125    25.256     8.239
     9   6 C        2.920    -0.056    29.392     8.890
    10   6 C        2.919    -0.040    28.988     8.829
    11   6 C        2.919    -0.038    28.955     8.824
    12   6 C        2.924    -0.060    29.483     8.904
    13   6 C        2.922     0.042    27.057     8.530
    14   7 N        2.751    -0.068    22.563     7.055
    15   6 C        2.921     0.069    26.455     8.435
    16   6 C        2.920    -0.039    28.969     8.826
    17   6 C        2.925    -0.026    28.658     8.779
    18   6 C        2.996     0.003    27.938     8.670
    19   6 C        3.024     0.122    25.294     8.250
    20   7 N        1.929    -0.243    27.195     7.732
    21   6 C        3.197     0.079    25.743     8.271
    22   6 C        2.915    -0.039    28.970     8.826
    23   6 C        2.920    -0.033    28.826     8.804
    24   6 C        2.924    -0.032    28.794     8.800
    25   6 C        2.928    -0.038    28.954     8.824
    26   6 C        2.995     0.027    27.395     8.586
    27  16 S        2.229    -0.104   145.381    20.293
    28   6 C        2.923    -0.029    28.724     8.789
    29   6 C        2.920    -0.040    28.985     8.829
    30   1 H        0.926     0.039     2.467     2.456
    31   1 H        0.926     0.037     2.495     2.470
    32   1 H        0.926     0.035     2.510     2.478
    33   1 H        0.926     0.051     2.309     2.376
    34   1 H        0.926     0.051     2.309     2.376
    35   1 H        0.926     0.039     2.467     2.456
    36   1 H        0.926     0.037     2.492     2.469
    37   1 H        0.926     0.036     2.505     2.475
    38   1 H        0.926     0.048     2.349     2.397
    39   1 H        0.926     0.062     2.171     2.304
    40   1 H        0.926     0.051     2.313     2.378
    41   1 H        0.926     0.039     2.468     2.457
    42   1 H        0.926     0.039     2.465     2.455
    43   1 H        0.926     0.040     2.442     2.444
    44   1 H        0.926     0.051     2.308     2.376
    45   1 H        0.926     0.046     2.367     2.406

molecular dipole:
                 x           y           z       tot (Debye)
 q only:        0.160      -0.032       0.039
   full:        0.487       0.039      -0.056       1.249

 projected vibrational frequencies (cm⁻¹)
eigval :       -0.00    -0.00    -0.00     0.00     0.00     0.00
eigval :       19.18    21.31    25.42    47.00    63.21    68.19
eigval :       83.64   117.28   139.40   144.64   183.67   191.36
eigval :      246.02   256.12   258.28   264.52   295.83   349.03
eigval :      363.61   373.28   376.45   406.52   407.94   411.89
eigval :      423.37   431.55   448.02   474.01   492.39   509.98
eigval :      520.73   523.98   542.08   549.18   583.29   596.40
eigval :      598.49   604.48   651.11   661.07   661.82   671.55
eigval :      684.44   692.45   701.82   712.22   774.04   779.19
eigval :      779.39   800.29   822.48   855.55   859.69   863.21
eigval :      866.70   869.18   874.32   897.46   898.55   900.63
eigval :      904.17   913.85   915.11   917.11   922.55   926.21
eigval :      933.64   952.79  1022.94  1052.93  1069.66  1090.65
eigval :     1091.83  1108.60  1121.05  1130.70  1146.51  1171.09
eigval :     1175.59  1180.29  1180.59  1188.96  1202.12  1218.39
eigval :     1234.19  1243.15  1244.25  1261.17  1262.06  1297.41
eigval :     1310.54  1315.71  1322.83  1336.72  1339.49  1355.89
eigval :     1402.46  1407.33  1424.38  1442.56  1453.61  1471.58
eigval :     1487.56  1504.51  1540.40  1555.02  1557.74  1567.84
eigval :     1580.52  1585.47  1591.10  1602.77  1603.62  3080.83
eigval :     3083.77  3088.93  3089.56  3089.85  3091.31  3094.07
eigval :     3099.40  3099.49  3100.72  3106.64  3107.20  3109.58
eigval :     3113.08  3113.18  3113.61

   temp. (K)  partition function   enthalpy   heat capacity  entropy
                                   cal/mol     cal/K/mol   cal/K/mol   J/K/mol
 298.15  VIB  0.677E+09            12268.716     81.281     74.145
         ROT  0.226E+08              888.752      2.981     36.631
         INT  0.153E+17            13157.469     84.262    110.776
         TR   0.752E+28             1481.254      4.968     43.774
         TOT                       14638.7225    89.2298   154.5493   646.6343

       T/K    H(0)-H(T)+PV         H(T)/Eh          T*S/Eh         G(T)/Eh
   ------------------------------------------------------------------------
    298.15    0.233283E-01    0.356190E+00    0.734314E-01    0.282758E+00
   ------------------------------------------------------------------------

         :::::::::::::::::::::::::::::::::::::::::::::::::::::
         ::                  THERMODYNAMIC                  ::
         :::::::::::::::::::::::::::::::::::::::::::::::::::::
         :: total free energy         -74.604916662114 Eh   ::
         ::.................................................::
         :: total energy              -74.887675155172 Eh   ::
         :: zero point energy           0.332861566455 Eh   ::
         :: G(RRHO) w/o ZPVE           -0.050103073397 Eh   ::
         :: G(RRHO) contrib.            0.282758493058 Eh   ::
         :::::::::::::::::::::::::::::::::::::::::::::::::::::

           -------------------------------------------------
          | TOTAL ENERGY              -74.887675155172 Eh   |
          | TOTAL ENTHALPY            -74.531485299487 Eh   |
          | TOTAL FREE ENERGY         -74.604916662114 Eh   |
          | GRADIENT NORM               0.000042162515 Eh/α |
          | HOMO-LUMO GAP               1.541268926014 eV   |
           -------------------------------------------------

 * finished run on 2025/09/04 at 13:17:59.462
