   * xtb version 6.7.1 (edcfbbe) compiled by 'albert@albert-system' on 2024-07-22

   ID    Z sym.   atoms
    1    6 C      1-6, 8-13, 15-19, 21-26, 28, 29
    2    8 O      7
    3    7 N      14, 20
    4   16 S      27
    5    1 H      30-45

          program call               : xtb data2507/gas/BTaz-Ar-PXZ/BTaz-Ar-PXZ.xyz --gfn 2 --ohess vtight --parallel 40 --molden --ceasefiles --namespace data2507/gas/BTaz-Ar-PXZ/BTaz-Ar-PXZ_gas_S0_preOpt
          :  Hamiltonian                  GFN2-xTB          :
 * total energy  :   -74.8727362 Eh     change       -0.1497270E-08 Eh
 * total energy  :   -74.8815940 Eh     change       -0.8857731E-02 Eh
 * total energy  :   -74.8849502 Eh     change       -0.3356221E-02 Eh
 * total energy  :   -74.8858321 Eh     change       -0.8818626E-03 Eh
 * total energy  :   -74.8862210 Eh     change       -0.3889305E-03 Eh
 * total energy  :   -74.8863082 Eh     change       -0.8725749E-04 Eh
 * total energy  :   -74.8863274 Eh     change       -0.1914586E-04 Eh
 * total energy  :   -74.8863321 Eh     change       -0.4661778E-05 Eh
 * total energy  :   -74.8863328 Eh     change       -0.7232269E-06 Eh
 * total energy  :   -74.8863330 Eh     change       -0.2204685E-06 Eh
 * total energy  :   -74.8863330 Eh     change       -0.3155428E-07 Eh
   *** GEOMETRY OPTIMIZATION CONVERGED AFTER 11 ITERATIONS ***

 final structure:
================
45
 xtb: 6.7.1 (edcfbbe)
C           -4.58802637037956        3.57661273911287        0.07507489018688
C           -3.21021210301916        3.61028690273458        0.01693342117816
C           -2.48176500966609        2.42990880689460       -0.01746280743813
C           -3.12754575307934        1.20170005739184        0.00584000860904
C           -4.52750295167703        1.17531531081777        0.06497281262466
C           -5.24644023276566        2.35408584218471        0.09926768540605
O           -5.24004019187084       -0.00008372160944        0.09110321420757
C           -4.52743890775698       -1.17543967355071        0.06477896969801
C           -5.24631391055634       -2.35425507519060        0.09883694113266
C           -4.58783533210701       -3.57674225327442        0.07440088524727
C           -3.21001986713435       -3.61033188221103        0.01623911269703
C           -2.48163521310870       -2.42990845066971       -0.01792145687655
C           -3.12747970251141       -1.20173843951972        0.00565680910889
N           -2.42574082776987        0.00000284673224       -0.02886228568290
C           -1.00857892988219        0.00004352423395       -0.08246586630728
C           -0.26729083060035       -0.00046191887115        1.09490513827124
C            1.11046514437043       -0.00042130825912        1.04255861318789
C            1.76848331797815        0.00011251957634       -0.19048467369454
C            3.21333144903242        0.00012867359052       -0.21637078721261
N            3.95561660291531       -0.00037901982084        0.82965581311922
C            5.28136163067382       -0.00023261866124        0.53560746394173
C            6.32508770417842       -0.00068256167441        1.45869179315235
C            7.62211709143195       -0.00045495615339        0.99476400397401
C            7.89937548345043        0.00021309449244       -0.37190546068366
C            6.88270006100553        0.00066795111316       -1.30628852257712
C            5.57641374669230        0.00044253614079       -0.84814728897435
S            4.10063580520742        0.00088331715941       -1.75900936222060
C            1.01818749968962        0.00061265555970       -1.36612478409602
C           -0.36080542360853        0.00058474750664       -1.31258821315432
H           -5.15912198288277        4.49121106613113        0.10208663358297
H           -2.68693600085242        4.55394399395813       -0.00217672317617
H           -1.40365215205911        2.45994445180047       -0.06250580112380
H           -6.32227902450853        2.29735906454073        0.14477871533221
H           -6.32215621474642       -2.29759434396524        0.14434711320895
H           -5.15888277078105       -4.49137621368881        0.10122351969018
H           -2.68669469303719       -4.55395738564759       -0.00308467102884
H           -1.40352257444419       -2.45987869647227       -0.06301183721527
H           -0.78186697381772       -0.00087695551336        2.04422767212551
H            1.70246400117839       -0.00079251043114        1.94377631376384
H            6.09720551800044       -0.00119804700269        2.51246284932183
H            8.44068736150391       -0.00079866890700        1.69869290881172
H            8.92583856592773        0.00037753552071       -0.70610205065034
H            7.09385391889953        0.00118435715142       -2.36431761316981
H            1.52173337406502        0.00101217537416       -2.32190975701505
H           -0.94577433157816        0.00097153137556       -2.22014233928261

          :  Hamiltonian                  GFN2-xTB          :
         :: gradient norm              0.000047930897 Eh/a0 ::
         :: HOMO-LUMO gap              1.298213874725 eV    ::
         :: SCC energy               -76.168158594950 Eh    ::
         :: -> dispersion             -0.059654602529 Eh    ::
         :: repulsion energy           1.281825566542 Eh    ::

    * Orbital Energies and Occupations

         #    Occupation            Energy/Eh            Energy/eV
      -------------------------------------------------------------
         1        2.0000           -0.7373183             -20.0635
       ...           ...                  ...                  ...
        57        2.0000           -0.4367310             -11.8841
        58        2.0000           -0.4351745             -11.8417
        59        2.0000           -0.4325822             -11.7712
        60        2.0000           -0.4285235             -11.6607
        61        2.0000           -0.4282804             -11.6541
        62        2.0000           -0.4216553             -11.4738
        63        2.0000           -0.4118945             -11.2082
        64        2.0000           -0.4091853             -11.1345
        65        2.0000           -0.3990078             -10.8576
        66        2.0000           -0.3976683             -10.8211
        67        2.0000           -0.3942666             -10.7285
        68        2.0000           -0.3870256             -10.5315
        69        2.0000           -0.3389570              -9.2235 (HOMO)
        70                         -0.2912485              -7.9253 (LUMO)
        71                         -0.2451327              -6.6704
        72                         -0.2383965              -6.4871
        73                         -0.2340931              -6.3700
        74                         -0.2295077              -6.2452
        75                         -0.2258425              -6.1455
        76                         -0.2140953              -5.8258
        77                         -0.2109971              -5.7415
        78                         -0.1944629              -5.2916
        79                         -0.1921576              -5.2289
        80                         -0.1319039              -3.5893
       ...                                ...                  ...
       137                          0.6792023              18.4820
      -------------------------------------------------------------
                  HL-Gap            0.0477085 Eh            1.2982 eV

     #   Z          covCN         q      C6AA      α(0)
     1   6 C        2.919    -0.042    29.033     8.836
     2   6 C        2.919    -0.039    28.962     8.825
     3   6 C        2.923    -0.061    29.521     8.910
     4   6 C        2.924     0.043    27.026     8.525
     5   6 C        2.882     0.124    25.282     8.243
     6   6 C        2.920    -0.057    29.409     8.893
     7   8 O        1.708    -0.258    18.270     5.771
     8   6 C        2.882     0.124    25.282     8.243
     9   6 C        2.920    -0.057    29.409     8.893
    10   6 C        2.919    -0.042    29.033     8.836
    11   6 C        2.919    -0.039    28.962     8.825
    12   6 C        2.923    -0.061    29.521     8.910
    13   6 C        2.924     0.043    27.026     8.525
    14   7 N        2.753    -0.078    22.754     7.085
    15   6 C        2.923     0.073    26.364     8.420
    16   6 C        2.920    -0.035    28.868     8.811
    17   6 C        2.926    -0.025    28.632     8.775
    18   6 C        2.996     0.007    27.848     8.656
    19   6 C        3.025     0.122    25.302     8.251
    20   7 N        1.930    -0.240    27.119     7.722
    21   6 C        3.198     0.079    25.736     8.269
    22   6 C        2.915    -0.038    28.949     8.823
    23   6 C        2.920    -0.033    28.813     8.802
    24   6 C        2.924    -0.031    28.772     8.796
    25   6 C        2.928    -0.038    28.942     8.823
    26   6 C        2.995     0.027    27.395     8.586
    27  16 S        2.230    -0.097   145.093    20.273
    28   6 C        2.923    -0.028    28.701     8.786
    29   6 C        2.920    -0.036    28.885     8.813
    30   1 H        0.926     0.037     2.493     2.469
    31   1 H        0.926     0.035     2.523     2.484
    32   1 H        0.926     0.029     2.602     2.522
    33   1 H        0.926     0.049     2.328     2.386
    34   1 H        0.926     0.049     2.328     2.386
    35   1 H        0.926     0.037     2.493     2.469
    36   1 H        0.926     0.035     2.523     2.484
    37   1 H        0.926     0.029     2.602     2.522
    38   1 H        0.926     0.050     2.316     2.380
    39   1 H        0.926     0.065     2.142     2.289
    40   1 H        0.926     0.052     2.295     2.369
    41   1 H        0.926     0.040     2.448     2.447
    42   1 H        0.926     0.040     2.445     2.445
    43   1 H        0.926     0.042     2.426     2.436
    44   1 H        0.926     0.053     2.280     2.361
    45   1 H        0.926     0.049     2.333     2.388

molecular dipole:
                 x           y           z       tot (Debye)
 q only:        0.641      -0.000       0.027
   full:        0.978       0.000      -0.102       2.499

 projected vibrational frequencies (cm⁻¹)
eigval :       -0.00    -0.00    -0.00    -0.00     0.00     0.00
eigval :      -37.79    18.95    19.97    26.44    40.19    60.70
eigval :       80.01   110.04   133.54   137.79   181.34   183.54
eigval :      248.40   250.41   250.91   265.02   289.81   348.92
eigval :      363.97   366.25   373.20   406.72   407.96   411.91
eigval :      422.90   423.02   440.73   471.21   492.63   510.74
eigval :      520.24   520.46   542.08   549.17   584.12   595.52
eigval :      597.66   603.18   652.18   658.43   659.16   672.80
eigval :      685.13   697.41   702.85   713.04   774.43   777.06
eigval :      777.48   798.53   816.58   852.80   859.94   859.95
eigval :      860.06   866.92   869.92   893.68   895.18   901.68
eigval :      905.06   913.00   913.41   914.63   921.80   923.18
eigval :      927.06   954.05  1023.72  1052.85  1069.55  1087.60
eigval :     1088.98  1106.89  1118.74  1126.61  1146.31  1171.62
eigval :     1176.04  1178.44  1180.27  1185.18  1197.07  1214.35
eigval :     1233.86  1242.43  1242.94  1257.56  1260.83  1296.62
eigval :     1311.73  1313.50  1322.92  1336.92  1346.94  1360.57
eigval :     1401.51  1402.27  1425.03  1443.25  1453.66  1472.91
eigval :     1494.41  1508.77  1544.81  1557.01  1560.58  1566.80
eigval :     1581.60  1588.53  1591.95  1603.80  1605.24  3081.72
eigval :     3084.88  3086.46  3086.60  3091.35  3092.34  3094.41
eigval :     3094.50  3096.20  3101.60  3102.06  3102.61  3110.42
eigval :     3112.07  3112.65  3113.37

   temp. (K)  partition function   enthalpy   heat capacity  entropy
                                   cal/mol     cal/K/mol   cal/K/mol   J/K/mol
 298.15  VIB  0.298E+09            11858.737     79.540     70.940
         ROT  0.225E+08              888.752      2.981     36.625
         INT  0.671E+16            12747.489     82.521    107.566
         TR   0.752E+28             1481.254      4.968     43.774
         TOT                       14228.7433    87.4890   151.3393   633.2035

       T/K    H(0)-H(T)+PV         H(T)/Eh          T*S/Eh         G(T)/Eh
   ------------------------------------------------------------------------
    298.15    0.226749E-01    0.355022E+00    0.719062E-01    0.283116E+00
   ------------------------------------------------------------------------

         :::::::::::::::::::::::::::::::::::::::::::::::::::::
         ::                  THERMODYNAMIC                  ::
         :::::::::::::::::::::::::::::::::::::::::::::::::::::
         :: total free energy         -74.603217109192 Eh   ::
         ::.................................................::
         :: total energy              -74.886333028409 Eh   ::
         :: zero point energy           0.332347148355 Eh   ::
         :: G(RRHO) w/o ZPVE           -0.049231229138 Eh   ::
         :: G(RRHO) contrib.            0.283115919217 Eh   ::
         :::::::::::::::::::::::::::::::::::::::::::::::::::::

           -------------------------------------------------
          | TOTAL ENERGY              -74.886333028409 Eh   |
          | TOTAL ENTHALPY            -74.531310934340 Eh   |
          | TOTAL FREE ENERGY         -74.603217109192 Eh   |
          | GRADIENT NORM               0.000047866994 Eh/α |
          | HOMO-LUMO GAP               1.298213624495 eV   |
           -------------------------------------------------

 * finished run on 2025/09/04 at 13:16:58.620
