   * xtb version 6.7.1 (edcfbbe) compiled by 'albert@albert-system' on 2024-07-22

   ID    Z sym.   atoms
    1    6 C      1-5, 7-12, 14-29, 31-37, 39-56
    2    7 N      6, 13, 30, 38
    3    1 H      57-90

          program call               : xtb data2507/gas/pzpy/pzpy_gas_S0_crest.xyz --gfn 2 --ohess vtight --parallel 40 --molden --ceasefiles --namespace data2507/gas/pzpy/pzpy_gas_S0_finalOpt
          :  Hamiltonian                  GFN2-xTB          :
 * total energy  :  -140.4452594 Eh     change       -0.1045942E-07 Eh
 * total energy  :  -140.4452610 Eh     change       -0.1599561E-05 Eh
 * total energy  :  -140.4452621 Eh     change       -0.1118613E-05 Eh
 * total energy  :  -140.4452645 Eh     change       -0.2329670E-05 Eh
 * total energy  :  -140.4452670 Eh     change       -0.2518954E-05 Eh
 * total energy  :  -140.4452692 Eh     change       -0.2219403E-05 Eh
 * total energy  :  -140.4452711 Eh     change       -0.1921800E-05 Eh
 * total energy  :  -140.4452728 Eh     change       -0.1665109E-05 Eh
 * total energy  :  -140.4452742 Eh     change       -0.1421719E-05 Eh
 * total energy  :  -140.4452753 Eh     change       -0.1033351E-05 Eh
 * total energy  :  -140.4452898 Eh     change       -0.4332786E-06 Eh
 * total energy  :  -140.4452902 Eh     change       -0.4581734E-06 Eh
 * total energy  :  -140.4452907 Eh     change       -0.4593945E-06 Eh
 * total energy  :  -140.4452911 Eh     change       -0.4383803E-06 Eh
 * total energy  :  -140.4452916 Eh     change       -0.4425237E-06 Eh
 * total energy  :  -140.4452921 Eh     change       -0.4840911E-06 Eh
 * total energy  :  -140.4452926 Eh     change       -0.5586210E-06 Eh
 * total energy  :  -140.4452932 Eh     change       -0.5788740E-06 Eh
 * total energy  :  -140.4452932 Eh     change       -0.2319808E-08 Eh
   *** GEOMETRY OPTIMIZATION CONVERGED AFTER 44 ITERATIONS ***

 final structure:
================
90
 xtb: 6.7.1 (edcfbbe)
C           -6.39754221833702       -4.56920648960755        0.99992515102718
C           -5.73395923327827       -3.78089296655407        0.07438802896301
C           -6.19826844824186       -2.51360529348390       -0.22375840253940
C           -7.33394656195413       -2.01734208410588        0.41415432005253
C           -7.86059839334402       -0.68961767400025        0.13219349991204
N           -9.13516717352630       -0.41381602064052        0.09536676559957
C           -9.23084889850567        0.90709967046091       -0.24452260123610
C          -10.34968421100904        1.71449188545821       -0.41853931526744
C          -10.13956112173986        3.03569492687181       -0.75096926784593
C           -8.85352883207753        3.55900080801950       -0.90195567312559
C           -7.72865701866004        2.77626360422726       -0.73555892898361
C           -7.93279678030728        1.44317467528925       -0.41888504146050
N           -7.06846078899066        0.40136780845506       -0.16959640277266
C           -5.66889007198766        0.47926964698715       -0.11887717996337
C           -4.98936882841863        0.04164247417872        1.01433988281196
C           -3.61050722082343        0.08094070278376        1.04670313119341
C           -2.88759856998241        0.56897803317045       -0.03904192408015
C           -1.41109457261044        0.57521648500080       -0.01496260738647
C           -0.71533300415796        1.79218386784724        0.00192830045776
C           -1.39124431387554        3.04020102842571        0.04284265600186
C           -0.70533402257407        4.21521238531678        0.03122454048476
C            0.70253250257357        4.21570849638449       -0.02835965336413
C            1.38917842794067        3.04114316216370       -0.04140524907795
C            0.71401632859508        1.79266558671051       -0.00229647137269
C            1.41058486221025        0.57617367960998        0.01294816464870
C            2.88710330734120        0.57051382387015        0.03764293792850
C            3.61067672747076        0.08512547318150       -1.04884183185448
C            4.98947583107388        0.04479819659903       -1.01531503699082
C            5.66825670407609        0.47861339095554        0.11982572486943
N            7.06764732414074        0.39854742786992        0.17188541830566
C            7.85832274145863       -0.69264261874786       -0.13306526004480
C            7.33008746501471       -2.01894777287084       -0.41874437840650
C            8.00805603747705       -2.82642295057588       -1.33054991865564
C            7.53826017276937       -4.09181943978775       -1.62444345920260
C            6.39176422341947       -4.56894909515183       -1.00963964711059
C            5.72839408544284       -3.78174273196048       -0.08300723770587
C            6.19364216568461       -2.51540054614787        0.21765915764053
N            9.13328674499296       -0.41895173244693       -0.09439937691642
C            9.23077888325343        0.90060279710380        0.25020100630094
C           10.35080208297364        1.70547001335524        0.42818025078914
C           10.14259215046313        3.02567713176558        0.76572282134183
C            8.85729456539852        3.55046314634515        0.91778908674055
C            7.73126314770778        2.77026075703668        0.74734216468878
C            7.93344219264979        1.43808616648387        0.42559677860437
C            4.95625135286495        0.98518636829638        1.20165414460870
C            3.57628455392005        1.03168903768958        1.15537292322668
C            0.71484539191242       -0.64195166601543        0.01335066117491
C            1.39013892329844       -1.89045167402019        0.06134199588201
C            0.70435454258250       -3.06532102458356        0.03592278889709
C           -0.70231487160326       -3.06575571422641       -0.04340163273600
C           -1.38892424071044       -1.89132686690411       -0.06712573226289
C           -0.71451503289414       -0.64242602895420       -0.01721981398960
C           -3.57748682072303        1.03326528905663       -1.15506017228800
C           -4.95752003999463        0.98791185717243       -1.20015517758542
C           -8.01230201248077       -2.82598362944119        1.32463647154296
C           -7.54346306976209       -4.09231912999404        1.61598995029909
H           -6.02798053365406       -5.55703990615967        1.23234465363548
H           -4.85207710666924       -4.15701837442502       -0.42369093848378
H           -5.68860082887631       -1.91985414579734       -0.96844188526063
H          -11.34027687749871        1.30910873523689       -0.29049102466506
H          -10.98717231427721        3.68963954624064       -0.89376757589327
H           -8.73744622436454        4.60279796475035       -1.15382068322029
H           -6.73527840319947        3.18651815726494       -0.84256869093454
H           -5.54753135656548       -0.33693770319714        1.85764978793814
H           -3.08208528828161       -0.26377201320900        1.92330888814926
H           -2.47008863191708        3.04117779409082        0.08838771601886
H           -1.23390976169446        5.15648328783522        0.06330018701314
H            1.23048132239988        5.15736946796052       -0.05922059419261
H            2.46803559201839        3.04277128879007       -0.08676898342939
H            3.08281566309945       -0.25700462333906       -1.92679675547545
H            5.54813416331281       -0.33194237731899       -1.85912066820357
H            8.90106649877587       -2.44064559354356       -1.79686452057618
H            8.06637185564838       -4.70941260023435       -2.33582662691853
H            6.02159729638560       -5.55613033978729       -1.24386412926651
H            4.84604192070289       -4.15807576376613        0.41408274232447
H            5.68417125547350       -1.92260674124261        0.96324093010866
H           11.34081811448640        1.29892480105365        0.29936020733639
H           10.99116331236583        3.67762474023382        0.91190490024354
H            8.74271777363432        4.59340141640651        1.17386284804727
H            6.73849987679805        3.18177020220433        0.85520146945426
H            5.48684850027071        1.31757750337927        2.08163698418703
H            3.02134690862901        1.40949074102284        2.00175457257971
H            2.46843898576360       -1.89386638886856        0.11960325553900
H            1.23260492324500       -4.00668949306754        0.07188198041915
H           -1.22988997067989       -4.00744823421505       -0.08076244632467
H           -2.46721835199899       -1.89539551774395       -0.12547407325478
H           -3.02306511426995        1.41280788435566       -2.00100036891459
H           -5.48873202594386        1.32306399396897       -2.07872306599763
H           -8.90479027242640       -2.44029176695892        1.79202095687538
H           -8.07180170623140       -4.71078050325710        2.32644871267338

          :  Hamiltonian                  GFN2-xTB          :
         :: gradient norm              0.000030789200 Eh/a0 ::
         :: HOMO-LUMO gap              2.095771512220 eV    ::
         :: SCC energy              -143.091193206018 Eh    ::
         :: -> dispersion             -0.132498717533 Eh    ::
         :: repulsion energy           2.645900015363 Eh    ::

    * Orbital Energies and Occupations

         #    Occupation            Energy/Eh            Energy/eV
      -------------------------------------------------------------
         1        2.0000           -0.6864401             -18.6790
       ...           ...                  ...                  ...
       119        2.0000           -0.4138803             -11.2623
       120        2.0000           -0.4124346             -11.2229
       121        2.0000           -0.4115551             -11.1990
       122        2.0000           -0.4099410             -11.1551
       123        2.0000           -0.4081356             -11.1059
       124        2.0000           -0.4078815             -11.0990
       125        2.0000           -0.3816192             -10.3844
       126        2.0000           -0.3807794             -10.3615
       127        2.0000           -0.3794698             -10.3259
       128        2.0000           -0.3794316             -10.3249
       129        2.0000           -0.3759685             -10.2306
       130        2.0000           -0.3757411             -10.2244
       131        2.0000           -0.3670856              -9.9889 (HOMO)
       132                         -0.2900674              -7.8931 (LUMO)
       133                         -0.2616498              -7.1199
       134                         -0.2613537              -7.1118
       135                         -0.2425500              -6.6001
       136                         -0.2421912              -6.5904
       137                         -0.2411968              -6.5633
       138                         -0.2411775              -6.5628
       139                         -0.2393753              -6.5137
       140                         -0.2293528              -6.2410
       141                         -0.2289929              -6.2312
       142                         -0.2286398              -6.2216
       ...                                ...                  ...
       258                          0.7069824              19.2380
      -------------------------------------------------------------
                  HL-Gap            0.0770182 Eh            2.0958 eV

     #   Z          covCN         q      C6AA      α(0)
     1   6 C        2.920    -0.028    28.698     8.785
     2   6 C        2.919    -0.028    28.712     8.787
     3   6 C        2.923    -0.032    28.789     8.799
     4   6 C        2.975     0.004    27.931     8.669
     5   6 C        3.181     0.135    24.668     8.108
     6   7 N        1.886    -0.290    28.380     7.897
     7   6 C        3.192     0.067    26.025     8.319
     8   6 C        2.910    -0.042    29.033     8.835
     9   6 C        2.923    -0.039    28.974     8.827
    10   6 C        2.927    -0.037    28.915     8.818
    11   6 C        2.907    -0.051    29.260     8.870
    12   6 C        3.087     0.034    27.139     8.540
    13   7 N        2.826    -0.051    22.233     7.003
    14   6 C        2.913     0.064    26.560     8.451
    15   6 C        2.920    -0.040    29.003     8.831
    16   6 C        2.924    -0.030    28.752     8.793
    17   6 C        2.977     0.015    27.679     8.630
    18   6 C        2.977    -0.006    28.175     8.707
    19   6 C        2.984     0.007    27.861     8.658
    20   6 C        2.917    -0.034    28.857     8.809
    21   6 C        2.914    -0.029    28.727     8.789
    22   6 C        2.914    -0.029    28.727     8.789
    23   6 C        2.917    -0.034    28.857     8.809
    24   6 C        2.984     0.007    27.861     8.658
    25   6 C        2.977    -0.006    28.174     8.707
    26   6 C        2.977     0.015    27.679     8.630
    27   6 C        2.924    -0.030    28.752     8.793
    28   6 C        2.920    -0.040    29.003     8.831
    29   6 C        2.913     0.064    26.560     8.451
    30   7 N        2.826    -0.051    22.232     7.003
    31   6 C        3.181     0.135    24.668     8.108
    32   6 C        2.975     0.004    27.931     8.669
    33   6 C        2.927    -0.026    28.662     8.780
    34   6 C        2.919    -0.027    28.669     8.780
    35   6 C        2.920    -0.028    28.698     8.785
    36   6 C        2.919    -0.028    28.712     8.787
    37   6 C        2.923    -0.032    28.789     8.799
    38   7 N        1.886    -0.290    28.380     7.897
    39   6 C        3.192     0.067    26.024     8.319
    40   6 C        2.910    -0.042    29.033     8.835
    41   6 C        2.923    -0.039    28.974     8.827
    42   6 C        2.927    -0.037    28.915     8.818
    43   6 C        2.907    -0.051    29.260     8.870
    44   6 C        3.087     0.034    27.139     8.540
    45   6 C        2.920    -0.042    29.047     8.838
    46   6 C        2.924    -0.031    28.784     8.798
    47   6 C        2.984     0.007    27.863     8.659
    48   6 C        2.917    -0.035    28.861     8.810
    49   6 C        2.914    -0.029    28.727     8.789
    50   6 C        2.914    -0.029    28.727     8.789
    51   6 C        2.917    -0.035    28.861     8.810
    52   6 C        2.984     0.007    27.863     8.659
    53   6 C        2.924    -0.031    28.784     8.798
    54   6 C        2.920    -0.042    29.046     8.838
    55   6 C        2.927    -0.026    28.662     8.780
    56   6 C        2.919    -0.027    28.669     8.780
    57   1 H        0.926     0.034     2.524     2.485
    58   1 H        0.926     0.032     2.564     2.504
    59   1 H        0.926     0.027     2.633     2.537
    60   1 H        0.926     0.044     2.397     2.421
    61   1 H        0.926     0.032     2.564     2.504
    62   1 H        0.926     0.030     2.581     2.513
    63   1 H        0.926     0.025     2.661     2.551
    64   1 H        0.926     0.038     2.472     2.459
    65   1 H        0.926     0.039     2.463     2.454
    66   1 H        0.926     0.031     2.569     2.506
    67   1 H        0.926     0.031     2.568     2.506
    68   1 H        0.926     0.031     2.568     2.506
    69   1 H        0.926     0.031     2.569     2.506
    70   1 H        0.926     0.039     2.463     2.454
    71   1 H        0.926     0.038     2.472     2.459
    72   1 H        0.926     0.053     2.282     2.362
    73   1 H        0.926     0.037     2.485     2.465
    74   1 H        0.926     0.034     2.524     2.485
    75   1 H        0.926     0.032     2.564     2.504
    76   1 H        0.926     0.027     2.633     2.537
    77   1 H        0.926     0.044     2.397     2.421
    78   1 H        0.926     0.032     2.564     2.504
    79   1 H        0.926     0.030     2.581     2.512
    80   1 H        0.926     0.025     2.660     2.551
    81   1 H        0.926     0.043     2.412     2.429
    82   1 H        0.926     0.039     2.463     2.454
    83   1 H        0.926     0.031     2.569     2.506
    84   1 H        0.926     0.030     2.582     2.513
    85   1 H        0.926     0.030     2.581     2.513
    86   1 H        0.926     0.031     2.569     2.506
    87   1 H        0.926     0.039     2.463     2.454
    88   1 H        0.926     0.043     2.412     2.429
    89   1 H        0.926     0.053     2.282     2.362
    90   1 H        0.926     0.037     2.485     2.465

molecular dipole:
                 x           y           z       tot (Debye)
 q only:        0.000      -0.316      -0.001
   full:        0.001       0.141      -0.000       0.357

 projected vibrational frequencies (cm⁻¹)
eigval :       -0.00    -0.00    -0.00     0.00     0.00     0.00
eigval :        7.77     8.08     9.43    14.31    16.93    30.40
eigval :       37.91    40.78    53.13    53.30    56.51    59.33
eigval :       66.61    67.58    75.76    81.02    86.68    88.10
eigval :       98.53   114.62   118.55   152.98   170.02   182.18
eigval :      184.31   185.54   198.85   204.91   212.82   226.62
eigval :      247.18   249.02   263.54   285.59   286.23   302.19
eigval :      322.55   338.94   342.53   352.17   373.81   373.86
eigval :      379.08   379.52   382.05   383.58   390.52   392.09
eigval :      407.34   410.31   418.57   424.20   445.06   447.86
eigval :      458.91   461.73   484.84   487.21   492.73   512.65
eigval :      540.12   541.71   547.09   547.48   571.47   577.53
eigval :      580.11   585.93   586.51   589.97   592.68   602.36
eigval :      602.82   617.69   621.59   640.59   645.26   653.00
eigval :      656.76   665.04   668.82   676.25   676.61   684.57
eigval :      692.69   693.83   705.05   710.11   710.88   727.20
eigval :      740.76   754.29   764.21   765.05   774.47   774.65
eigval :      774.99   776.17   816.16   820.12   865.93   865.97
eigval :      867.86   868.05   873.43   874.80   876.60   877.76
eigval :      878.28   880.22   885.64   886.30   898.16   899.77
eigval :      899.95   904.64   904.71   913.54   914.85   916.17
eigval :      918.34   918.54   921.78   922.43   923.49   927.31
eigval :      928.88   929.74   929.80   931.84   932.29   932.43
eigval :      932.50   932.97   968.31   970.79   994.02   998.59
eigval :     1034.18  1036.39  1060.50  1060.54  1081.80  1081.84
eigval :     1082.32  1084.49  1119.79  1119.80  1130.61  1130.67
eigval :     1133.48  1133.82  1135.01  1135.54  1135.77  1146.69
eigval :     1175.04  1175.05  1181.30  1181.33  1181.97  1185.26
eigval :     1187.68  1188.81  1198.09  1198.46  1203.75  1204.11
eigval :     1216.75  1224.28  1229.84  1258.32  1260.76  1262.48
eigval :     1263.43  1267.15  1269.59  1279.13  1279.14  1294.14
eigval :     1294.16  1308.18  1308.66  1317.45  1318.04  1321.73
eigval :     1321.81  1325.19  1350.06  1360.85  1362.95  1364.99
eigval :     1384.40  1384.88  1391.89  1403.40  1404.52  1414.30
eigval :     1415.00  1419.91  1429.21  1432.16  1432.40  1446.03
eigval :     1462.67  1462.79  1475.66  1485.49  1486.66  1499.35
eigval :     1501.83  1527.35  1529.91  1536.60  1536.64  1542.18
eigval :     1561.93  1562.16  1581.00  1581.01  1589.25  1589.27
eigval :     1596.26  1596.44  1598.56  1598.58  1608.61  1617.10
eigval :     1617.26  1622.76  3073.23  3073.26  3073.65  3073.68
eigval :     3075.31  3076.32  3079.47  3079.48  3080.36  3080.37
eigval :     3081.16  3081.31  3081.68  3082.37  3083.84  3084.27
eigval :     3086.57  3086.60  3090.67  3091.38  3091.74  3091.76
eigval :     3092.93  3092.96  3093.55  3093.66  3094.96  3095.34
eigval :     3095.46  3096.55  3106.97  3106.97  3109.39  3109.41

   temp. (K)  partition function   enthalpy   heat capacity  entropy
                                   cal/mol     cal/K/mol   cal/K/mol   J/K/mol
 298.15  VIB  0.122E+22            25616.783    161.744    161.956
         ROT  0.777E+08              888.752      2.981     39.085
         INT  0.947E+29            26505.535    164.725    201.042
         TR   0.185E+29             1481.254      4.968     45.560
         TOT                       27986.7892   169.6931   246.6019  1031.7823

       T/K    H(0)-H(T)+PV         H(T)/Eh          T*S/Eh         G(T)/Eh
   ------------------------------------------------------------------------
    298.15    0.445998E-01    0.735372E+00    0.117169E+00    0.618203E+00
   ------------------------------------------------------------------------

         :::::::::::::::::::::::::::::::::::::::::::::::::::::
         ::                  THERMODYNAMIC                  ::
         :::::::::::::::::::::::::::::::::::::::::::::::::::::
         :: total free energy        -139.827089757525 Eh   ::
         ::.................................................::
         :: total energy             -140.445293190648 Eh   ::
         :: zero point energy           0.690772156728 Eh   ::
         :: G(RRHO) w/o ZPVE           -0.072568723605 Eh   ::
         :: G(RRHO) contrib.            0.618203433124 Eh   ::
         :::::::::::::::::::::::::::::::::::::::::::::::::::::

           -------------------------------------------------
          | TOTAL ENERGY             -140.445293190648 Eh   |
          | TOTAL ENTHALPY           -139.709921246496 Eh   |
          | TOTAL FREE ENERGY        -139.827089757525 Eh   |
          | GRADIENT NORM               0.000030791172 Eh/α |
          | HOMO-LUMO GAP               2.095771501736 eV   |
           -------------------------------------------------

 * finished run on 2025/09/02 at 18:39:20.464
