   * xtb version 6.7.1 (edcfbbe) compiled by 'albert@albert-system' on 2024-07-22

   ID    Z sym.   atoms
    1    6 C      1-5, 7-12, 14-29, 31-37, 39-56
    2    7 N      6, 13, 30, 38
    3    1 H      57-90

          program call               : xtb data2507/gas/pzpy/pzpy_gas_T1_crest.xyz --gfn 2 --spinpol --tblite --uhf 2 --ohess vtight --parallel 40 --molden --ceasefiles --namespace data2507/gas/pzpy/pzpy_gas_T1_finalOpt
 * total energy  :  -140.3821986 Eh     change       -0.1883211E-07 Eh
 * total energy  :  -140.3822409 Eh     change       -0.4228412E-04 Eh
 * total energy  :  -140.3822556 Eh     change       -0.1475377E-04 Eh
 * total energy  :  -140.3822624 Eh     change       -0.6761713E-05 Eh
 * total energy  :  -140.3822705 Eh     change       -0.8118190E-05 Eh
 * total energy  :  -140.3822747 Eh     change       -0.4190891E-05 Eh
 * total energy  :  -140.3822777 Eh     change       -0.3002784E-05 Eh
 * total energy  :  -140.3822795 Eh     change       -0.1781546E-05 Eh
 * total energy  :  -140.3822805 Eh     change       -0.1038008E-05 Eh
 * total energy  :  -140.3822811 Eh     change       -0.5354185E-06 Eh
 * total energy  :  -140.3822943 Eh     change       -0.2237633E-06 Eh
 * total energy  :  -140.3822945 Eh     change       -0.1788056E-06 Eh
 * total energy  :  -140.3822948 Eh     change       -0.3039320E-06 Eh
 * total energy  :  -140.3822950 Eh     change       -0.2533759E-06 Eh
 * total energy  :  -140.3822953 Eh     change       -0.3041657E-06 Eh
 * total energy  :  -140.3822957 Eh     change       -0.3510259E-06 Eh
 * total energy  :  -140.3822960 Eh     change       -0.3022345E-06 Eh
 * total energy  :  -140.3822962 Eh     change       -0.2076380E-06 Eh
 * total energy  :  -140.3822962 Eh     change       -0.1058913E-07 Eh
   *** GEOMETRY OPTIMIZATION CONVERGED AFTER 44 ITERATIONS ***

 final structure:
================
90
 xtb: 6.7.1 (edcfbbe)
C           -6.32667324837505       -4.67391533742650        0.15173047356637
C           -5.70097744487960       -3.72367288903682       -0.63830676306616
C           -6.18515141147271       -2.43009501759857       -0.68951055051553
C           -7.30253987397660       -2.07180912917233        0.06297719511174
C           -7.84782864095988       -0.72187844464218        0.04015555936254
N           -9.12517398451271       -0.46090886393854        0.07874701573378
C           -9.24098129994495        0.89848931711727       -0.01311434898578
C          -10.37135897200050        1.70818793187867       -0.01404719146933
C          -10.18214461902682        3.07085719681353       -0.10399443329727
C           -8.90517065753916        3.63058475800282       -0.18200385572537
C           -7.76900345919797        2.84622306474296       -0.18389781089174
C           -7.95221387513034        1.47485455626456       -0.11313203126877
N           -7.07224193473539        0.41678726465380       -0.07319722530936
C           -5.67452221847678        0.49863855768700       -0.03987623462346
C           -4.96130625037955       -0.15889990499192        0.96104136880546
C           -3.58508732828026       -0.11990189360239        0.96526987907312
C           -2.87997119972067        0.59362060093585       -0.01085384090674
C           -1.42116967195990        0.60235623978802       -0.02005847645859
C           -0.71206335096208        1.84436889378902       -0.00160325593673
C           -1.37491962614171        3.06840277052051        0.10896743545391
C           -0.68470520122548        4.27790521521137        0.04735813382641
C            0.68056813418295        4.27874177261298       -0.13186039435081
C            1.37302235593248        3.07016641170090       -0.18613996373322
C            0.71227086189240        1.84564422903119       -0.06893965968514
C            1.42460068066387        0.60561861685850       -0.04197184094373
C            2.88343854704149        0.60151104385499       -0.03715307352689
C            3.60216885106622       -0.11412295358094       -1.00167035326982
C            4.97823140238063       -0.15360283212156       -0.97741133875955
C            5.67714040196346        0.50576908978310        0.03233038159633
N            7.07373646036872        0.41844317169223        0.08965393747848
C            7.84555853614888       -0.72466147538692       -0.00318786397794
C            7.29441969798243       -2.07217314251705       -0.03010652581894
C            7.94639513238478       -3.04650012082706       -0.78407707901418
C            7.45312086058197       -4.33601516351761       -0.83219283293779
C            6.30911175308266       -4.67055539386617       -0.12556416437053
C            5.67217466299456       -3.71378243465487        0.64741743192242
C            6.16098323628487       -2.42207456793932        0.70207679626019
N            9.12471099266880       -0.47021627823984       -0.01824424217616
C            9.24563021990742        0.88896767373102        0.06978356947896
C           10.37993108484038        1.69290967378468        0.08951977163163
C           10.19600024384586        3.05687227305627        0.17027783075809
C            8.92062865430112        3.62336013887240        0.22106476131557
C            7.78060307433804        2.84479512347006        0.20387484841708
C            7.95810559816329        1.47222955287119        0.14221715859543
C            4.97824239940257        1.24121708983381        0.98592934307017
C            3.60092892386552        1.29337474380963        0.94378503913216
C            0.71609290019582       -0.63759283048739       -0.00788285538331
C            1.38048425125732       -1.86172653476649        0.09720075390092
C            0.68945285260501       -3.07130747168784        0.05062559061674
C           -0.67843690331422       -3.07281580765798       -0.10656106851793
C           -1.37169450241661       -1.86458718840439       -0.15525229767008
C           -0.70945683278211       -0.63908457860931       -0.05300854125906
C           -3.61113711433273        1.28035952483058       -0.98520512077348
C           -4.98900106139065        1.22862199363050       -1.00724565258326
C           -7.94368288928459       -3.03956654078947        0.83447210815100
C           -7.45499355206457       -4.33095025095714        0.87923836299030
H           -5.94161955651885       -5.68216764701064        0.19158570236598
H           -4.83366184890834       -3.99247393039501       -1.22381143738473
H           -5.70554313404477       -1.70534421564433       -1.33111521252680
H          -11.35461588500972        1.27238095918730        0.05853009985875
H          -11.03931576252494        3.72788338131466       -0.10801611018480
H           -8.80493529514079        4.70431021551248       -0.24065698963821
H           -6.78282197491817        3.28371490433303       -0.23253560043428
H           -5.49595897147183       -0.70162816792423        1.72640084318905
H           -3.03729771848189       -0.62122872924043        1.74934503587825
H           -2.44448724754573        3.08281849017514        0.25171240138618
H           -1.22944203337335        5.20654303635889        0.12784477210671
H            1.22351207498649        5.20795390064136       -0.21759099755021
H            2.44272312679093        3.08546699135415       -0.32800873565970
H            3.06556191792445       -0.61749894069370       -1.79214195987239
H            5.52368300778391       -0.69919133035819       -1.73306489395852
H            8.83767095440998       -2.76983011067634       -1.32525041488317
H            7.96082767600793       -5.08390833414126       -1.42318607548376
H            5.92046601783105       -5.67731489086795       -0.16823308644821
H            4.79231295475253       -3.97595822917108        1.21700745051527
H            5.67214332612296       -1.69238767045078        1.33098239664560
H           11.36215493630128        1.25178841855141        0.03812401011765
H           11.05630205939721        3.70955203323594        0.18854785744903
H            8.82481360506173        4.69780816509095        0.27353657347124
H            6.79592381297719        3.28746849017321        0.23158106972435
H            5.52028156943321        1.74345013178682        1.77363914449292
H            3.06234644088919        1.83647151175475        1.70646849496760
H            2.45252570876343       -1.87866574278173        0.22082914318520
H            1.23621709335604       -3.99932580303532        0.12469843432363
H           -1.22340616571406       -4.00203185017955       -0.17870792972964
H           -2.44382079853456       -1.88347825520855       -0.27803120338229
H           -3.08345067849358        1.81971060454337       -1.75810103518983
H           -5.54214494973979        1.72789689075418       -1.78910919457422
H           -8.82288231098739       -2.75640042651835        1.39180329897559
H           -7.95403493544129       -5.07375165868437        1.48387882279198

 projected vibrational frequencies (cm⁻¹)
eigval :       -0.00    -0.00     0.00     0.00     0.00     0.00
eigval :        8.05     8.10     9.84    14.53    21.26    32.48
eigval :       35.05    38.73    53.86    54.17    57.66    60.36
eigval :       69.55    71.57    74.48    79.86    88.00    91.87
eigval :      105.58   114.26   140.30   155.16   168.37   183.93
eigval :      185.62   186.03   206.82   208.31   218.98   229.97
eigval :      249.98   253.01   262.77   285.09   286.38   302.77
eigval :      321.95   332.61   341.79   352.53   366.55   372.27
eigval :      373.87   376.80   379.65   379.76   385.50   387.99
eigval :      405.91   407.97   413.78   420.91   420.99   426.15
eigval :      463.71   471.21   484.38   485.86   495.33   509.47
eigval :      539.80   541.82   546.96   547.25   564.68   570.80
eigval :      574.82   576.22   585.64   586.52   587.73   597.29
eigval :      601.21   615.94   616.95   626.00   640.94   653.15
eigval :      655.86   664.75   667.49   673.30   676.40   676.68
eigval :      686.06   688.82   699.40   709.62   710.66   716.49
eigval :      724.21   747.57   751.20   760.89   764.40   764.86
eigval :      774.63   774.67   817.30   821.33   845.17   849.41
eigval :      865.70   865.92   866.68   868.04   873.36   877.46
eigval :      878.24   879.24   885.07   885.51   890.46   892.72
eigval :      894.58   900.04   900.40   904.92   905.17   906.16
eigval :      906.66   911.30   913.55   921.76   921.93   925.43
eigval :      926.66   930.15   930.20   932.68   932.73   935.33
eigval :      935.60   945.77   967.33   969.43   992.22   995.51
eigval :     1031.94  1033.77  1060.68  1060.72  1081.80  1081.81
eigval :     1101.58  1105.81  1114.18  1119.84  1119.88  1125.89
eigval :     1131.32  1131.42  1133.78  1133.87  1137.07  1137.19
eigval :     1174.86  1174.87  1181.39  1181.46  1181.47  1181.71
eigval :     1182.94  1188.74  1191.57  1191.62  1197.92  1198.09
eigval :     1208.66  1209.40  1232.56  1254.01  1257.11  1261.25
eigval :     1261.63  1268.38  1269.29  1279.02  1279.08  1293.21
eigval :     1293.60  1296.66  1297.53  1307.57  1309.86  1316.82
eigval :     1318.11  1321.34  1321.39  1334.58  1362.58  1362.63
eigval :     1365.14  1369.86  1377.64  1382.68  1384.86  1407.39
eigval :     1408.67  1409.19  1413.85  1414.02  1427.65  1431.75
eigval :     1431.81  1462.18  1462.36  1471.14  1478.73  1483.19
eigval :     1486.24  1488.80  1491.25  1519.28  1531.28  1534.24
eigval :     1534.77  1541.51  1541.76  1558.44  1576.74  1579.32
eigval :     1580.61  1580.63  1588.83  1588.85  1597.90  1597.92
eigval :     1615.93  1616.02  3073.27  3073.31  3074.88  3074.89
eigval :     3078.99  3079.54  3079.55  3079.78  3080.87  3080.89
eigval :     3081.71  3081.77  3083.45  3083.52  3086.24  3086.50
eigval :     3086.93  3087.59  3092.24  3092.27  3092.89  3093.02
eigval :     3093.09  3093.16  3094.15  3094.67  3095.33  3096.26
eigval :     3098.98  3100.06  3106.79  3106.83  3109.63  3109.68

   temp. (K)  partition function   enthalpy   heat capacity  entropy
                                   cal/mol     cal/K/mol   cal/K/mol   J/K/mol
 298.15  VIB  0.700E+21            25665.685    162.745    161.449
         ROT  0.155E+09              888.752      2.981     40.462
         INT  0.109E+30            26554.437    165.726    201.912
         TR   0.185E+29             1481.254      4.968     45.560
         TOT                       28035.6911   170.6939   247.4720  1035.4228

       T/K    H(0)-H(T)+PV         H(T)/Eh          T*S/Eh         G(T)/Eh
   ------------------------------------------------------------------------
    298.15    0.446777E-01    0.733047E+00    0.117582E+00    0.615465E+00
   ------------------------------------------------------------------------

         :::::::::::::::::::::::::::::::::::::::::::::::::::::
         ::                  THERMODYNAMIC                  ::
         :::::::::::::::::::::::::::::::::::::::::::::::::::::
         :: total free energy        -139.766831142853 Eh   ::
         ::.................................................::
         :: total energy             -140.382296106071 Eh   ::
         :: zero point energy           0.688369172432 Eh   ::
         :: G(RRHO) w/o ZPVE           -0.072904209214 Eh   ::
         :: G(RRHO) contrib.            0.615464963218 Eh   ::
         :::::::::::::::::::::::::::::::::::::::::::::::::::::

           -------------------------------------------------
          | TOTAL ENERGY             -140.382296106071 Eh   |
          | TOTAL ENTHALPY           -139.649249215982 Eh   |
          | TOTAL FREE ENERGY        -139.766831142853 Eh   |
          | GRADIENT NORM               0.000043392562 Eh/α |
           -------------------------------------------------

 * finished run on 2025/09/02 at 18:44:27.668
