   * xtb version 6.7.1 (edcfbbe) compiled by 'albert@albert-system' on 2024-07-22

   ID    Z sym.   atoms
    1    6 C      1-5, 7-12, 14-29, 31-37, 39-56
    2    7 N      6, 13, 30, 38
    3    1 H      57-90

          program call               : xtb data2507/gas/pzpy/pzpy_gas_S0_finalOpt.xtbopt.xyz --gfn 2 --spinpol --tblite --uhf 2 --ohess vtight --parallel 40 --molden --ceasefiles --namespace data2507/gas/pzpy/pzpy_gas_T1_preOpt
 * total energy  :  -140.3732159 Eh     change        0.2068717E-07 Eh
 * total energy  :  -140.3795360 Eh     change       -0.6320092E-02 Eh
 * total energy  :  -140.3809990 Eh     change       -0.1463015E-02 Eh
 * total energy  :  -140.3811313 Eh     change       -0.1323034E-03 Eh
 * total energy  :  -140.3812707 Eh     change       -0.1393911E-03 Eh
 * total energy  :  -140.3813475 Eh     change       -0.7680439E-04 Eh
 * total energy  :  -140.3814388 Eh     change       -0.9130342E-04 Eh
 * total energy  :  -140.3815122 Eh     change       -0.7340582E-04 Eh
 * total energy  :  -140.3815540 Eh     change       -0.4183414E-04 Eh
 * total energy  :  -140.3815814 Eh     change       -0.2736867E-04 Eh
 * total energy  :  -140.3822714 Eh     change        0.4231970E-05 Eh
 * total energy  :  -140.3822827 Eh     change       -0.1131669E-04 Eh
 * total energy  :  -140.3822854 Eh     change       -0.2753607E-05 Eh
 * total energy  :  -140.3822877 Eh     change       -0.2301437E-05 Eh
 * total energy  :  -140.3822902 Eh     change       -0.2499643E-05 Eh
 * total energy  :  -140.3822907 Eh     change       -0.4123052E-06 Eh
 * total energy  :  -140.3822910 Eh     change       -0.3450291E-06 Eh
 * total energy  :  -140.3822910 Eh     change       -0.2544334E-07 Eh
 * total energy  :  -140.3822911 Eh     change       -0.8945688E-07 Eh
   *** GEOMETRY OPTIMIZATION CONVERGED AFTER 51 ITERATIONS ***

 final structure:
================
90
 xtb: 6.7.1 (edcfbbe)
C           -6.38509756000152       -4.67328892443735        0.20105516879937
C           -5.74476053897850       -3.72994824206532       -0.58551754526457
C           -6.21338455836684       -2.43068331110428       -0.63812511086380
C           -7.32980293608879       -2.05971712232328        0.10960384005233
C           -7.86133239488870       -0.70442134905495        0.08450139858664
N           -9.13640404279164       -0.43221376693798        0.12218990821982
C           -9.24047070116443        0.92790082310953        0.02793484478289
C          -10.36395690750948        1.74712236103302        0.02503487643552
C          -10.16319993776001        3.10795536037154       -0.06754400720299
C           -8.88145788647956        3.65655697794115       -0.14614039763610
C           -7.75197825482849        2.86255365156223       -0.14595725041274
C           -7.94673532466421        1.49289621549867       -0.07259188167289
N           -7.07582481817188        0.42729415716176       -0.03043786327263
C           -5.67746224669390        0.49856467964499        0.00227476931706
C           -4.96805520663767       -0.16288755324033        1.00329467537034
C           -3.59149254428130       -0.13177322986245        1.00776278929846
C           -2.88230101837163        0.57805436741205        0.03204526345299
C           -1.42334645421910        0.58199704152048        0.02224632041689
C           -0.71180620080767        1.82266387374582        0.04161345033569
C           -1.37234949960033        3.04715375482872        0.16052191884590
C           -0.68076661486006        4.25594745458673        0.10007087034823
C            0.68347700270606        4.25548131189325       -0.08658221335856
C            1.37383630326605        3.04614140772034       -0.15004897628057
C            0.71206580446371        1.82202499180801       -0.03414623301927
C            1.42230103859064        0.58056007568470       -0.01788446975563
C            2.88124699048620        0.57509974237930       -0.02825054948284
C            3.58927397299050       -0.13313211454511       -1.00597533884211
C            4.96581784763662       -0.16529657988838       -1.00248351580100
C            5.67637942317428        0.49344409408530       -0.00049755512813
N            7.07475265226850        0.42166155218580        0.03081009318568
C            7.86002077635950       -0.70986485225321       -0.08751250334073
C            7.32847768092291       -2.06509566889990       -0.11513340770717
C            7.98387872976349       -3.02413461074427       -0.88569483381478
C            7.51093417879457       -4.32117995782677       -0.93411526654551
C            6.38412302150835       -4.67863196040262       -0.21122573716428
C            5.74405566602435       -3.73693261830576        0.57752844060982
C            6.21250255267582       -2.43769688744382        0.63244015244735
N            9.13508998950494       -0.43769137985638       -0.12586379687824
C            9.23939821748784        0.92218924821760       -0.02864360297347
C           10.36296750801798        1.74129819566890       -0.02505943085792
C           10.16243713978889        3.10193942865889        0.07075864859827
C            8.88082846786908        3.65048549177384        0.15188011829172
C            7.75127470869569        2.85658872636894        0.15108245102872
C            7.94582600803475        1.48708016687654        0.07447186044003
C            4.98762569713679        1.21691677559195        0.96952864278769
C            3.60961728552418        1.26234325793588        0.94788289534728
C            0.71177116036793       -0.66139115588157        0.01783178724515
C            1.37542945844473       -1.88663680363185        0.11344565991614
C            0.68221976977404       -3.09513967278347        0.07024083730992
C           -0.68705998689250       -3.09427284263812       -0.07417824962823
C           -1.37903444135027       -1.88496837691184       -0.11466530196719
C           -0.71412683843867       -0.66061921288420       -0.01625754331305
C           -3.60951877659484        1.26825797699427       -0.94285854283061
C           -4.98754678439376        1.22390987871995       -0.96552287202521
C           -7.98550108251535       -3.02037292971249        0.87788153571011
C           -7.51237703011166       -4.31744113927940        0.92400284070029
H           -6.01227465260668       -5.68609912904928        0.24175143629062
H           -4.87809100346182       -4.00869226067943       -1.16731476227619
H           -5.72238311015917       -1.71142120991268       -1.27728479456559
H          -11.35087022356633        1.31974237184983        0.09810106138651
H          -11.01475617351211        3.77222721822832       -0.07323788882152
H           -8.77202154980171        4.72925968778914       -0.20703791792638
H           -6.76219963398849        3.29178775867673       -0.19499258989712
H           -5.50588171346720       -0.70226658156645        1.76881031047487
H           -3.04679147195312       -0.63589224365124        1.79221453849529
H           -2.44115360968208        3.06249125497023        0.30884898779082
H           -1.22367504757733        5.18505156840234        0.18722073462924
H            1.22733083750608        5.18424583102523       -0.17143029473505
H            2.44264749119782        3.06078527444452       -0.29838509632984
H            3.04368450085414       -0.63504925163668       -1.79122182872318
H            5.50273880106515       -0.70332845324905       -1.76958172298973
H            8.86185048237046       -2.72960281287826       -1.43904141329609
H            8.02122323639304       -5.05712689254544       -1.53775668026733
H            6.01145311319809       -5.69142746563225       -0.25368535245424
H            4.87774954559701       -4.01696383102365        1.15924756042008
H            5.72173266195876       -1.71977352870976        1.27328003807613
H           11.34976388450666        1.31398915031043       -0.10009205241156
H           11.01406280566518        3.76611627038480        0.07706329875062
H            8.77155305732479        4.72305978591064        0.21527056243687
H            6.76158825596669        3.28580789053717        0.20207190264988
H            5.53860883496598        1.71665627458607        1.75260615745508
H            3.07949061781868        1.79785066095428        1.72178656880385
H            2.44858983011981       -1.90515545784797        0.22675876555543
H            1.22818291285791       -4.02418176763415        0.13702436749554
H           -1.23397616201986       -4.02260180932569       -0.14305371758521
H           -2.45220950532984       -1.90214688280255       -0.22804530567397
H           -3.07848275090396        1.80520886326241       -1.71513705752991
H           -5.53763836870461        1.72589372678583       -1.74779087281470
H           -8.86382019124341       -2.72707594013357        1.43133434793555
H           -8.02289312393648       -5.05465648592598        1.52590099240290

 projected vibrational frequencies (cm⁻¹)
eigval :       -0.00    -0.00    -0.00    -0.00     0.00     0.00
eigval :        8.04     8.21     9.84    14.66    21.17    32.46
eigval :       35.12    38.66    53.79    54.18    57.82    60.22
eigval :       69.51    71.36    74.44    79.62    87.93    91.85
eigval :      105.65   114.45   139.90   155.43   168.09   183.79
eigval :      185.58   185.99   206.88   208.10   218.82   229.90
eigval :      249.93   253.01   262.96   285.10   286.42   302.77
eigval :      321.84   332.68   341.79   352.52   366.51   372.32
eigval :      373.80   376.71   379.69   379.80   385.37   387.97
eigval :      405.81   407.99   413.66   420.69   420.90   426.19
eigval :      463.62   471.14   484.36   485.90   495.34   509.52
eigval :      539.82   541.84   546.97   547.26   564.65   570.78
eigval :      574.84   576.17   585.64   586.54   587.74   597.24
eigval :      601.26   615.93   616.85   625.99   640.99   653.04
eigval :      655.78   664.83   667.50   673.25   676.34   676.62
eigval :      686.07   688.83   699.32   709.64   710.67   716.48
eigval :      724.19   747.52   751.17   760.82   764.40   764.86
eigval :      774.64   774.67   817.32   821.33   845.02   849.19
eigval :      865.74   865.98   866.72   868.04   873.45   877.45
eigval :      878.21   879.28   885.01   885.44   890.36   892.61
eigval :      894.57   900.05   900.42   904.92   905.15   906.18
eigval :      906.65   911.30   913.55   921.74   921.91   925.42
eigval :      926.62   930.15   930.17   932.69   932.70   935.34
eigval :      935.58   945.78   967.33   969.42   992.22   995.54
eigval :     1031.95  1033.77  1060.76  1060.79  1081.81  1081.82
eigval :     1101.61  1105.67  1114.16  1119.84  1119.87  1125.89
eigval :     1131.27  1131.35  1133.84  1133.91  1137.07  1137.16
eigval :     1174.85  1174.87  1181.41  1181.46  1181.48  1181.75
eigval :     1182.94  1188.75  1191.62  1191.66  1197.90  1198.06
eigval :     1208.70  1209.45  1232.52  1253.98  1257.07  1261.23
eigval :     1261.67  1268.40  1269.31  1279.01  1279.07  1293.32
eigval :     1293.75  1296.56  1297.54  1307.43  1309.74  1316.88
eigval :     1318.23  1321.44  1321.51  1334.59  1362.57  1362.65
eigval :     1365.21  1369.98  1377.59  1382.61  1384.85  1407.34
eigval :     1408.63  1409.15  1413.80  1413.96  1427.70  1431.79
eigval :     1431.82  1462.15  1462.32  1471.13  1478.80  1483.24
eigval :     1486.16  1488.70  1491.13  1519.21  1531.31  1534.06
eigval :     1534.57  1541.42  1541.66  1558.53  1576.79  1579.35
eigval :     1580.61  1580.63  1588.81  1588.82  1597.88  1597.89
eigval :     1615.85  1615.94  3073.32  3073.33  3074.91  3074.92
eigval :     3078.98  3079.50  3079.51  3079.78  3080.88  3080.90
eigval :     3081.72  3081.77  3083.42  3083.47  3086.22  3086.47
eigval :     3086.89  3087.61  3092.24  3092.27  3092.91  3093.02
eigval :     3093.09  3093.15  3094.13  3094.61  3095.32  3096.29
eigval :     3098.76  3100.00  3106.89  3106.90  3109.64  3109.69

   temp. (K)  partition function   enthalpy   heat capacity  entropy
                                   cal/mol     cal/K/mol   cal/K/mol   J/K/mol
 298.15  VIB  0.695E+21            25667.617    162.744    161.453
         ROT  0.779E+08              888.752      2.981     39.092
         INT  0.542E+29            26556.369    165.725    200.545
         TR   0.185E+29             1481.254      4.968     45.560
         TOT                       28037.6228   170.6935   246.1050  1029.7035

       T/K    H(0)-H(T)+PV         H(T)/Eh          T*S/Eh         G(T)/Eh
   ------------------------------------------------------------------------
    298.15    0.446808E-01    0.733041E+00    0.116932E+00    0.616109E+00
   ------------------------------------------------------------------------

         :::::::::::::::::::::::::::::::::::::::::::::::::::::
         ::                  THERMODYNAMIC                  ::
         :::::::::::::::::::::::::::::::::::::::::::::::::::::
         :: total free energy        -139.766182305964 Eh   ::
         ::.................................................::
         :: total energy             -140.382291113862 Eh   ::
         :: zero point energy           0.688360458256 Eh   ::
         :: G(RRHO) w/o ZPVE           -0.072251650359 Eh   ::
         :: G(RRHO) contrib.            0.616108807897 Eh   ::
         :::::::::::::::::::::::::::::::::::::::::::::::::::::

           -------------------------------------------------
          | TOTAL ENERGY             -140.382291113862 Eh   |
          | TOTAL ENTHALPY           -139.649249859600 Eh   |
          | TOTAL FREE ENERGY        -139.766182305964 Eh   |
          | GRADIENT NORM               0.000133329163 Eh/α |
           -------------------------------------------------

 * finished run on 2025/09/02 at 18:39:32.935
