   * xtb version 6.7.1 (edcfbbe) compiled by 'albert@albert-system' on 2024-07-22

   ID    Z sym.   atoms
    1   35 Br     1, 15, 19, 27
    2    6 C      2-14, 16-18, 20-26, 28, 29
    3    1 H      30-59

          program call               : xtb data2507/toluene/cyclohexanone/cyclohexanone_toluene_S0_crest.xyz --gfn 2 --gbsa toluene --ohess vtight --parallel 40 --molden --ceasefiles --namespace data2507/toluene/cyclohexanone/cyclohexanone_toluene_S0_finalOpt
      * Solvation model:               GBSA
        Solvent                        toluene
        Solvent mass                       9.2140E+01 g/mol
          :  Hamiltonian                  GFN2-xTB          :
 * total energy  :   -85.2726245 Eh     change       -0.2045596E-08 Eh
 * total energy  :   -85.2729086 Eh     change       -0.2840742E-03 Eh
 * total energy  :   -85.2730814 Eh     change       -0.1728138E-03 Eh
 * total energy  :   -85.2731696 Eh     change       -0.8822892E-04 Eh
 * total energy  :   -85.2732738 Eh     change       -0.1041524E-03 Eh
 * total energy  :   -85.2733666 Eh     change       -0.9280973E-04 Eh
 * total energy  :   -85.2734671 Eh     change       -0.1004896E-03 Eh
 * total energy  :   -85.2735966 Eh     change       -0.1295158E-03 Eh
 * total energy  :   -85.2736894 Eh     change       -0.9280172E-04 Eh
 * total energy  :   -85.2737428 Eh     change       -0.5343386E-04 Eh
 * total energy  :   -85.2741282 Eh     change       -0.2971980E-05 Eh
 * total energy  :   -85.2741308 Eh     change       -0.2668918E-05 Eh
 * total energy  :   -85.2741334 Eh     change       -0.2598758E-05 Eh
 * total energy  :   -85.2741349 Eh     change       -0.1441827E-05 Eh
 * total energy  :   -85.2741356 Eh     change       -0.7379428E-06 Eh
 * total energy  :   -85.2741362 Eh     change       -0.5820620E-06 Eh
 * total energy  :   -85.2741369 Eh     change       -0.6476059E-06 Eh
 * total energy  :   -85.2741374 Eh     change       -0.5838046E-06 Eh
 * total energy  :   -85.2741375 Eh     change       -0.9879345E-07 Eh
   *** GEOMETRY OPTIMIZATION CONVERGED AFTER 37 ITERATIONS ***

 final structure:
================
59
 xtb: 6.7.1 (edcfbbe)
Br           2.15472376044171        4.35649012745611        0.23924176717669
C            0.72800358738228        4.53705259932742       -1.09393644219098
C            1.19910537513678        4.18929264642629       -2.49398216786539
C            1.75211997806938        2.77133414876007       -2.64372197836069
C            0.74879142021907        1.68377663725482       -2.26573205795572
C            1.31721185896688        0.28997970635302       -2.52316677209990
C            0.39330339856522       -0.85292728685941       -2.09391040949716
C            0.33103805556510       -1.12632497509219       -0.57473696472814
C           -0.45257306913771       -2.43500560101140       -0.34732830020922
C           -0.58727800666906       -2.80463834549896        1.12921469210919
C           -1.45690816278696       -4.04373966906128        1.36185312644503
C           -2.87995264501547       -3.94563341710151        0.80717210158790
C           -3.68475138637609       -2.78595180641208        1.39214830044419
C           -5.01222685409786       -2.58757407990677        0.68532593364321
Br          -4.74604644763982       -1.96786956389854       -1.15847232801148
C            1.70663381857805       -1.17697762512497        0.04426168583010
C            2.75192136920245       -2.02382223470454       -0.25700003167415
C            3.93811557780097       -1.85967250762429        0.44438125443099
Br           5.41422703478031       -3.02202012752684        0.04405692625988
C            4.09801203576713       -0.88551603845262        1.41717545037075
C            3.04345909983046       -0.03961282231087        1.71944159652737
C            1.84897327475910       -0.19091568636901        1.03381819667125
C            0.59501294749121        0.53513710443328        1.13933323506496
C            0.21909229266989        1.58227567272349        1.96518553669535
C           -1.06586906983582        2.08969723620597        1.85672973161885
C           -1.94542072464680        1.54242345238453        0.93507845334521
Br          -3.72706513660781        2.26189149314768        0.81534155265769
C           -1.58872681261859        0.49560257222806        0.09597919585925
C           -0.30446189877239        0.00224529169235        0.20037920233929
H           -0.07201870223063        3.88261826666325       -0.75478409993777
H            0.40269591864753        5.57501880758944       -1.03402937023431
H            0.33883388939675        4.31711504267470       -3.15766703320153
H            1.96830080162231        4.90237612722829       -2.80255475881171
H            2.64454855024463        2.66367224503901       -2.02135090597343
H            2.06070845361965        2.63428924552721       -3.68282520225012
H           -0.17092976855353        1.81399884125853       -2.84224495489351
H            0.50205300323043        1.77538438204285       -1.20950396253610
H            2.27793818834642        0.19535933658899       -2.01218932170980
H            1.50618297939415        0.18636419005263       -3.59494199316389
H           -0.61850790289620       -0.65663361860148       -2.45355911282939
H            0.74219085729358       -1.76885892376135       -2.57484167079276
H           -1.43873801144337       -2.30229865486146       -0.79112087098567
H            0.04810299815842       -3.24760353512978       -0.87635715509738
H            0.40525650402867       -3.00254039520809        1.54167675664937
H           -0.99679711141028       -1.95865343107940        1.68399028712089
H           -1.50562842031860       -4.23111714517018        2.43746332475724
H           -0.97284081071725       -4.90716490527206        0.89936556371822
H           -3.39990094931556       -4.88329357708585        1.02192134888860
H           -2.83499960319245       -3.84412625215840       -0.27859329830696
H           -3.11084437445053       -1.86049525501434        1.32764169539634
H           -3.89345450964382       -2.97692557709077        2.44840956498136
H           -5.58050204460050       -3.51368228224979        0.60853740868265
H           -5.61607343376315       -1.81768701694508        1.16422030833989
H            2.66385715866323       -2.78812423580804       -1.01341587053573
H            5.04102106741664       -0.78868775879637        1.93303654108201
H            3.16169601098283        0.72515742103160        2.47096225521564
H            0.90904163891501        2.00634043988273        2.67735918162153
H           -1.38359137115007        2.90723811113863        2.48595069626240
H           -2.29518061861473        0.09560189227147       -0.61518351896678

          :  Hamiltonian                  GFN2-xTB          :
         :: gradient norm              0.000195291518 Eh/a0 ::
         :: HOMO-LUMO gap              3.113473005982 eV    ::
         :: SCC energy               -86.426193101247 Eh    ::
         :: -> dispersion             -0.078773446616 Eh    ::
         :: -> Gsolv                  -0.038443089916 Eh    ::
         :: repulsion energy           1.152055557847 Eh    ::

    * Orbital Energies and Occupations

         #    Occupation            Energy/Eh            Energy/eV
      -------------------------------------------------------------
         1        2.0000           -0.8403954             -22.8683
       ...           ...                  ...                  ...
        67        2.0000           -0.4289074             -11.6712
        68        2.0000           -0.4252024             -11.5703
        69        2.0000           -0.4234404             -11.5224
        70        2.0000           -0.4170381             -11.3482
        71        2.0000           -0.4121749             -11.2159
        72        2.0000           -0.4102351             -11.1631
        73        2.0000           -0.4091932             -11.1347
        74        2.0000           -0.4083073             -11.1106
        75        2.0000           -0.4073632             -11.0849
        76        2.0000           -0.4068888             -11.0720
        77        2.0000           -0.4061050             -11.0507
        78        2.0000           -0.4054104             -11.0318
        79        2.0000           -0.3862961             -10.5117 (HOMO)
        80                         -0.2718779              -7.3982 (LUMO)
        81                         -0.2432598              -6.6194
        82                         -0.2386486              -6.4940
        83                         -0.2175153              -5.9189
        84                         -0.2151408              -5.8543
        85                         -0.2142496              -5.8300
        86                         -0.2085061              -5.6737
        87                         -0.2050844              -5.5806
        88                         -0.1354814              -3.6866
        89                         -0.0802228              -2.1830
        90                          0.0205326               0.5587
       ...                                ...                  ...
       166                          0.7118622              19.3708
      -------------------------------------------------------------
                  HL-Gap            0.1144182 Eh            3.1135 eV

     #   Z          covCN         q      C6AA      α(0)
     1  35 Br       0.967    -0.221   191.170    22.293
     2   6 C        3.740     0.030    20.143     6.404
     3   6 C        3.851    -0.052    21.462     6.589
     4   6 C        3.802    -0.055    21.568     6.612
     5   6 C        3.801    -0.058    21.608     6.618
     6   6 C        3.801    -0.057    21.596     6.616
     7   6 C        3.806    -0.060    21.641     6.623
     8   6 C        3.935     0.015    20.256     6.396
     9   6 C        3.809    -0.061    21.665     6.626
    10   6 C        3.800    -0.053    21.532     6.607
    11   6 C        3.801    -0.058    21.621     6.620
    12   6 C        3.801    -0.058    21.617     6.620
    13   6 C        3.860    -0.052    21.471     6.590
    14   6 C        3.740     0.030    20.144     6.404
    15  35 Br       0.975    -0.221   191.163    22.293
    16   6 C        3.061     0.010    27.738     8.637
    17   6 C        2.982    -0.037    28.919     8.821
    18   6 C        2.920     0.080    26.207     8.395
    19  35 Br       1.057    -0.203   190.677    22.264
    20   6 C        2.987    -0.036    28.896     8.818
    21   6 C        2.917    -0.030    28.741     8.791
    22   6 C        3.036     0.005    27.879     8.661
    23   6 C        3.035     0.005    27.869     8.659
    24   6 C        2.916    -0.029    28.726     8.789
    25   6 C        2.986    -0.038    28.927     8.823
    26   6 C        2.919     0.078    26.260     8.403
    27  35 Br       1.052    -0.207   190.816    22.273
    28   6 C        2.978    -0.039    28.958     8.827
    29   6 C        3.061     0.012    27.690     8.629
    30   1 H        0.926     0.059     2.215     2.328
    31   1 H        0.926     0.057     2.230     2.335
    32   1 H        0.924     0.048     2.344     2.394
    33   1 H        0.924     0.045     2.378     2.412
    34   1 H        0.924     0.041     2.435     2.440
    35   1 H        0.924     0.036     2.500     2.473
    36   1 H        0.924     0.030     2.581     2.512
    37   1 H        0.925     0.033     2.550     2.497
    38   1 H        0.924     0.032     2.565     2.504
    39   1 H        0.924     0.036     2.506     2.476
    40   1 H        0.924     0.049     2.331     2.387
    41   1 H        0.924     0.046     2.369     2.407
    42   1 H        0.925     0.057     2.235     2.338
    43   1 H        0.924     0.043     2.404     2.425
    44   1 H        0.924     0.028     2.613     2.528
    45   1 H        0.924     0.029     2.600     2.522
    46   1 H        0.924     0.032     2.554     2.499
    47   1 H        0.924     0.037     2.493     2.469
    48   1 H        0.924     0.032     2.558     2.501
    49   1 H        0.924     0.050     2.320     2.382
    50   1 H        0.924     0.054     2.268     2.355
    51   1 H        0.924     0.044     2.393     2.419
    52   1 H        0.926     0.056     2.243     2.342
    53   1 H        0.926     0.056     2.243     2.342
    54   1 H        0.926     0.056     2.241     2.341
    55   1 H        0.926     0.052     2.295     2.369
    56   1 H        0.926     0.053     2.283     2.363
    57   1 H        0.926     0.053     2.277     2.360
    58   1 H        0.926     0.049     2.330     2.387
    59   1 H        0.926     0.063     2.166     2.302

molecular dipole:
                 x           y           z       tot (Debye)
 q only:       -0.504      -0.498       0.005
   full:       -1.268      -0.387       0.366       3.496

 projected vibrational frequencies (cm⁻¹)
eigval :       -0.00    -0.00    -0.00    -0.00     0.00     0.00
eigval :        8.22    13.31    19.32    20.91    24.63    28.04
eigval :       31.74    36.91    42.68    63.71    75.49    86.58
eigval :       94.11   100.62   102.61   127.87   157.14   163.46
eigval :      178.10   184.16   203.27   219.02   222.95   223.89
eigval :      236.66   247.70   250.50   261.24   274.54   284.59
eigval :      295.15   321.34   346.09   352.40   370.38   402.41
eigval :      435.66   461.00   469.93   481.40   497.81   507.18
eigval :      526.69   547.30   550.51   559.36   565.87   568.77
eigval :      614.95   632.64   700.96   719.13   731.77   749.35
eigval :      762.68   774.24   796.00   802.90   816.32   831.14
eigval :      832.46   840.91   867.00   872.93   875.62   888.17
eigval :      907.04   913.89   915.78   942.70   946.73   960.28
eigval :      985.21  1002.12  1003.91  1018.91  1051.99  1065.80
eigval :     1075.02  1079.03  1080.17  1086.33  1087.19  1093.16
eigval :     1105.68  1113.57  1129.10  1137.20  1139.91  1147.31
eigval :     1150.53  1155.18  1156.92  1161.46  1184.77  1194.72
eigval :     1216.73  1219.66  1226.67  1231.97  1244.09  1251.74
eigval :     1261.20  1263.35  1273.81  1279.33  1280.09  1289.29
eigval :     1290.99  1299.05  1301.50  1315.51  1327.79  1341.34
eigval :     1345.70  1355.59  1357.31  1357.41  1369.81  1374.46
eigval :     1379.20  1408.13  1408.44  1431.99  1436.74  1437.72
eigval :     1451.00  1466.68  1467.56  1471.61  1481.29  1483.64
eigval :     1486.70  1491.19  1493.47  1495.74  1506.46  1567.56
eigval :     1571.94  1589.52  1592.56  2954.68  2955.64  2956.18
eigval :     2959.77  2961.52  2961.77  2965.26  2968.17  2971.57
eigval :     2972.33  2978.46  2979.22  2982.02  2985.30  2987.84
eigval :     2988.96  2991.78  2992.93  2996.95  2997.00  3004.40
eigval :     3008.51  3012.10  3028.42  3092.41  3093.51  3096.95
eigval :     3098.21  3103.34  3105.98

   temp. (K)  partition function   enthalpy   heat capacity  entropy
                                   cal/mol     cal/K/mol   cal/K/mol   J/K/mol
 298.15  VIB  0.104E+17            17749.175     99.378    115.159
         ROT  0.575E+08              888.752      2.981     38.486
         INT  0.598E+24            18637.928    102.359    153.645
         TR   0.160E+29             1481.254      4.968     45.277
         TOT                       20119.1816   107.3271   198.9229   832.2932

       T/K    H(0)-H(T)+PV         H(T)/Eh          T*S/Eh         G(T)/Eh
   ------------------------------------------------------------------------
    298.15    0.320620E-01    0.512046E+00    0.945147E-01    0.417531E+00
   ------------------------------------------------------------------------

         :::::::::::::::::::::::::::::::::::::::::::::::::::::
         ::                  THERMODYNAMIC                  ::
         :::::::::::::::::::::::::::::::::::::::::::::::::::::
         :: total free energy         -84.856606226284 Eh   ::
         ::.................................................::
         :: total energy              -85.274137551383 Eh   ::
         :: zero point energy           0.479984036328 Eh   ::
         :: G(RRHO) w/o ZPVE           -0.062452711229 Eh   ::
         :: G(RRHO) contrib.            0.417531325099 Eh   ::
         :::::::::::::::::::::::::::::::::::::::::::::::::::::

           -------------------------------------------------
          | TOTAL ENERGY              -85.274137551383 Eh   |
          | TOTAL ENTHALPY            -84.762091558311 Eh   |
          | TOTAL FREE ENERGY         -84.856606226284 Eh   |
          | GRADIENT NORM               0.000194772636 Eh/α |
          | HOMO-LUMO GAP               3.113477377285 eV   |
           -------------------------------------------------

 * finished run on 2025/09/08 at 21:30:19.043
