   * xtb version 6.7.1 (edcfbbe) compiled by 'albert@albert-system' on 2024-07-22

   ID    Z sym.   atoms
    1   35 Br     1, 15, 19, 27
    2    6 C      2-14, 16-18, 20-26, 28, 29
    3    1 H      30-59

          program call               : xtb data2507/toluene/cyclohexanone/cyclohexanone.xyz --gfn 2 --gbsa toluene --ohess vtight --parallel 40 --molden --ceasefiles --namespace data2507/toluene/cyclohexanone/cyclohexanone_toluene_S0_preOpt
      * Solvation model:               GBSA
        Solvent                        toluene
        Solvent mass                       9.2140E+01 g/mol
          :  Hamiltonian                  GFN2-xTB          :
 * total energy  :   -85.2614732 Eh     change       -0.2671086E-08 Eh
 * total energy  :   -85.2659554 Eh     change       -0.4482106E-02 Eh
 * total energy  :   -85.2669077 Eh     change       -0.9523605E-03 Eh
 * total energy  :   -85.2672112 Eh     change       -0.3034724E-03 Eh
 * total energy  :   -85.2673767 Eh     change       -0.1655541E-03 Eh
 * total energy  :   -85.2674359 Eh     change       -0.5913148E-04 Eh
 * total energy  :   -85.2674853 Eh     change       -0.4942324E-04 Eh
 * total energy  :   -85.2675288 Eh     change       -0.4346998E-04 Eh
 * total energy  :   -85.2675571 Eh     change       -0.2831019E-04 Eh
 * total energy  :   -85.2676068 Eh     change       -0.4973079E-04 Eh
 * total energy  :   -85.2677647 Eh     change       -0.9130539E-06 Eh
 * total energy  :   -85.2677655 Eh     change       -0.7891596E-06 Eh
 * total energy  :   -85.2677672 Eh     change       -0.1639201E-05 Eh
 * total energy  :   -85.2677681 Eh     change       -0.9462950E-06 Eh
 * total energy  :   -85.2677684 Eh     change       -0.3198765E-06 Eh
 * total energy  :   -85.2677689 Eh     change       -0.4695166E-06 Eh
 * total energy  :   -85.2677694 Eh     change       -0.4720393E-06 Eh
 * total energy  :   -85.2677697 Eh     change       -0.2874856E-06 Eh
 * total energy  :   -85.2677697 Eh     change       -0.2667984E-07 Eh
   *** GEOMETRY OPTIMIZATION CONVERGED AFTER 72 ITERATIONS ***

 final structure:
================
59
 xtb: 6.7.1 (edcfbbe)
Br          -6.55240926152284       -0.31855216557350        2.26588523170832
C           -6.85440227455557       -1.13645722837696        0.49661931282565
C           -5.85828288798639       -2.23545809784943        0.16107354460445
C           -4.55983612514284       -1.74305314870526       -0.48132644389894
C           -3.69322660144811       -0.88190256867540        0.43589598759663
C           -2.33424400442193       -0.58335007861121       -0.19726284886055
C           -1.50501174287837        0.32035220410439        0.71060441349871
C           -0.06425002486347        0.63261123070635        0.23616846314719
C            0.80748307162667       -0.63123860134250        0.20174835657706
C            2.27111776534207       -0.32921836415379       -0.11674455362391
C            3.10146436860946       -1.60801204564482       -0.20991051057599
C            4.56920123560267       -1.29856672873245       -0.49993351126117
C            5.42200250351110       -2.54202473488224       -0.75437264330575
C            5.56151623804956       -3.46310030821592        0.44323455359162
Br           6.47090294276454       -2.58379404940985        1.95542278518772
C           -0.05565046703652        1.37299425202154       -1.08149007046022
C           -0.35060778318623        0.90121378916643       -2.34366841185492
C           -0.28281366996717        1.79413306192396       -3.40433552705815
Br          -0.69588230215356        1.15791108927587       -5.16933738967383
C            0.07408166220863        3.12216202531915       -3.23746395456486
C            0.39978538789649        3.58553406455876       -1.97345728076612
C            0.34056307107202        2.70908905029094       -0.90157685083041
C            0.67358502326665        2.90575307424748        0.49860484076064
C            1.13157611219485        4.02628351715953        1.17366764080689
C            1.40127588408853        3.92694325984422        2.52842123896293
C            1.20790099581708        2.71811403771506        3.17840216648002
Br           1.58878082417581        2.60466048145550        5.05671720667781
C            0.74579574796178        1.58649582478789        2.52112734241313
C            0.48304159867604        1.68936764705981        1.17171483539579
H           -7.86953344032806       -1.52668574393620        0.55049248736975
H           -6.81293590376244       -0.31772444283685       -0.21989478613073
H           -5.63005451172423       -2.81563547517944        1.05796599155808
H           -6.35263362824876       -2.90752081220909       -0.54637553094957
H           -4.79890418518746       -1.18050218473459       -1.38762638418361
H           -3.98512049071253       -2.62212420745050       -0.78349719617242
H           -3.54499664816485       -1.39858004611450        1.38716254040013
H           -4.19465139161664        0.06361165143779        0.64740878106395
H           -2.49513394283806       -0.09320075622064       -1.15849450825909
H           -1.81175609434899       -1.52459647696445       -0.37362410094422
H           -2.03278320935188        1.27045386515588        0.83165654280052
H           -1.43439616149655       -0.14119909868343        1.69780524658796
H            0.74293183705840       -1.13064223536249        1.17025997639621
H            0.41580407649435       -1.31258429011709       -0.55433393875269
H            2.33359718348858        0.21230269363641       -1.06376523771456
H            2.69023177553990        0.31603183661291        0.65872304600957
H            2.70115966062787       -2.24290922601999       -1.00457640453247
H            3.01211095658071       -2.15152661938359        0.73267314860163
H            4.99201538402687       -0.73290746948297        0.33394407407672
H            4.62581442242054       -0.66210164621003       -1.38631062467466
H            6.41672611957895       -2.22801303984054       -1.08068804736970
H            4.97587094300510       -3.13006415138506       -1.56155822341591
H            4.59778951011589       -3.78801186109111        0.82859230182628
H            6.17445970229127       -4.33120544891032        0.20493467498769
H           -0.61357093406280       -0.12934060226823       -2.52060161332045
H            0.10928241540712        3.78364111012764       -4.08964408043019
H            0.69928292384543        4.61288083964161       -1.83618035959920
H            1.27915160015366        4.96445902781304        0.66174990935846
H            1.75991642174504        4.78270595270279        3.07958802634303
H            0.60686632175746        0.66209736784119        3.05978836556537

          :  Hamiltonian                  GFN2-xTB          :
         :: gradient norm              0.000197477131 Eh/a0 ::
         :: HOMO-LUMO gap              3.115586364680 eV    ::
         :: SCC energy               -86.419829818747 Eh    ::
         :: -> dispersion             -0.068744064336 Eh    ::
         :: -> Gsolv                  -0.043685272494 Eh    ::
         :: repulsion energy           1.152060132260 Eh    ::

    * Orbital Energies and Occupations

         #    Occupation            Energy/Eh            Energy/eV
      -------------------------------------------------------------
         1        2.0000           -0.8415965             -22.9010
       ...           ...                  ...                  ...
        67        2.0000           -0.4307842             -11.7222
        68        2.0000           -0.4279926             -11.6463
        69        2.0000           -0.4244706             -11.5504
        70        2.0000           -0.4204208             -11.4402
        71        2.0000           -0.4138636             -11.2618
        72        2.0000           -0.4132105             -11.2440
        73        2.0000           -0.4106953             -11.1756
        74        2.0000           -0.4083793             -11.1126
        75        2.0000           -0.4055865             -11.0366
        76        2.0000           -0.4048739             -11.0172
        77        2.0000           -0.4030441             -10.9674
        78        2.0000           -0.4028702             -10.9627
        79        2.0000           -0.3882960             -10.5661 (HOMO)
        80                         -0.2738003              -7.4505 (LUMO)
        81                         -0.2449668              -6.6659
        82                         -0.2409348              -6.5562
        83                         -0.2169527              -5.9036
        84                         -0.2160205              -5.8782
        85                         -0.2142416              -5.8298
        86                         -0.2096919              -5.7060
        87                         -0.2057067              -5.5976
        88                         -0.1371200              -3.7312
        89                         -0.0829824              -2.2581
        90                          0.0212719               0.5788
       ...                                ...                  ...
       166                          0.7092505              19.2997
      -------------------------------------------------------------
                  HL-Gap            0.1144957 Eh            3.1156 eV

     #   Z          covCN         q      C6AA      α(0)
     1  35 Br       0.954    -0.230   191.424    22.308
     2   6 C        3.738     0.027    20.197     6.413
     3   6 C        3.838    -0.055    21.536     6.602
     4   6 C        3.802    -0.057    21.601     6.617
     5   6 C        3.803    -0.058    21.609     6.618
     6   6 C        3.802    -0.058    21.625     6.621
     7   6 C        3.811    -0.054    21.532     6.605
     8   6 C        3.934     0.015    20.262     6.397
     9   6 C        3.806    -0.058    21.606     6.617
    10   6 C        3.803    -0.054    21.544     6.608
    11   6 C        3.802    -0.057    21.604     6.617
    12   6 C        3.802    -0.057    21.595     6.616
    13   6 C        3.848    -0.054    21.500     6.595
    14   6 C        3.739     0.027    20.194     6.412
    15  35 Br       0.963    -0.232   191.482    22.311
    16   6 C        3.057     0.008    27.775     8.643
    17   6 C        2.983    -0.038    28.927     8.822
    18   6 C        2.919     0.080    26.224     8.398
    19  35 Br       1.057    -0.202   190.652    22.263
    20   6 C        2.987    -0.037    28.905     8.819
    21   6 C        2.917    -0.031    28.782     8.797
    22   6 C        3.037     0.003    27.920     8.667
    23   6 C        3.034     0.002    27.943     8.670
    24   6 C        2.917    -0.031    28.771     8.796
    25   6 C        2.988    -0.037    28.902     8.819
    26   6 C        2.920     0.082    26.181     8.391
    27  35 Br       1.058    -0.199   190.564    22.258
    28   6 C        2.982    -0.037    28.913     8.820
    29   6 C        3.065     0.006    27.811     8.648
    30   1 H        0.926     0.061     2.182     2.310
    31   1 H        0.926     0.066     2.126     2.280
    32   1 H        0.924     0.054     2.270     2.356
    33   1 H        0.924     0.049     2.335     2.390
    34   1 H        0.924     0.035     2.522     2.484
    35   1 H        0.924     0.040     2.453     2.449
    36   1 H        0.924     0.037     2.489     2.467
    37   1 H        0.924     0.038     2.473     2.459
    38   1 H        0.924     0.036     2.508     2.477
    39   1 H        0.924     0.038     2.475     2.460
    40   1 H        0.924     0.035     2.521     2.483
    41   1 H        0.924     0.046     2.370     2.407
    42   1 H        0.924     0.044     2.391     2.418
    43   1 H        0.924     0.046     2.365     2.405
    44   1 H        0.924     0.028     2.622     2.532
    45   1 H        0.924     0.030     2.590     2.517
    46   1 H        0.924     0.034     2.536     2.490
    47   1 H        0.924     0.035     2.517     2.481
    48   1 H        0.924     0.044     2.400     2.422
    49   1 H        0.924     0.036     2.502     2.473
    50   1 H        0.924     0.048     2.347     2.396
    51   1 H        0.924     0.051     2.305     2.374
    52   1 H        0.926     0.068     2.109     2.271
    53   1 H        0.926     0.062     2.180     2.309
    54   1 H        0.926     0.060     2.196     2.317
    55   1 H        0.926     0.052     2.296     2.370
    56   1 H        0.926     0.050     2.314     2.379
    57   1 H        0.926     0.051     2.303     2.373
    58   1 H        0.926     0.054     2.273     2.358
    59   1 H        0.926     0.057     2.237     2.339

molecular dipole:
                 x           y           z       tot (Debye)
 q only:       -0.659      -0.909      -1.719
   full:       -0.984      -1.115      -2.616       7.649

 projected vibrational frequencies (cm⁻¹)
eigval :       -0.00    -0.00    -0.00     0.00     0.00     0.00
eigval :       -1.13     9.82    15.12    18.84    21.58    26.66
eigval :       30.20    35.79    49.50    68.46    79.75    81.21
eigval :       85.55    91.84   104.39   115.74   123.56   140.95
eigval :      155.98   163.16   167.23   181.74   189.86   206.71
eigval :      223.13   237.59   255.18   261.80   267.97   293.01
eigval :      308.49   317.74   351.96   355.05   371.98   386.09
eigval :      400.89   437.16   467.63   483.88   493.39   504.12
eigval :      526.62   535.78   550.87   551.28   576.45   595.68
eigval :      623.83   639.11   702.79   722.54   736.55   764.60
eigval :      775.47   777.40   784.39   796.42   815.04   823.21
eigval :      831.54   842.46   871.57   877.19   885.71   891.11
eigval :      905.03   907.58   914.67   917.89   942.92   966.41
eigval :      982.92   994.56  1008.85  1046.53  1058.49  1074.12
eigval :     1079.40  1081.12  1084.89  1088.98  1095.57  1097.14
eigval :     1101.76  1109.95  1121.40  1125.33  1132.03  1135.19
eigval :     1152.52  1157.00  1158.90  1196.12  1197.97  1209.33
eigval :     1218.91  1220.91  1226.96  1235.66  1249.06  1252.87
eigval :     1257.86  1263.47  1271.33  1275.47  1282.17  1286.14
eigval :     1288.24  1294.10  1303.01  1319.48  1323.81  1330.19
eigval :     1346.70  1347.93  1357.07  1361.28  1364.20  1376.37
eigval :     1377.43  1408.13  1409.21  1427.04  1428.40  1437.64
eigval :     1451.77  1467.31  1467.74  1476.68  1482.93  1489.04
eigval :     1489.58  1490.40  1495.94  1497.31  1498.52  1568.78
eigval :     1572.52  1590.82  1592.51  2955.10  2956.37  2957.70
eigval :     2957.92  2958.03  2963.09  2969.68  2970.09  2975.21
eigval :     2976.70  2976.81  2978.59  2979.33  2981.49  2982.98
eigval :     2984.69  2986.53  2992.88  2994.21  2996.54  2997.32
eigval :     2999.32  3001.79  3013.90  3090.47  3092.35  3099.09
eigval :     3101.12  3103.31  3107.05

   temp. (K)  partition function   enthalpy   heat capacity  entropy
                                   cal/mol     cal/K/mol   cal/K/mol   J/K/mol
 298.15  VIB  0.434E+18            18059.322     99.690    120.833
         ROT  0.991E+08              888.752      2.981     39.569
         INT  0.430E+26            18948.074    102.671    160.403
         TR   0.160E+29             1481.254      4.968     45.277
         TOT                       20429.3278   107.6389   205.6800   860.5651

       T/K    H(0)-H(T)+PV         H(T)/Eh          T*S/Eh         G(T)/Eh
   ------------------------------------------------------------------------
    298.15    0.325562E-01    0.511875E+00    0.977252E-01    0.414150E+00
   ------------------------------------------------------------------------

         :::::::::::::::::::::::::::::::::::::::::::::::::::::
         ::                  THERMODYNAMIC                  ::
         :::::::::::::::::::::::::::::::::::::::::::::::::::::
         :: total free energy         -84.853620120575 Eh   ::
         ::.................................................::
         :: total energy              -85.267769680185 Eh   ::
         :: zero point energy           0.479318555917 Eh   ::
         :: G(RRHO) w/o ZPVE           -0.065168996307 Eh   ::
         :: G(RRHO) contrib.            0.414149559611 Eh   ::
         :::::::::::::::::::::::::::::::::::::::::::::::::::::

           -------------------------------------------------
          | TOTAL ENERGY              -85.267769680185 Eh   |
          | TOTAL ENTHALPY            -84.755894918070 Eh   |
          | TOTAL FREE ENERGY         -84.853620120575 Eh   |
          | GRADIENT NORM               0.000197729612 Eh/α |
          | HOMO-LUMO GAP               3.115586523143 eV   |
           -------------------------------------------------

 * finished run on 2025/09/08 at 21:12:02.046
