   * xtb version 6.7.1 (edcfbbe) compiled by 'albert@albert-system' on 2024-07-22

   ID    Z sym.   atoms
    1   35 Br     1, 15, 19, 27
    2    6 C      2-14, 16-18, 20-26, 28, 29
    3    1 H      30-59

          program call               : xtb data2507/toluene/cyclohexanone/cyclohexanone_toluene_T1_crest.xyz --gfn 2 --uhf 2 --gbsa toluene --ohess vtight --parallel 40 --molden --ceasefiles --namespace data2507/toluene/cyclohexanone/cyclohexanone_toluene_T1_finalOpt
      * Solvation model:               GBSA
        Solvent                        toluene
        Solvent mass                       9.2140E+01 g/mol
          :  Hamiltonian                  GFN2-xTB          :
 * total energy  :   -85.1686274 Eh     change       -0.6567547E-09 Eh
 * total energy  :   -85.1688963 Eh     change       -0.2688671E-03 Eh
 * total energy  :   -85.1690652 Eh     change       -0.1688866E-03 Eh
 * total energy  :   -85.1691546 Eh     change       -0.8936905E-04 Eh
 * total energy  :   -85.1692547 Eh     change       -0.1001894E-03 Eh
 * total energy  :   -85.1693352 Eh     change       -0.8047552E-04 Eh
 * total energy  :   -85.1694305 Eh     change       -0.9531736E-04 Eh
 * total energy  :   -85.1695242 Eh     change       -0.9363341E-04 Eh
 * total energy  :   -85.1696316 Eh     change       -0.1074118E-03 Eh
 * total energy  :   -85.1697182 Eh     change       -0.8662606E-04 Eh
 * total energy  :   -85.1701697 Eh     change       -0.4970837E-06 Eh
 * total energy  :   -85.1701700 Eh     change       -0.3193019E-06 Eh
 * total energy  :   -85.1701703 Eh     change       -0.3155377E-06 Eh
 * total energy  :   -85.1701706 Eh     change       -0.2557972E-06 Eh
 * total energy  :   -85.1701708 Eh     change       -0.1779832E-06 Eh
 * total energy  :   -85.1701709 Eh     change       -0.1771790E-06 Eh
 * total energy  :   -85.1701711 Eh     change       -0.1678489E-06 Eh
 * total energy  :   -85.1701712 Eh     change       -0.1053901E-06 Eh
 * total energy  :   -85.1701713 Eh     change       -0.3862499E-07 Eh
   *** GEOMETRY OPTIMIZATION CONVERGED AFTER 42 ITERATIONS ***

 final structure:
================
59
 xtb: 6.7.1 (edcfbbe)
Br           2.33344317036327        4.35844097647877        0.22319325597014
C            0.82745288323140        4.50308337124948       -1.02462267700058
C            1.23018038550798        4.17327312316473       -2.45002821360619
C            1.77764347627735        2.75818257651346       -2.64100343639059
C            0.78012918956197        1.66808902253143       -2.25655878580875
C            1.32102782093493        0.27441082008584       -2.56168801483455
C            0.37634957442440       -0.85863454481022       -2.15454104224226
C            0.30731712506326       -1.13839810162424       -0.63536652197734
C           -0.49603582100129       -2.43538491246348       -0.40996195813776
C           -0.62035486759773       -2.79811173721011        1.06889240079083
C           -1.50292679164004       -4.02369293311910        1.31929122495922
C           -2.93568475390642       -3.90191626836753        0.79556854662330
C           -3.71076180317768       -2.73750905967621        1.40978673929415
C           -5.06459966591974       -2.53430636372809        0.75673609715685
Br          -4.87257750791134       -1.91548310762239       -1.09719600588296
C            1.68575600330085       -1.21115427454661       -0.02026761072163
C            2.69590145437898       -2.07751283669196       -0.28705021081843
C            3.90975211930631       -1.92935839309350        0.41993222260081
Br           5.33919175704817       -3.12523934631362        0.05652789990789
C            4.09623650035740       -0.90950130967208        1.38017347839784
C            3.09037739290858       -0.03809192541868        1.66416845246813
C            1.84129777218729       -0.16611973437007        0.97579862914672
C            0.66324631986589        0.55017881026183        1.07229814394929
C            0.28561964331623        1.65918076821222        1.89707090186747
C           -0.97833568373214        2.15297694454562        1.80536366266009
C           -1.91285953273851        1.57889936538686        0.90882503363870
Br          -3.67303796857660        2.29849346295066        0.83317371635396
C           -1.57331964720103        0.49650879226228        0.06915545702541
C           -0.30877493728195        0.00268580029264        0.13654156852414
H            0.06632307140398        3.82545757658959       -0.64362222479683
H            0.47864972646159        5.53169863591321       -0.94117768108937
H            0.33874509305320        4.30511750783623       -3.07030745178296
H            1.98134222102418        4.89266978922554       -2.78695761146047
H            2.68674213021495        2.63722709498176       -2.04603008127304
H            2.05646575675666        2.63960628186730       -3.69076669706090
H           -0.15911307018084        1.82016372604997       -2.79513149820172
H            0.57050738073526        1.73410655860334       -1.18933178669629
H            2.28216172580331        0.14456555345021       -2.05834586827012
H            1.50242977048773        0.19726946641969       -3.63702674808826
H           -0.63086104808410       -0.64170871472594       -2.51537631872137
H            0.71325977884086       -1.77557327640164       -2.64211020236550
H           -1.48409414643516       -2.28660140245604       -0.84452896741005
H           -0.01284592421563       -3.25567079468205       -0.94341038293786
H            0.37512632442269       -3.00538960145488        1.47006464385108
H           -1.01060891472252       -1.94174334611902        1.62227125677150
H           -1.53184260552525       -4.21245987990864        2.39546141519114
H           -1.04171856307603       -4.89335586109933        0.84510245080901
H           -3.46377808095909       -4.83447725383924        1.01290891311440
H           -2.91297956548349       -3.78953285639892       -0.28982973992641
H           -3.13430134276606       -1.81563749576434        1.32066430507992
H           -3.87793030808339       -2.92618777412191        2.47385859235368
H           -5.63857722005335       -3.45850887381674        0.70296454514541
H           -5.64611665323591       -1.76251320325549        1.25946089031543
H            2.59954751167033       -2.86325859880097       -1.02050986469578
H            5.04924811627473       -0.83614455957658        1.88226601877639
H            3.22361394425909        0.74665532652756        2.39122868123804
H            1.00479784845267        2.09351465235542        2.57235618952371
H           -1.28985551291554        2.98905321931120        2.41393716782327
H           -2.30980373400459        0.09685316707330       -0.61136244595991

          :  Hamiltonian                  GFN2-xTB          :
         :: gradient norm              0.000095982770 Eh/a0 ::
         :: HOMO-LUMO gap              1.321187404179 eV    ::
         :: SCC energy               -86.303118364462 Eh    ::
         :: -> dispersion             -0.078970957162 Eh    ::
         :: -> Gsolv                  -0.037445594020 Eh    ::
         :: repulsion energy           1.132947104227 Eh    ::

    * Orbital Energies and Occupations

         #    Occupation            Energy/Eh            Energy/eV
      -------------------------------------------------------------
         1        2.0000           -0.8451669             -22.9982
       ...           ...                  ...                  ...
        68        2.0000           -0.4246471             -11.5552
        69        2.0000           -0.4233250             -11.5193
        70        2.0000           -0.4174197             -11.3586
        71        2.0000           -0.4151492             -11.2968
        72        2.0000           -0.4135354             -11.2529
        73        2.0000           -0.4116948             -11.2028
        74        2.0000           -0.4085662             -11.1177
        75        2.0000           -0.4074970             -11.0886
        76        2.0000           -0.4062282             -11.0540
        77        2.0000           -0.4057904             -11.0421
        78        2.0000           -0.4045589             -11.0086
        79        1.0000           -0.3753588             -10.2140
        80        1.0000           -0.2825345              -7.6882 (HOMO)
        81                         -0.2339817              -6.3670 (LUMO)
        82                         -0.2296239              -6.2484
        83                         -0.2172489              -5.9116
        84                         -0.2143244              -5.8321
        85                         -0.2131653              -5.8005
        86                         -0.2052133              -5.5841
        87                         -0.2026108              -5.5133
        88                         -0.1396195              -3.7992
        89                         -0.0810498              -2.2055
        90                          0.0212423               0.5780
        91                          0.0254042               0.6913
       ...                                ...                  ...
       166                          0.7239244              19.6990
      -------------------------------------------------------------
                  HL-Gap            0.0485528 Eh            1.3212 eV

     #   Z          covCN         q      C6AA      α(0)
     1  35 Br       0.968    -0.221   191.162    22.293
     2   6 C        3.740     0.030    20.147     6.404
     3   6 C        3.852    -0.052    21.466     6.590
     4   6 C        3.802    -0.056    21.574     6.613
     5   6 C        3.802    -0.057    21.606     6.618
     6   6 C        3.801    -0.057    21.594     6.616
     7   6 C        3.806    -0.061    21.677     6.628
     8   6 C        3.926     0.014    20.273     6.399
     9   6 C        3.808    -0.063    21.698     6.631
    10   6 C        3.801    -0.053    21.526     6.606
    11   6 C        3.801    -0.058    21.617     6.620
    12   6 C        3.802    -0.058    21.610     6.618
    13   6 C        3.859    -0.052    21.471     6.590
    14   6 C        3.740     0.030    20.147     6.404
    15  35 Br       0.974    -0.222   191.188    22.294
    16   6 C        3.051     0.009    27.771     8.643
    17   6 C        2.970    -0.041    29.003     8.834
    18   6 C        2.915     0.066    26.512     8.443
    19  35 Br       1.053    -0.156   189.353    22.187
    20   6 C        2.975    -0.034    28.837     8.809
    21   6 C        2.907    -0.036    28.884     8.813
    22   6 C        3.022     0.002    27.963     8.674
    23   6 C        3.023     0.001    27.987     8.678
    24   6 C        2.906    -0.036    28.888     8.813
    25   6 C        2.973    -0.035    28.876     8.814
    26   6 C        2.914     0.062    26.612     8.459
    27  35 Br       1.048    -0.166   189.636    22.204
    28   6 C        2.966    -0.043    29.070     8.844
    29   6 C        3.050     0.011    27.721     8.635
    30   1 H        0.926     0.059     2.208     2.324
    31   1 H        0.926     0.058     2.224     2.332
    32   1 H        0.924     0.048     2.340     2.392
    33   1 H        0.924     0.046     2.366     2.405
    34   1 H        0.924     0.042     2.423     2.434
    35   1 H        0.924     0.037     2.483     2.464
    36   1 H        0.924     0.032     2.558     2.501
    37   1 H        0.925     0.038     2.482     2.464
    38   1 H        0.924     0.033     2.546     2.495
    39   1 H        0.924     0.037     2.487     2.466
    40   1 H        0.924     0.047     2.360     2.403
    41   1 H        0.924     0.044     2.390     2.418
    42   1 H        0.925     0.054     2.273     2.358
    43   1 H        0.924     0.041     2.435     2.440
    44   1 H        0.924     0.028     2.614     2.528
    45   1 H        0.924     0.029     2.596     2.520
    46   1 H        0.924     0.032     2.557     2.501
    47   1 H        0.924     0.037     2.494     2.470
    48   1 H        0.924     0.032     2.559     2.502
    49   1 H        0.924     0.049     2.327     2.385
    50   1 H        0.924     0.054     2.268     2.355
    51   1 H        0.924     0.044     2.391     2.418
    52   1 H        0.926     0.057     2.236     2.338
    53   1 H        0.926     0.057     2.238     2.339
    54   1 H        0.926     0.051     2.310     2.377
    55   1 H        0.926     0.048     2.348     2.396
    56   1 H        0.926     0.048     2.340     2.392
    57   1 H        0.926     0.048     2.342     2.393
    58   1 H        0.926     0.044     2.399     2.422
    59   1 H        0.926     0.055     2.253     2.347

molecular dipole:
                 x           y           z       tot (Debye)
 q only:       -0.439      -0.511      -0.095
   full:       -1.186      -0.449       0.280       3.301

 projected vibrational frequencies (cm⁻¹)
eigval :       -0.00    -0.00    -0.00     0.00     0.00     0.00
eigval :       13.01    14.03    17.97    19.40    25.40    28.78
eigval :       30.32    38.19    44.43    63.00    75.77    76.67
eigval :       94.54   103.36   107.59   126.38   153.08   155.67
eigval :      163.89   175.07   181.90   202.35   216.21   225.18
eigval :      232.07   240.12   246.80   260.19   272.73   284.73
eigval :      291.36   294.96   320.83   348.91   349.65   366.10
eigval :      403.56   414.57   454.65   471.43   497.00   498.15
eigval :      506.33   518.90   540.04   546.64   558.95   561.61
eigval :      584.27   604.62   668.80   675.18   712.71   749.40
eigval :      761.28   764.19   766.11   773.94   793.70   802.17
eigval :      829.15   840.48   850.77   863.92   868.79   873.68
eigval :      887.43   892.49   912.19   939.43   945.11   950.27
eigval :      961.46   982.25   999.90  1006.41  1014.47  1033.16
eigval :     1049.40  1063.78  1066.95  1073.99  1079.08  1083.74
eigval :     1100.07  1105.28  1118.10  1125.27  1129.93  1139.59
eigval :     1147.74  1151.54  1152.04  1158.07  1172.18  1182.02
eigval :     1192.55  1210.84  1218.34  1227.62  1237.47  1247.67
eigval :     1259.80  1262.17  1271.64  1277.60  1282.77  1286.06
eigval :     1291.84  1295.22  1297.10  1300.42  1310.97  1314.68
eigval :     1335.56  1339.72  1342.01  1344.89  1354.09  1357.34
eigval :     1364.89  1367.84  1373.83  1376.70  1431.82  1434.40
eigval :     1466.23  1466.91  1470.45  1480.18  1483.33  1483.93
eigval :     1485.42  1486.10  1488.75  1491.79  1494.35  1505.41
eigval :     1542.02  1557.73  1629.02  2953.95  2955.35  2955.37
eigval :     2957.84  2960.26  2960.35  2964.73  2967.85  2969.81
eigval :     2972.83  2977.41  2978.18  2980.97  2982.68  2985.41
eigval :     2985.82  2991.29  2992.67  2996.21  2996.82  3004.02
eigval :     3005.96  3008.01  3012.81  3084.44  3088.63  3091.35
eigval :     3092.67  3103.77  3107.35

   temp. (K)  partition function   enthalpy   heat capacity  entropy
                                   cal/mol     cal/K/mol   cal/K/mol   J/K/mol
 298.15  VIB  0.130E+17            18133.167    101.310    117.328
         ROT  0.580E+08              888.752      2.981     38.506
         INT  0.753E+24            19021.920    104.291    155.835
         TR   0.160E+29             1481.254      4.968     45.277
         TOT                       20503.1737   109.2593   201.1123   841.4537

       T/K    H(0)-H(T)+PV         H(T)/Eh          T*S/Eh         G(T)/Eh
   ------------------------------------------------------------------------
    298.15    0.326739E-01    0.508955E+00    0.955549E-01    0.413400E+00
   ------------------------------------------------------------------------

         :::::::::::::::::::::::::::::::::::::::::::::::::::::
         ::                  THERMODYNAMIC                  ::
         :::::::::::::::::::::::::::::::::::::::::::::::::::::
         :: total free energy         -84.756771095196 Eh   ::
         ::.................................................::
         :: total energy              -85.170171268195 Eh   ::
         :: zero point energy           0.476281211992 Eh   ::
         :: G(RRHO) w/o ZPVE           -0.062881038992 Eh   ::
         :: G(RRHO) contrib.            0.413400172999 Eh   ::
         :::::::::::::::::::::::::::::::::::::::::::::::::::::

           -------------------------------------------------
          | TOTAL ENERGY              -85.170171268195 Eh   |
          | TOTAL ENTHALPY            -84.661216169202 Eh   |
          | TOTAL FREE ENERGY         -84.756771095196 Eh   |
          | GRADIENT NORM               0.000096114430 Eh/α |
          | HOMO-LUMO GAP               1.321189119334 eV   |
           -------------------------------------------------

 * finished run on 2025/09/08 at 21:50:19.821
