   * xtb version 6.7.1 (edcfbbe) compiled by 'albert@albert-system' on 2024-07-22

   ID    Z sym.   atoms
    1   35 Br     1, 15, 19, 27
    2    6 C      2-14, 16-18, 20-26, 28, 29
    3    1 H      30-59

          program call               : xtb data2507/toluene/cyclohexanone/cyclohexanone_toluene_S0_finalOpt.xtbopt.xyz --gfn 2 --uhf 2 --gbsa toluene --ohess vtight --parallel 40 --molden --ceasefiles --namespace data2507/toluene/cyclohexanone/cyclohexanone_toluene_T1_preOpt
      * Solvation model:               GBSA
        Solvent                        toluene
        Solvent mass                       9.2140E+01 g/mol
          :  Hamiltonian                  GFN2-xTB          :
 * total energy  :   -85.1574236 Eh     change       -0.3989129E-08 Eh
 * total energy  :   -85.1678621 Eh     change       -0.1043851E-01 Eh
 * total energy  :   -85.1699539 Eh     change       -0.2091748E-02 Eh
 * total energy  :   -85.1700332 Eh     change       -0.7937218E-04 Eh
 * total energy  :   -85.1700644 Eh     change       -0.3120885E-04 Eh
 * total energy  :   -85.1700811 Eh     change       -0.1665066E-04 Eh
 * total energy  :   -85.1701040 Eh     change       -0.2295113E-04 Eh
 * total energy  :   -85.1701215 Eh     change       -0.1742411E-04 Eh
 * total energy  :   -85.1701307 Eh     change       -0.9266283E-05 Eh
 * total energy  :   -85.1701362 Eh     change       -0.5506135E-05 Eh
 * total energy  :   -85.1701545 Eh     change       -0.2990148E-05 Eh
 * total energy  :   -85.1701557 Eh     change       -0.1117098E-05 Eh
 * total energy  :   -85.1701566 Eh     change       -0.9391200E-06 Eh
 * total energy  :   -85.1701575 Eh     change       -0.9085488E-06 Eh
 * total energy  :   -85.1701580 Eh     change       -0.4974969E-06 Eh
 * total energy  :   -85.1701580 Eh     change        0.5964466E-08 Eh
 * total energy  :   -85.1701584 Eh     change       -0.3809034E-06 Eh
 * total energy  :   -85.1701586 Eh     change       -0.2099230E-06 Eh
 * total energy  :   -85.1701586 Eh     change       -0.4583025E-07 Eh
   *** GEOMETRY OPTIMIZATION CONVERGED AFTER 22 ITERATIONS ***

 final structure:
================
59
 xtb: 6.7.1 (edcfbbe)
Br           2.22153315474933        4.39041523584121        0.25121012000144
C            0.73083485546582        4.50205580994493       -1.01792168216809
C            1.15989189038757        4.17716671381827       -2.43680279790170
C            1.73814852918817        2.77292817837971       -2.61698338738975
C            0.75743531305255        1.66443278757100       -2.24231496413192
C            1.33011531890938        0.28027200190716       -2.53234855720809
C            0.40328735147949       -0.86864353840528       -2.12841804812360
C            0.32696752601240       -1.14301455755882       -0.60849721415397
C           -0.45783532404546       -2.45123305837984       -0.38352180766132
C           -0.59081485409405       -2.80793548449330        1.09604584325803
C           -1.45919809796352       -4.04394165511142        1.34511035213234
C           -2.88732510387079       -3.94618476749818        0.80385792511018
C           -3.68501923504629       -2.78648902511197        1.39786027439745
C           -5.03020917565073       -2.60259079030324        0.72159111886633
Br          -4.81438116719036       -1.99195891171668       -1.13233143716644
C            1.70219229238223       -1.19100717897163        0.01612978216682
C            2.72707632167776       -2.04357837289633       -0.23853547567022
C            3.93446958545429       -1.87131568971824        0.47400628546365
Br           5.38416297618383       -3.04771593630645        0.12793219266977
C            4.09985634708006       -0.84125963933826        1.42722193068163
C            3.07901082130209        0.01642058337661        1.69925846991225
C            1.83574206604147       -0.13650804672769        1.00545157332050
C            0.64591805969626        0.56150393703352        1.09058279539770
C            0.24624760701544        1.67022237707854        1.90524002008668
C           -1.02525291042191        2.14239199682625        1.80406202218980
C           -1.94592166943212        1.54631535371625        0.90755087755220
Br          -3.71814398112956        2.23459460846363        0.81968674395461
C           -1.58438968562055        0.46432607084684        0.07668587125592
C           -0.31211133686488       -0.00795013384220        0.15348838362592
H           -0.02205267131414        3.81027519661622       -0.64601360378978
H            0.36048332809772        5.52370089925032       -0.94187822790848
H            0.27454397048580        4.28972061965153       -3.06949707142036
H            1.90093327004665        4.91085972125283       -2.76522020177530
H            2.64154578122840        2.67161284148600       -2.00976996393102
H            2.03300170093075        2.65724344659783       -3.66267259638409
H           -0.17672452972803        1.79520750133086       -2.79510742477009
H            0.53097511871787        1.73093474524134       -1.17863018644525
H            2.28761343011578        0.17294602841945       -2.01686010574701
H            1.52587678684119        0.20009450418797       -3.60491853656957
H           -0.60473461387043       -0.67212723551297       -2.49855240858695
H            0.76124799125255       -1.78135441086874       -2.60883111750092
H           -1.44380880949335       -2.32031703835667       -0.82839996978672
H            0.04318793758495       -3.26665525973757       -0.90787523888517
H            0.40361979547152       -2.99943761738422        1.50749232564851
H           -0.99768955017695       -1.95399696787372        1.64115962391615
H           -1.49798090854803       -4.22545250552159        2.42221711134455
H           -0.98055883925510       -4.91040431138545        0.88254815008337
H           -3.40543916131127       -4.88369366831032        1.02390666942876
H           -2.85336812706982       -3.84384837672373       -0.28227150602645
H           -3.11749269170438       -1.85882945448169        1.31174492138089
H           -3.86718951507546       -2.96988725894483        2.46037403985408
H           -5.59280137561526       -3.53353672018456        0.66384592187403
H           -5.62860683191843       -1.83450090078905        1.21000579124165
H            2.64725456572508       -2.83601823196016       -0.96677739171928
H            5.04899916792600       -0.74913331323943        1.93355598569637
H            3.19613342635922        0.80868495018489        2.42092240493009
H            0.95517784837107        2.12169281554915        2.58009383682144
H           -1.35325507506332        2.97768565600999        2.40501865790993
H           -2.31040399329158        0.04846489191742       -0.60536090868974

          :  Hamiltonian                  GFN2-xTB          :
         :: gradient norm              0.000106778773 Eh/a0 ::
         :: HOMO-LUMO gap              1.320929783680 eV    ::
         :: SCC energy               -86.303097903397 Eh    ::
         :: -> dispersion             -0.079100330474 Eh    ::
         :: -> Gsolv                  -0.037354022932 Eh    ::
         :: repulsion energy           1.132939253861 Eh    ::

    * Orbital Energies and Occupations

         #    Occupation            Energy/Eh            Energy/eV
      -------------------------------------------------------------
         1        2.0000           -0.8451453             -22.9976
       ...           ...                  ...                  ...
        68        2.0000           -0.4246065             -11.5541
        69        2.0000           -0.4233029             -11.5187
        70        2.0000           -0.4173497             -11.3567
        71        2.0000           -0.4151048             -11.2956
        72        2.0000           -0.4135152             -11.2523
        73        2.0000           -0.4116680             -11.2021
        74        2.0000           -0.4085582             -11.1174
        75        2.0000           -0.4074053             -11.0861
        76        2.0000           -0.4062535             -11.0547
        77        2.0000           -0.4058147             -11.0428
        78        2.0000           -0.4045876             -11.0094
        79        1.0000           -0.3752974             -10.2124
        80        1.0000           -0.2824818              -7.6867 (HOMO)
        81                         -0.2339385              -6.3658 (LUMO)
        82                         -0.2295795              -6.2472
        83                         -0.2172787              -5.9125
        84                         -0.2143222              -5.8320
        85                         -0.2131048              -5.7989
        86                         -0.2051981              -5.5837
        87                         -0.2025820              -5.5125
        88                         -0.1395743              -3.7980
        89                         -0.0810064              -2.2043
        90                          0.0210389               0.5725
        91                          0.0253899               0.6909
       ...                                ...                  ...
       166                          0.7239910              19.7008
      -------------------------------------------------------------
                  HL-Gap            0.0485434 Eh            1.3209 eV

     #   Z          covCN         q      C6AA      α(0)
     1  35 Br       0.968    -0.221   191.155    22.292
     2   6 C        3.740     0.030    20.147     6.404
     3   6 C        3.852    -0.052    21.466     6.590
     4   6 C        3.802    -0.056    21.573     6.613
     5   6 C        3.802    -0.058    21.609     6.618
     6   6 C        3.801    -0.057    21.594     6.616
     7   6 C        3.806    -0.062    21.678     6.628
     8   6 C        3.926     0.014    20.273     6.399
     9   6 C        3.808    -0.063    21.700     6.631
    10   6 C        3.801    -0.053    21.526     6.606
    11   6 C        3.801    -0.058    21.617     6.620
    12   6 C        3.802    -0.058    21.610     6.618
    13   6 C        3.859    -0.052    21.472     6.590
    14   6 C        3.740     0.030    20.147     6.404
    15  35 Br       0.974    -0.222   191.185    22.294
    16   6 C        3.051     0.009    27.772     8.643
    17   6 C        2.970    -0.041    29.003     8.834
    18   6 C        2.915     0.066    26.513     8.443
    19  35 Br       1.053    -0.156   189.355    22.187
    20   6 C        2.975    -0.034    28.838     8.809
    21   6 C        2.907    -0.036    28.885     8.813
    22   6 C        3.022     0.002    27.963     8.674
    23   6 C        3.023     0.001    27.986     8.678
    24   6 C        2.906    -0.036    28.885     8.813
    25   6 C        2.972    -0.035    28.875     8.814
    26   6 C        2.914     0.062    26.614     8.460
    27  35 Br       1.048    -0.166   189.646    22.204
    28   6 C        2.966    -0.043    29.072     8.844
    29   6 C        3.050     0.011    27.720     8.635
    30   1 H        0.926     0.059     2.209     2.324
    31   1 H        0.926     0.058     2.224     2.332
    32   1 H        0.924     0.048     2.341     2.393
    33   1 H        0.924     0.046     2.366     2.406
    34   1 H        0.924     0.042     2.423     2.434
    35   1 H        0.924     0.037     2.483     2.464
    36   1 H        0.924     0.032     2.557     2.501
    37   1 H        0.925     0.038     2.480     2.463
    38   1 H        0.924     0.033     2.546     2.495
    39   1 H        0.924     0.037     2.488     2.467
    40   1 H        0.924     0.047     2.359     2.402
    41   1 H        0.924     0.045     2.390     2.418
    42   1 H        0.925     0.054     2.271     2.357
    43   1 H        0.924     0.041     2.435     2.441
    44   1 H        0.924     0.028     2.615     2.529
    45   1 H        0.924     0.029     2.597     2.520
    46   1 H        0.924     0.032     2.558     2.501
    47   1 H        0.924     0.037     2.494     2.470
    48   1 H        0.924     0.032     2.560     2.502
    49   1 H        0.924     0.049     2.327     2.385
    50   1 H        0.924     0.054     2.266     2.354
    51   1 H        0.924     0.044     2.392     2.419
    52   1 H        0.926     0.057     2.237     2.339
    53   1 H        0.926     0.057     2.238     2.339
    54   1 H        0.926     0.051     2.311     2.377
    55   1 H        0.926     0.048     2.348     2.396
    56   1 H        0.926     0.048     2.339     2.392
    57   1 H        0.926     0.048     2.339     2.392
    58   1 H        0.926     0.044     2.400     2.423
    59   1 H        0.926     0.056     2.251     2.346

molecular dipole:
                 x           y           z       tot (Debye)
 q only:       -0.432      -0.515      -0.102
   full:       -1.189      -0.463       0.263       3.311

 projected vibrational frequencies (cm⁻¹)
eigval :       -0.00    -0.00     0.00     0.00     0.00     0.00
eigval :        9.60    13.29    17.96    20.98    25.24    27.41
eigval :       29.87    37.94    42.73    62.41    75.42    75.82
eigval :       94.19   103.02   105.77   126.12   152.85   155.19
eigval :      163.87   175.06   182.17   202.63   216.22   224.50
eigval :      232.09   240.06   246.91   260.47   273.42   284.04
eigval :      290.99   295.24   320.73   348.60   350.17   366.09
eigval :      403.26   414.06   455.03   471.46   496.76   497.94
eigval :      506.25   518.83   540.06   546.50   558.80   561.48
eigval :      584.28   604.66   668.77   675.11   712.68   748.57
eigval :      761.16   762.97   766.07   773.20   793.33   801.37
eigval :      829.16   840.24   851.90   863.70   867.42   873.36
eigval :      886.46   891.55   912.21   939.24   944.97   950.11
eigval :      961.41   982.09   999.71  1006.16  1014.19  1033.04
eigval :     1049.33  1063.78  1067.13  1073.73  1079.00  1083.86
eigval :     1100.21  1105.15  1117.95  1125.17  1129.49  1139.37
eigval :     1147.72  1151.25  1151.51  1158.09  1171.98  1181.48
eigval :     1192.34  1210.66  1218.28  1227.66  1237.28  1247.45
eigval :     1259.70  1261.93  1271.45  1277.51  1282.74  1286.05
eigval :     1291.67  1295.16  1297.10  1300.38  1310.79  1314.70
eigval :     1335.05  1339.68  1341.99  1345.46  1353.80  1356.96
eigval :     1364.65  1367.84  1373.81  1376.68  1431.78  1433.74
eigval :     1466.89  1468.06  1471.08  1480.40  1483.15  1483.68
eigval :     1485.02  1486.01  1488.38  1492.23  1494.22  1504.90
eigval :     1541.94  1557.73  1628.91  2954.08  2955.22  2955.56
eigval :     2957.43  2960.17  2960.54  2964.71  2967.89  2969.81
eigval :     2972.69  2977.25  2978.01  2980.86  2982.68  2985.27
eigval :     2986.00  2990.86  2992.62  2995.98  2996.78  3004.14
eigval :     3006.30  3008.27  3012.61  3084.05  3088.27  3091.87
eigval :     3092.71  3103.66  3107.56

   temp. (K)  partition function   enthalpy   heat capacity  entropy
                                   cal/mol     cal/K/mol   cal/K/mol   J/K/mol
 298.15  VIB  0.199E+17            18150.562    101.252    117.740
         ROT  0.578E+08              888.752      2.981     38.500
         INT  0.115E+25            19039.315    104.233    156.240
         TR   0.160E+29             1481.254      4.968     45.277
         TOT                       20520.5686   109.2012   201.5171   843.1474

       T/K    H(0)-H(T)+PV         H(T)/Eh          T*S/Eh         G(T)/Eh
   ------------------------------------------------------------------------
    298.15    0.327016E-01    0.508919E+00    0.957473E-01    0.413172E+00
   ------------------------------------------------------------------------

         :::::::::::::::::::::::::::::::::::::::::::::::::::::
         ::                  THERMODYNAMIC                  ::
         :::::::::::::::::::::::::::::::::::::::::::::::::::::
         :: total free energy         -84.756986479157 Eh   ::
         ::.................................................::
         :: total energy              -85.170158657714 Eh   ::
         :: zero point energy           0.476217832834 Eh   ::
         :: G(RRHO) w/o ZPVE           -0.063045654277 Eh   ::
         :: G(RRHO) contrib.            0.413172178557 Eh   ::
         :::::::::::::::::::::::::::::::::::::::::::::::::::::

           -------------------------------------------------
          | TOTAL ENERGY              -85.170158657714 Eh   |
          | TOTAL ENTHALPY            -84.661239217290 Eh   |
          | TOTAL FREE ENERGY         -84.756986479157 Eh   |
          | GRADIENT NORM               0.000106716943 Eh/α |
          | HOMO-LUMO GAP               1.320932370303 eV   |
           -------------------------------------------------

 * finished run on 2025/09/08 at 21:30:22.541
