   * xtb version 6.7.1 (edcfbbe) compiled by 'albert@albert-system' on 2024-07-22

   ID    Z sym.   atoms
    1    6 C      1-8, 10-16, 18, 20-25, 27-40, 42-54, 56, 58, 59, 61-76
    2    7 N      9, 26, 41, 60
    3    9 F      17, 19, 55, 57
    4    1 H      77-126

          program call               : xtb data2507/gas/4FBTPI/4FBTPI_gas_T1_crest.xyz --gfn 2 --spinpol --tblite --uhf 2 --ohess vtight --parallel 40 --molden --ceasefiles --namespace data2507/gas/4FBTPI/4FBTPI_gas_T1_finalOpt
 * total energy  :  -201.7982292 Eh     change       -0.1109427E-07 Eh
 * total energy  :  -201.7982353 Eh     change       -0.6161725E-05 Eh
 * total energy  :  -201.7982394 Eh     change       -0.4011559E-05 Eh
 * total energy  :  -201.7982411 Eh     change       -0.1756397E-05 Eh
 * total energy  :  -201.7982445 Eh     change       -0.3419727E-05 Eh
 * total energy  :  -201.7982483 Eh     change       -0.3737824E-05 Eh
 * total energy  :  -201.7982529 Eh     change       -0.4651479E-05 Eh
 * total energy  :  -201.7982569 Eh     change       -0.3989737E-05 Eh
 * total energy  :  -201.7982604 Eh     change       -0.3516192E-05 Eh
 * total energy  :  -201.7982640 Eh     change       -0.3529295E-05 Eh
 * total energy  :  -201.7982754 Eh     change       -0.1306979E-05 Eh
 * total energy  :  -201.7982764 Eh     change       -0.1026128E-05 Eh
 * total energy  :  -201.7982773 Eh     change       -0.9003127E-06 Eh
 * total energy  :  -201.7982782 Eh     change       -0.9643512E-06 Eh
 * total energy  :  -201.7982792 Eh     change       -0.9452087E-06 Eh
 * total energy  :  -201.7982802 Eh     change       -0.9832510E-06 Eh
 * total energy  :  -201.7982805 Eh     change       -0.2993247E-06 Eh
 * total energy  :  -201.7982812 Eh     change       -0.7610286E-06 Eh
 * total energy  :  -201.7982813 Eh     change       -0.8666635E-07 Eh
   *** GEOMETRY OPTIMIZATION CONVERGED AFTER 24 ITERATIONS ***

 final structure:
================
126
 xtb: 6.7.1 (edcfbbe)
C           -6.30034995375445       -5.97931134065169        1.19064629810345
C           -7.30890452085750       -5.65907490618044        0.07820110858920
C           -8.64696602422280       -6.35403288722242        0.36837440419861
C           -6.75838293126760       -6.21156438457086       -1.23901560261347
C           -7.52922914603645       -4.15616085828730        0.03578506374384
C           -8.03637504354399       -3.50713668426654        1.16117762490226
C           -8.24012278463587       -2.14246142809113        1.17935389800738
C           -7.93797661694655       -1.38530368489319        0.05217607588555
N           -8.11457271633380        0.01492802106951        0.06390139791264
C           -7.09775247631311        0.96346222198329        0.07174208583534
C           -5.69586444486233        0.71336732326222        0.13158948381859
C           -5.10293982189021       -0.49708989236837        0.54567565131090
C           -3.74557916532298       -0.65401346910602        0.53961378885580
C           -2.87523600576624        0.38547198530212        0.13330541816304
C           -1.45621173038031        0.19590899064675        0.09754888784529
C           -0.84484325089804       -1.05930962510358       -0.16887619407103
F           -1.62031625363290       -2.11918624285965       -0.48492585760047
C            0.51016960003908       -1.24553954260435       -0.21118184578139
F            0.95066285853158       -2.47188777310805       -0.56213129083664
C            1.44976985976428       -0.20185216214841        0.00565709952854
C            2.86869644014069       -0.38820367201475       -0.04187399366990
C            3.73223769872100        0.65487171722482       -0.45406440040556
C            5.08951194164215        0.50049418564184       -0.47868936809304
C            5.69033788432501       -0.71108496451156       -0.07891452220700
C            7.09284477844946       -0.96085158801069       -0.04550626724894
N            7.58944495044807       -2.19133923065639        0.00175331137361
C            8.92412596246407       -2.06552841628387       -0.00249282656130
C            9.89970630558045       -3.10142500932642        0.00190932869959
C            9.51872020996594       -4.44700311850254       -0.00318136751224
C           10.47096487260365       -5.43726082988628       -0.02328539545989
C           11.81814598293139       -5.08691931100132       -0.04273909181508
C           12.20365042432904       -3.76423730397430       -0.03397543450375
C           11.26267616848201       -2.72572978057931       -0.00580118716080
C           11.63703148170282       -1.32067953831863        0.02881081149641
C           12.97737342385739       -0.92108002807763        0.08125776171947
C           13.34448853097984        0.40441592176311        0.14273104362814
C           12.37097890606563        1.39856476996232        0.16688838435287
C           11.04435640571880        1.05178059124874        0.11229562307184
C           10.64732824263219       -0.29391935585535        0.02959207947034
C            9.29153177868131       -0.70471519874874       -0.02975231392059
N            8.11032737046620       -0.01292631866165       -0.06456035747605
C            7.93604929420633        1.38773632545824       -0.05227108788817
C            8.19983626774284        2.14021619938550       -1.19216066474677
C            7.99805766434710        3.50516238648741       -1.17221817701101
C            7.53182439645673        4.15918431163781       -0.03209830709528
C            7.31001920775607        5.66192346744110       -0.07308572430449
C            6.81729613137834        6.22178371712436        1.26375996862965
C            6.25368924791822        5.97488651088957       -1.14244869356659
C            8.63351039830173        6.35611882716950       -0.42519719297184
C            7.28085682011254        3.38929717326248        1.09778289290935
C            7.47900088784412        2.02003757000801        1.09473418873998
C            4.83019756286433       -1.77233360412876        0.28865651978528
C            3.47491357393403       -1.61977582432329        0.30825579465053
C            0.83821474904585        1.05261230541000        0.27600726258434
F            1.61363141894220        2.11163816641484        0.59509080779384
C           -0.51669882134498        1.23879337632292        0.31817392493561
F           -0.95764770529862        2.46426794939565        0.67168922407045
C           -3.47418455427199        1.61759148481225       -0.22675861809891
C           -4.82939742729714        1.77264043973600       -0.22567548655234
N           -7.59355839748305        2.19375616003716        0.01931929189977
C           -8.92813766207533        2.06726949479227       -0.00665457100285
C           -9.90378354616392        3.10284852649482       -0.02714171024792
C           -9.52363064582524        4.44850177171328       -0.00492575965497
C          -10.47657489278214        5.43825007448884        0.00021622367430
C          -11.82369229122956        5.08731677617058       -0.01288221782132
C          -12.20827122847899        3.76459759382986       -0.03897000011396
C          -11.26637550201980        2.72663677503749       -0.05264702534571
C          -11.63899359599909        1.32168597207770       -0.10541405339039
C          -12.97748262925153        0.92200547915127       -0.19314049898702
C          -13.34225336875118       -0.40311746724111       -0.27341959449432
C          -12.36785552072234       -1.39662374568753       -0.28207674711995
C          -11.04312885986176       -1.04975592169260       -0.19260731498804
C          -10.64903895163620        0.29535393219210       -0.08945011896366
C           -9.29518910509806        0.70627973128279        0.00551206744585
C           -7.44003590722432       -2.01266641510732       -1.08046442677951
C           -7.23958714252890       -3.38156821718031       -1.08158235267409
H           -6.66758446681685       -5.66623315195338        2.16415039313769
H           -6.11253404107239       -7.05000906394392        1.22648744801424
H           -5.35782877205506       -5.47037742332589        1.00051829407644
H           -9.37391470020179       -6.10877487481750       -0.40338651101028
H           -9.05401838272027       -6.05178918826029        1.32930238810416
H           -8.51064592092477       -7.43300824610872        0.38229365807044
H           -7.44693077285550       -6.02770463461070       -2.06070488076168
H           -6.62305108345510       -7.28737855964162       -1.15020674085479
H           -5.79239317218524       -5.77169726522148       -1.47488971092206
H           -8.27443923992329       -4.07030616439008        2.05027064257489
H           -8.62943934467225       -1.65473511315075        2.06131762341697
H           -5.71415833826877       -1.30499981341001        0.91359561415775
H           -3.33268287437447       -1.58227557431578        0.89948265041867
H            3.31336329318547        1.58398322276831       -0.80466940851683
H            5.69396125218409        1.31158407290851       -0.85050220820023
H            8.46372223679384       -4.67185979887889        0.00371722101991
H           10.18199330004970       -6.47749948957794       -0.02808924177784
H           12.57243794942574       -5.86008621440877       -0.06503757592316
H           13.25918946976919       -3.54444091867311       -0.05234709390453
H           13.75900442013764       -1.66332712647298        0.08105710053478
H           14.39000760376421        0.67174143572285        0.18152280230044
H           12.65669505550911        2.43782338924809        0.23126094198006
H           10.29339367215635        1.82424500418923        0.14455705424779
H            8.55735647372231        1.64855423367701       -2.08531652320733
H            8.20473189460701        4.06454881566957       -2.07148128654152
H            6.68053175755230        7.29747335376779        1.17568501436389
H            7.54003848285631        6.04002589285269        2.05605159459475
H            5.86129906517940        5.78545805173008        1.54293639310165
H            5.32020215879209        5.46799446529029       -0.90751072213668
H            6.57791601330605        5.65411203774498       -2.12866493825942
H            6.06491804412383        7.04542054381405       -1.17792303279306
H            8.99739645869454        6.05117164323534       -1.40240709685651
H            8.49623499377364        7.43500851064943       -0.43653727802249
H            9.39431881951473        6.11364425211947        0.31410949144271
H            6.92096886880530        3.84520803557535        2.00455993637693
H            7.27061814789621        1.43510410607932        1.97818808590552
H            5.28453525384627       -2.70597590776341        0.57947068289814
H            2.86169406343532       -2.44218716669131        0.63735277740573
H           -2.85514705493802        2.43805874929217       -0.54976385398954
H           -5.27820567805280        2.70620366134382       -0.52520650198327
H           -8.46884883605882        4.67373375278581        0.01340544457545
H          -10.18830872869890        6.47854067019187        0.01830792143285
H          -12.57865781738345        5.86007654651663       -0.00248584808648
H          -13.26385288943783        3.54433196468741       -0.04572546261910
H          -13.75925733111320        1.66398288906865       -0.20654318128518
H          -14.38637958793107       -0.67056134623906       -0.33942191963243
H          -12.65128021114682       -2.43544388003786       -0.36183790515383
H          -10.29112444840882       -1.82161099770079       -0.21337906733655
H           -7.20173179717870       -1.42414301076000       -1.95390935562025
H           -6.84700582345794       -3.83345537426494       -1.97672174639053

 projected vibrational frequencies (cm⁻¹)
eigval :       -0.00    -0.00    -0.00     0.00     0.00     0.00
eigval :        3.23     4.90     7.24     7.51    14.67    17.24
eigval :       18.07    20.32    22.34    24.42    27.83    34.28
eigval :       34.90    49.22    52.19    58.66    60.81    65.46
eigval :       65.76    75.34    77.89    84.65    86.71    88.39
eigval :       96.88   103.49   105.19   114.03   120.82   123.57
eigval :      133.27   140.45   153.46   162.81   172.94   174.03
eigval :      178.03   178.45   185.11   188.01   197.33   213.44
eigval :      215.23   216.08   227.75   227.85   239.15   247.20
eigval :      253.50   259.31   262.42   263.70   270.87   279.37
eigval :      283.37   289.04   293.91   308.91   310.43   317.83
eigval :      317.97   321.91   334.83   335.88   336.06   340.64
eigval :      359.51   359.93   368.17   372.52   380.15   380.54
eigval :      382.11   384.72   386.74   390.15   395.19   395.85
eigval :      396.31   401.21   403.92   404.92   411.23   415.55
eigval :      422.85   426.47   443.05   443.20   445.70   453.76
eigval :      460.74   463.04   466.27   475.60   479.48   485.09
eigval :      491.01   511.11   511.26   519.95   521.02   530.08
eigval :      530.14   545.61   546.12   548.12   580.31   583.48
eigval :      583.57   588.65   589.67   597.96   603.15   605.72
eigval :      606.54   614.94   639.50   640.03   643.36   646.68
eigval :      648.86   657.97   665.30   665.34   667.85   668.30
eigval :      677.45   677.52   682.96   686.62   695.08   698.72
eigval :      720.57   722.90   729.55   734.90   735.06   749.60
eigval :      756.14   762.60   762.75   774.78   779.59   779.65
eigval :      785.26   786.74   815.24   816.26   820.31   822.00
eigval :      830.23   838.29   859.51   859.60   868.49   868.56
eigval :      872.45   872.50   879.30   883.01   901.35   906.54
eigval :      906.59   907.44   911.52   911.61   915.07   915.08
eigval :      915.58   915.97   920.81   921.39   921.66   921.72
eigval :      926.10   926.12   927.42   927.49   934.70   938.73
eigval :      943.62   959.98   961.30   961.35   963.16   963.86
eigval :      964.57   964.63   979.86   994.20   998.48  1005.72
eigval :     1009.19  1023.78  1035.22  1035.37  1035.78  1035.82
eigval :     1050.60  1071.72  1073.41  1074.45  1085.21  1085.25
eigval :     1106.20  1106.90  1115.33  1120.92  1131.93  1140.37
eigval :     1140.60  1145.16  1145.31  1147.90  1148.52  1155.91
eigval :     1157.29  1166.14  1166.62  1181.83  1181.89  1185.27
eigval :     1185.55  1198.36  1198.76  1212.81  1214.55  1218.94
eigval :     1227.78  1227.81  1233.79  1233.92  1234.20  1237.60
eigval :     1249.48  1251.18  1255.17  1255.37  1263.44  1273.93
eigval :     1273.96  1274.59  1275.85  1280.95  1283.23  1285.35
eigval :     1285.56  1290.96  1291.60  1309.41  1310.51  1312.85
eigval :     1313.20  1320.29  1335.71  1335.97  1336.94  1338.71
eigval :     1339.00  1348.32  1351.93  1379.45  1382.60  1387.60
eigval :     1395.18  1397.42  1397.52  1398.78  1399.17  1406.41
eigval :     1406.45  1409.94  1410.00  1418.50  1423.65  1429.25
eigval :     1429.30  1430.11  1430.75  1432.58  1440.88  1444.76
eigval :     1448.95  1453.14  1455.50  1456.01  1473.82  1479.91
eigval :     1487.64  1488.27  1489.89  1491.28  1491.29  1492.79
eigval :     1492.85  1499.76  1499.91  1503.21  1503.40  1506.61
eigval :     1506.82  1514.20  1514.21  1518.25  1518.26  1527.87
eigval :     1530.91  1545.24  1548.44  1549.76  1550.70  1558.45
eigval :     1566.78  1567.08  1567.27  1579.27  1580.90  1588.75
eigval :     1591.99  1592.05  1598.45  1598.49  3025.95  3025.99
eigval :     3027.62  3027.65  3030.26  3030.32  3033.28  3033.33
eigval :     3035.32  3035.37  3038.26  3038.37  3042.79  3042.81
eigval :     3047.17  3047.20  3050.39  3050.51  3075.96  3076.03
eigval :     3079.59  3079.74  3082.01  3082.24  3088.38  3088.57
eigval :     3089.65  3089.70  3089.98  3090.34  3097.02  3097.15
eigval :     3099.14  3099.33  3107.88  3108.02  3108.48  3108.65
eigval :     3109.76  3110.32  3112.31  3112.60  3121.84  3122.39
eigval :     3122.64  3122.85  3122.96  3123.19  3125.84  3125.96

   temp. (K)  partition function   enthalpy   heat capacity  entropy
                                   cal/mol     cal/K/mol   cal/K/mol   J/K/mol
 298.15  VIB  0.140E+34            39310.145    239.144    249.193
         ROT  0.546E+09              888.752      2.981     42.960
         INT  0.765E+42            40198.897    242.125    292.152
         TR   0.306E+29             1481.254      4.968     46.558
         TOT                       41680.1509   247.0932   338.7103  1417.1641

       T/K    H(0)-H(T)+PV         H(T)/Eh          T*S/Eh         G(T)/Eh
   ------------------------------------------------------------------------
    298.15    0.664215E-01    0.103414E+01    0.160932E+00    0.873208E+00
   ------------------------------------------------------------------------

         :::::::::::::::::::::::::::::::::::::::::::::::::::::
         ::                  THERMODYNAMIC                  ::
         :::::::::::::::::::::::::::::::::::::::::::::::::::::
         :: total free energy        -200.925073862177 Eh   ::
         ::.................................................::
         :: total energy             -201.798281397876 Eh   ::
         :: zero point energy           0.967718198782 Eh   ::
         :: G(RRHO) w/o ZPVE           -0.094510663083 Eh   ::
         :: G(RRHO) contrib.            0.873207535699 Eh   ::
         :::::::::::::::::::::::::::::::::::::::::::::::::::::

           -------------------------------------------------
          | TOTAL ENERGY             -201.798281397876 Eh   |
          | TOTAL ENTHALPY           -200.764141650781 Eh   |
          | TOTAL FREE ENERGY        -200.925073862177 Eh   |
          | GRADIENT NORM               0.000081004935 Eh/α |
           -------------------------------------------------

 * finished run on 2025/07/19 at 02:25:05.870
