   * xtb version 6.7.1 (edcfbbe) compiled by 'albert@albert-system' on 2024-07-22

   ID    Z sym.   atoms
    1    6 C      1-8, 10-16, 18, 20-25, 27-40, 42-54, 56, 58, 59, 61-76
    2    7 N      9, 26, 41, 60
    3    9 F      17, 19, 55, 57
    4    1 H      77-126

          program call               : xtb data2507/gas/4FBTPI/4FBTPI_gas_S0_crest.xyz --gfn 2 --ohess vtight --parallel 40 --molden --ceasefiles --namespace data2507/gas/4FBTPI/4FBTPI_gas_S0_finalOpt
          :  Hamiltonian                  GFN2-xTB          :
 * total energy  :  -201.8747738 Eh     change       -0.9021051E-09 Eh
 * total energy  :  -201.8747759 Eh     change       -0.2103932E-05 Eh
 * total energy  :  -201.8747782 Eh     change       -0.2309241E-05 Eh
 * total energy  :  -201.8747826 Eh     change       -0.4459259E-05 Eh
 * total energy  :  -201.8747847 Eh     change       -0.2102688E-05 Eh
 * total energy  :  -201.8747882 Eh     change       -0.3409589E-05 Eh
 * total energy  :  -201.8747944 Eh     change       -0.6272367E-05 Eh
 * total energy  :  -201.8748005 Eh     change       -0.6052083E-05 Eh
 * total energy  :  -201.8748050 Eh     change       -0.4523061E-05 Eh
 * total energy  :  -201.8748100 Eh     change       -0.5036474E-05 Eh
 * total energy  :  -201.8749200 Eh     change       -0.6704335E-06 Eh
 * total energy  :  -201.8749205 Eh     change       -0.5070985E-06 Eh
 * total energy  :  -201.8749209 Eh     change       -0.3909304E-06 Eh
 * total energy  :  -201.8749213 Eh     change       -0.4089800E-06 Eh
 * total energy  :  -201.8749218 Eh     change       -0.4976277E-06 Eh
 * total energy  :  -201.8749224 Eh     change       -0.5892669E-06 Eh
 * total energy  :  -201.8749230 Eh     change       -0.6092377E-06 Eh
 * total energy  :  -201.8749235 Eh     change       -0.5758458E-06 Eh
 * total energy  :  -201.8749236 Eh     change       -0.5807152E-08 Eh
   *** GEOMETRY OPTIMIZATION CONVERGED AFTER 68 ITERATIONS ***

 final structure:
================
126
 xtb: 6.7.1 (edcfbbe)
C           -5.95349432782322       -5.84779528286878        1.10723544012911
C           -6.86072710954173       -5.53630126870570       -0.09155074243575
C           -8.17089458237285       -6.32843133036947        0.02381244981660
C           -6.14009072200519       -5.98617525883326       -1.36501016617590
C           -7.17787026471004       -4.05005426971251       -0.09252527854666
C           -7.84608917589473       -3.49217291895130        0.99689269552030
C           -8.14474560353931       -2.14618612822871        1.05124630783152
C           -7.78257602496690       -1.31539627625716       -0.00393829256129
N           -8.03806333557052        0.06972961379294        0.05545210997588
C           -7.06855254308679        1.04754881445569        0.09381934493232
C           -5.63744864324765        0.80101618296901        0.10370435949927
C           -5.05764061634560       -0.29854916092693        0.73569339313892
C           -3.69133210737128       -0.48243170714304        0.70163933144657
C           -2.86639809487555        0.43105220006544        0.04821276250535
C           -1.41279755960864        0.21572652616491        0.00286140153897
C           -0.86385715445789       -1.03353713312015       -0.29062521966457
F           -1.67470529541081       -2.06526650513533       -0.57855065557582
C            0.50623423358166       -1.24474138039954       -0.32686819855565
F            0.95443878886002       -2.46922642838274       -0.64431411711727
C            1.41688575075600       -0.21826184698888       -0.07449737148851
C            2.87054923137531       -0.43634960199747       -0.10205504701358
C            3.70545691160646        0.46328607652530       -0.76122685722352
C            5.07258598636894        0.28097241084257       -0.76714915870857
C            5.64309393819648       -0.80014785803392       -0.09577645645384
C            7.07357321564034       -1.04189696292183       -0.03825270728884
N            7.58873001309577       -2.24697867804344        0.01508316599137
C            8.93389342793693       -2.07851281391567        0.05378067028479
C            9.93977355295370       -3.08475428166477        0.08013221884182
C            9.60606706906246       -4.44270274767251        0.05650237916031
C           10.59122725066358       -5.39829533991526        0.05507510968805
C           11.92722776563368       -5.00314102706320        0.07349422865411
C           12.26620728061605       -3.67044821634707        0.10149570899837
C           11.28861230216464       -2.66378943014070        0.11214141776614
C           11.61367948543054       -1.24864946143422        0.17274139926864
C           12.93927803404740       -0.80336188360589        0.27322796185830
C           13.25583470072880        0.53093207802933        0.37095685897246
C           12.24693160082659        1.48835999449783        0.38868215874323
C           10.93541437322592        1.09533840814676        0.28502069044570
C           10.59302726583408       -0.25835450624255        0.15748253300506
C            9.25103996612792       -0.71975715995203        0.04329057686304
N            8.04461049018516       -0.06462601207849       -0.02816798047125
C            7.79478932778617        1.32264878604984       -0.06138283838681
C            8.17398234028306        2.08079580515685       -1.16425041775020
C            7.87718458805235        3.42768727201956       -1.20426274070600
C            7.19457526199017        4.05765215426268       -0.16416368733110
C            6.87581474456948        5.53970003015970       -0.27146553192526
C            6.13845205815337        6.07475625252559        0.95873561241342
C            5.98321210437490        5.76522552950032       -1.50021879689576
C            8.18592655023192        6.32526640532004       -0.42524275925331
C            6.82775475953645        3.28307609579238        0.92990963916457
C            7.12194930110451        1.93225880994366        0.98687055642358
C            4.80145814831027       -1.72037795390225        0.53316867953061
C            3.43547379708885       -1.54360469521032        0.53036627471188
C            0.86847894259477        1.03198388391015        0.21433241871281
F            1.68030295698209        2.06392314282509        0.49837492048483
C           -0.50162792621416        1.24271039917897        0.25298996396061
F           -0.94819842074512        2.46706497792140        0.57323383788896
C           -3.44131713528660        1.55109737377538       -0.55192383716809
C           -4.80670535254304        1.73216318481494       -0.52255723363880
N           -7.58527033928427        2.25220523734888        0.12677136548607
C           -8.93127832379137        2.08243545981277        0.11915882878892
C           -9.93831890432240        3.08550501627018        0.18707885787670
C           -9.60523386200560        4.44027274875500        0.28535790172558
C          -10.59068142363685        5.39085648075881        0.38003463426874
C          -11.92621794895660        4.99364693548680        0.38114058347968
C          -12.26475417763157        3.66440275736382        0.28000684379284
C          -11.28714275457979        2.66340397642479        0.17311113646023
C          -11.61275658634300        1.25405253345110        0.03332701189326
C          -12.94041489825427        0.81236804830746       -0.05540017019512
C          -13.25860139002831       -0.51378857010419       -0.22900816173997
C          -12.24979039820763       -1.46513281609972       -0.33912863354843
C          -10.93611688025691       -1.07589303813061       -0.24964563914215
C          -10.59124788870321        0.26767472370254       -0.04499702376721
C           -9.24683553891825        0.72467829455054        0.05836633256918
C           -7.12112898169776       -1.85189348393676       -1.09835374703923
C           -6.82484458949467       -3.20286109752734       -1.13608374030949
H           -6.43756622622331       -5.60077625412231        2.04812214018137
H           -5.70392246650109       -6.90635557934761        1.12089795244073
H           -5.03004593019597       -5.27686447512897        1.03666096894924
H           -8.83072679440488       -6.08737145896102       -0.80718356049753
H           -8.69283601611050       -6.10452725648543        0.94998548480008
H           -7.96415315836228       -7.39603789507496        0.00073596180229
H           -6.75135429602317       -5.80565461299319       -2.24630921922630
H           -5.94105897150058       -7.05428237242651       -1.30866806275343
H           -5.18749812232825       -5.47413054824142       -1.47809632560849
H           -8.13811995548415       -4.11332345217728        1.82961101200026
H           -8.65870688056052       -1.73006981311595        1.90584972438414
H           -5.66755353858122       -1.00545980368642        1.27575102797666
H           -3.25926066816502       -1.33336006287783        1.20557667212760
H            3.28074199068877        1.30268437308830       -1.29031395413631
H            5.68974826620615        0.97603846305453       -1.31394983072289
H            8.55966216226899       -4.70444418173416        0.03345831099878
H           10.33866092671913       -6.44816140117040        0.03544384886327
H           12.70677403539517       -5.75136915099446        0.06581041412912
H           13.31354624689765       -3.41345666531047        0.11249325693441
H           13.74580832751109       -1.51849410790728        0.28353485066560
H           14.28947036034852        0.83513183669097        0.44637981822930
H           12.49232655526236        2.53547830822834        0.48736010254206
H           10.15560081662978        1.83950508969690        0.31655019054879
H            8.69840486328926        1.60762889002888       -1.98198552170832
H            8.18138309565276        3.99130363574307       -2.07277743352742
H            5.94057484216876        7.13645034707959        0.82721244004586
H            6.73783583160058        5.95499727971715        1.85833712377535
H            5.18428122264337        5.57102923048673        1.09379490071087
H            5.06095689004377        5.19623336411110       -1.40306789422660
H            6.48049417239739        5.45726470506969       -2.41592469649936
H            5.72994689550365        6.81927730903441       -1.58877949116575
H            8.72027608263063        6.03844843996747       -1.32666116403427
H            7.97697369777378        7.39129884118186       -0.47979132781490
H            8.83531109171088        6.14484164758930        0.42901262370963
H            6.30020122448546        3.72022404524627        1.76075727653646
H            6.82350093462787        1.34414268938774        1.84215708219345
H            5.24655848341897       -2.57025342636405        1.02553386793773
H            2.80255233893640       -2.25411327218788        1.03925162795584
H           -2.81738749808318        2.27052527275902       -1.05924165538432
H           -5.25825048799212        2.59465491021297       -0.98638979914406
H           -8.55885594021422        4.70309964285397        0.29050369570650
H          -10.33855191586253        6.43812032365734        0.45790607773667
H          -12.70574717116714        5.73751002311061        0.46238155258420
H          -13.31162835420379        3.40538781993081        0.28801314751384
H          -13.74747551270885        1.52448327344456        0.00422285902645
H          -14.29376546105729       -0.81549659807861       -0.29253026544985
H          -12.49701049117497       -2.50435528385563       -0.49824442105944
H          -10.15700103367876       -1.81418513017403       -0.35342886783507
H           -6.83485549575382       -1.20728035667077       -1.91631066098524
H           -6.30772194660283       -3.58218793895152       -2.00119643447124

          :  Hamiltonian                  GFN2-xTB          :
         :: gradient norm              0.000055565295 Eh/a0 ::
         :: HOMO-LUMO gap              1.938735189156 eV    ::
         :: SCC energy              -205.245666308139 Eh    ::
         :: -> dispersion             -0.176946322584 Eh    ::
         :: repulsion energy           3.370742757765 Eh    ::

    * Orbital Energies and Occupations

         #    Occupation            Energy/Eh            Energy/eV
      -------------------------------------------------------------
         1        2.0000           -0.8447331             -22.9864
       ...           ...                  ...                  ...
       173        2.0000           -0.4124541             -11.2234
       174        2.0000           -0.4084137             -11.1135
       175        2.0000           -0.4057600             -11.0413
       176        2.0000           -0.4027996             -10.9607
       177        2.0000           -0.4008349             -10.9073
       178        2.0000           -0.3953248             -10.7573
       179        2.0000           -0.3950219             -10.7491
       180        2.0000           -0.3795593             -10.3283
       181        2.0000           -0.3794820             -10.3262
       182        2.0000           -0.3759014             -10.2288
       183        2.0000           -0.3759003             -10.2288
       184        2.0000           -0.3637997              -9.8995
       185        2.0000           -0.3628424              -9.8734 (HOMO)
       186                         -0.2915952              -7.9347 (LUMO)
       187                         -0.2656523              -7.2288
       188                         -0.2641240              -7.1872
       189                         -0.2539868              -6.9113
       190                         -0.2480930              -6.7510
       191                         -0.2475510              -6.7362
       192                         -0.2424714              -6.5980
       193                         -0.2384638              -6.4889
       194                         -0.2383542              -6.4859
       195                         -0.2371075              -6.4520
       196                         -0.2368075              -6.4439
       ...                                ...                  ...
       354                          0.7297027              19.8562
      -------------------------------------------------------------
                  HL-Gap            0.0712472 Eh            1.9387 eV

     #   Z          covCN         q      C6AA      α(0)
     1   6 C        3.762    -0.107    22.589     6.775
     2   6 C        3.903     0.026    20.077     6.369
     3   6 C        3.761    -0.106    22.579     6.774
     4   6 C        3.761    -0.110    22.654     6.785
     5   6 C        2.973     0.012    27.753     8.641
     6   6 C        2.928    -0.034    28.843     8.807
     7   6 C        2.919    -0.041    29.008     8.832
     8   6 C        2.913     0.061    26.626     8.461
     9   7 N        2.841    -0.043    22.059     6.976
    10   6 C        3.196     0.125    24.769     8.114
    11   6 C        2.974     0.009    27.818     8.652
    12   6 C        2.921    -0.033    28.810     8.802
    13   6 C        2.923    -0.027    28.671     8.781
    14   6 C        2.976     0.025    27.452     8.594
    15   6 C        2.972    -0.021    28.531     8.762
    16   6 C        2.786     0.140    24.931     8.179
    17   9 F        0.787    -0.189    11.120     3.939
    18   6 C        2.785     0.141    24.914     8.176
    19   9 F        0.787    -0.186    11.089     3.933
    20   6 C        2.972    -0.021    28.530     8.762
    21   6 C        2.976     0.025    27.451     8.594
    22   6 C        2.923    -0.027    28.669     8.781
    23   6 C        2.921    -0.033    28.819     8.803
    24   6 C        2.974     0.009    27.823     8.652
    25   6 C        3.195     0.125    24.782     8.117
    26   7 N        1.896    -0.290    28.355     7.894
    27   6 C        3.207     0.057    26.126     8.323
    28   6 C        2.986     0.003    27.955     8.673
    29   6 C        2.922    -0.031    28.776     8.797
    30   6 C        2.917    -0.030    28.751     8.793
    31   6 C        2.918    -0.033    28.815     8.803
    32   6 C        2.922    -0.035    28.865     8.811
    33   6 C        2.979    -0.001    28.054     8.688
    34   6 C        2.980     0.002    27.969     8.675
    35   6 C        2.922    -0.034    28.840     8.807
    36   6 C        2.916    -0.033    28.823     8.804
    37   6 C        2.917    -0.032    28.792     8.799
    38   6 C        2.919    -0.040    28.991     8.830
    39   6 C        2.978    -0.002    28.060     8.689
    40   6 C        3.076     0.021    27.452     8.590
    41   7 N        2.841    -0.043    22.060     6.976
    42   6 C        2.913     0.061    26.623     8.461
    43   6 C        2.919    -0.041    29.008     8.832
    44   6 C        2.928    -0.034    28.843     8.807
    45   6 C        2.973     0.012    27.754     8.641
    46   6 C        3.903     0.026    20.077     6.369
    47   6 C        3.761    -0.110    22.654     6.785
    48   6 C        3.762    -0.107    22.587     6.775
    49   6 C        3.761    -0.106    22.580     6.774
    50   6 C        2.925    -0.036    28.897     8.816
    51   6 C        2.920    -0.041    29.014     8.833
    52   6 C        2.928    -0.026    28.651     8.778
    53   6 C        2.921    -0.026    28.640     8.776
    54   6 C        2.786     0.140    24.929     8.178
    55   9 F        0.787    -0.189    11.119     3.939
    56   6 C        2.785     0.141    24.915     8.176
    57   9 F        0.787    -0.186    11.088     3.933
    58   6 C        2.921    -0.026    28.640     8.776
    59   6 C        2.927    -0.026    28.648     8.778
    60   7 N        1.895    -0.289    28.353     7.894
    61   6 C        3.208     0.057    26.121     8.321
    62   6 C        2.986     0.003    27.954     8.673
    63   6 C        2.922    -0.031    28.776     8.797
    64   6 C        2.917    -0.030    28.751     8.793
    65   6 C        2.917    -0.033    28.816     8.803
    66   6 C        2.922    -0.035    28.865     8.811
    67   6 C        2.979    -0.001    28.054     8.688
    68   6 C        2.980     0.002    27.969     8.675
    69   6 C        2.922    -0.034    28.840     8.807
    70   6 C        2.916    -0.033    28.824     8.804
    71   6 C        2.917    -0.032    28.792     8.799
    72   6 C        2.919    -0.040    28.993     8.830
    73   6 C        2.978    -0.002    28.059     8.689
    74   6 C        3.076     0.021    27.455     8.591
    75   6 C        2.921    -0.041    29.018     8.834
    76   6 C        2.925    -0.036    28.897     8.816
    77   1 H        0.925     0.037     2.493     2.469
    78   1 H        0.925     0.041     2.433     2.439
    79   1 H        0.925     0.037     2.485     2.465
    80   1 H        0.925     0.035     2.520     2.482
    81   1 H        0.925     0.037     2.486     2.465
    82   1 H        0.925     0.041     2.439     2.442
    83   1 H        0.925     0.037     2.493     2.469
    84   1 H        0.925     0.040     2.449     2.447
    85   1 H        0.925     0.040     2.445     2.445
    86   1 H        0.926     0.039     2.460     2.453
    87   1 H        0.926     0.039     2.458     2.452
    88   1 H        0.926     0.038     2.480     2.462
    89   1 H        0.926     0.046     2.376     2.410
    90   1 H        0.926     0.045     2.383     2.414
    91   1 H        0.926     0.038     2.478     2.462
    92   1 H        0.926     0.051     2.312     2.378
    93   1 H        0.926     0.030     2.581     2.512
    94   1 H        0.926     0.028     2.614     2.528
    95   1 H        0.926     0.031     2.578     2.511
    96   1 H        0.926     0.034     2.525     2.485
    97   1 H        0.926     0.029     2.605     2.524
    98   1 H        0.926     0.027     2.628     2.535
    99   1 H        0.926     0.028     2.620     2.531
   100   1 H        0.926     0.039     2.459     2.452
   101   1 H        0.926     0.039     2.461     2.453
   102   1 H        0.925     0.040     2.449     2.447
   103   1 H        0.925     0.037     2.491     2.468
   104   1 H        0.925     0.040     2.444     2.445
   105   1 H        0.925     0.037     2.489     2.467
   106   1 H        0.925     0.037     2.493     2.469
   107   1 H        0.925     0.041     2.433     2.439
   108   1 H        0.925     0.037     2.486     2.466
   109   1 H        0.925     0.041     2.439     2.442
   110   1 H        0.925     0.035     2.518     2.482
   111   1 H        0.926     0.048     2.339     2.392
   112   1 H        0.926     0.037     2.492     2.469
   113   1 H        0.926     0.062     2.171     2.304
   114   1 H        0.926     0.050     2.318     2.381
   115   1 H        0.926     0.051     2.311     2.377
   116   1 H        0.926     0.061     2.181     2.310
   117   1 H        0.926     0.051     2.311     2.377
   118   1 H        0.926     0.030     2.581     2.513
   119   1 H        0.926     0.028     2.615     2.529
   120   1 H        0.926     0.031     2.578     2.511
   121   1 H        0.926     0.034     2.526     2.485
   122   1 H        0.926     0.029     2.606     2.524
   123   1 H        0.926     0.027     2.629     2.535
   124   1 H        0.926     0.028     2.618     2.530
   125   1 H        0.926     0.036     2.496     2.471
   126   1 H        0.926     0.048     2.342     2.393

molecular dipole:
                 x           y           z       tot (Debye)
 q only:        0.012       0.001      -0.077
   full:        0.012       0.002      -0.093       0.239

 projected vibrational frequencies (cm⁻¹)
eigval :       -0.00    -0.00     0.00     0.00     0.00     0.00
eigval :        4.03     4.97     7.56     8.21    15.36    17.96
eigval :       19.29    20.35    24.01    25.93    27.20    32.34
eigval :       35.18    48.78    55.36    61.34    63.45    66.42
eigval :       67.60    76.59    79.69    80.93    86.19    93.02
eigval :       98.78   101.22   108.11   111.21   120.61   124.66
eigval :      137.42   142.51   155.34   166.82   171.76   172.26
eigval :      177.64   178.91   184.16   186.36   196.50   213.12
eigval :      213.76   224.10   226.51   228.35   237.80   245.72
eigval :      248.42   259.67   265.84   266.12   268.19   272.12
eigval :      281.24   294.33   296.61   309.18   312.42   317.25
eigval :      318.34   318.45   322.38   333.96   349.32   354.25
eigval :      359.99   363.39   370.32   372.78   378.81   379.57
eigval :      382.51   382.63   386.13   393.56   397.69   398.57
eigval :      403.80   409.02   410.31   416.19   421.87   422.66
eigval :      429.35   445.31   448.93   449.57   454.43   454.82
eigval :      464.58   470.37   476.61   482.77   483.91   502.24
eigval :      513.41   517.81   521.14   528.43   531.79   535.16
eigval :      535.22   547.28   547.53   584.94   584.97   586.09
eigval :      592.03   593.06   595.39   600.82   608.19   608.36
eigval :      627.93   640.67   648.38   652.84   653.26   655.30
eigval :      656.57   663.88   669.46   670.95   672.35   674.29
eigval :      682.09   682.61   695.09   697.98   700.77   704.05
eigval :      721.67   725.65   734.17   736.12   736.16   757.39
eigval :      757.56   766.09   766.17   779.70   782.73   782.87
eigval :      788.88   816.53   821.54   822.93   826.83   831.84
eigval :      862.83   862.89   870.51   870.79   870.80   871.03
eigval :      875.31   875.42   883.65   884.19   907.75   907.78
eigval :      912.87   913.00   913.32   914.60   914.66   919.78
eigval :      920.04   924.17   924.18   927.45   927.48   927.52
eigval :      927.68   929.10   929.44   940.27   940.42   954.33
eigval :      961.41   961.47   962.31   963.10   964.60   964.66
eigval :      965.39   972.83   998.99  1006.66  1015.55  1019.01
eigval :     1033.74  1035.07  1035.81  1035.94  1036.26  1037.92
eigval :     1074.21  1074.26  1086.14  1086.15  1089.77  1108.47
eigval :     1108.48  1121.59  1135.35  1135.76  1141.67  1141.74
eigval :     1145.79  1146.01  1146.51  1147.17  1153.26  1153.38
eigval :     1175.06  1175.27  1183.15  1183.15  1186.49  1186.51
eigval :     1201.42  1201.48  1205.03  1207.55  1215.75  1215.91
eigval :     1228.03  1228.13  1228.91  1234.21  1234.22  1253.44
eigval :     1253.86  1256.84  1258.07  1258.43  1273.82  1274.39
eigval :     1275.45  1275.68  1284.22  1284.27  1287.11  1287.13
eigval :     1303.37  1308.15  1308.47  1316.63  1316.91  1321.11
eigval :     1322.24  1329.78  1330.08  1338.95  1338.99  1347.63
eigval :     1347.81  1378.83  1379.02  1397.69  1398.36  1399.50
eigval :     1400.62  1404.08  1406.37  1406.66  1406.67  1407.19
eigval :     1410.91  1410.95  1422.26  1422.70  1430.49  1430.52
eigval :     1432.79  1433.39  1435.94  1436.89  1441.27  1445.92
eigval :     1470.41  1480.82  1491.10  1491.67  1491.70  1492.31
eigval :     1493.43  1493.45  1502.21  1502.37  1506.20  1506.31
eigval :     1513.17  1513.73  1514.41  1514.42  1516.86  1517.48
eigval :     1518.80  1518.82  1534.31  1541.40  1543.50  1558.14
eigval :     1559.09  1563.78  1563.97  1564.11  1569.37  1569.58
eigval :     1570.22  1570.51  1592.30  1594.64  1595.04  1597.63
eigval :     1600.87  1601.04  1604.72  1604.77  3026.30  3026.35
eigval :     3027.87  3027.90  3029.98  3030.01  3032.72  3032.85
eigval :     3035.06  3035.10  3038.28  3038.32  3042.13  3042.16
eigval :     3046.69  3046.80  3050.49  3050.54  3072.31  3072.33
eigval :     3075.57  3075.59  3080.85  3081.13  3083.96  3083.97
eigval :     3086.16  3086.20  3086.77  3087.16  3093.11  3093.66
eigval :     3095.90  3095.98  3096.84  3097.18  3097.23  3097.56
eigval :     3105.39  3105.41  3108.56  3110.41  3110.91  3110.95
eigval :     3112.70  3113.23  3114.85  3114.86  3125.08  3125.18

   temp. (K)  partition function   enthalpy   heat capacity  entropy
                                   cal/mol     cal/K/mol   cal/K/mol   J/K/mol
 298.15  VIB  0.497E+33            38989.649    237.213    246.892
         ROT  0.526E+09              888.752      2.981     42.885
         INT  0.261E+42            39878.402    240.194    289.777
         TR   0.306E+29             1481.254      4.968     46.558
         TOT                       41359.6555   245.1618   336.3345  1407.2235

       T/K    H(0)-H(T)+PV         H(T)/Eh          T*S/Eh         G(T)/Eh
   ------------------------------------------------------------------------
    298.15    0.659108E-01    0.103809E+01    0.159803E+00    0.878288E+00
   ------------------------------------------------------------------------

         :::::::::::::::::::::::::::::::::::::::::::::::::::::
         ::                  THERMODYNAMIC                  ::
         :::::::::::::::::::::::::::::::::::::::::::::::::::::
         :: total free energy        -200.996635198700 Eh   ::
         ::.................................................::
         :: total energy             -201.874923550371 Eh   ::
         :: zero point energy           0.972180916308 Eh   ::
         :: G(RRHO) w/o ZPVE           -0.093892564637 Eh   ::
         :: G(RRHO) contrib.            0.878288351671 Eh   ::
         :::::::::::::::::::::::::::::::::::::::::::::::::::::

           -------------------------------------------------
          | TOTAL ENERGY             -201.874923550371 Eh   |
          | TOTAL ENTHALPY           -200.836831827543 Eh   |
          | TOTAL FREE ENERGY        -200.996635198700 Eh   |
          | GRADIENT NORM               0.000055562112 Eh/α |
          | HOMO-LUMO GAP               1.938735340375 eV   |
           -------------------------------------------------

 * finished run on 2025/07/19 at 01:58:25.464
