   * xtb version 6.7.1 (edcfbbe) compiled by 'albert@albert-system' on 2024-07-22

   ID    Z sym.   atoms
    1    6 C      1-8, 10-16, 18, 20-25, 27-40, 42-54, 56, 58, 59, 61-76
    2    7 N      9, 26, 41, 60
    3    9 F      17, 19, 55, 57
    4    1 H      77-126

          program call               : xtb data2507/gas/4FBTPI/4FBTPI_gas_S0_finalOpt.xtbopt.xyz --gfn 2 --spinpol --tblite --uhf 2 --ohess vtight --parallel 40 --molden --ceasefiles --namespace data2507/gas/4FBTPI/4FBTPI_gas_T1_preOpt
 * total energy  :  -201.7878447 Eh     change        0.4959645E-07 Eh
 * total energy  :  -201.7926100 Eh     change       -0.4765349E-02 Eh
 * total energy  :  -201.7952990 Eh     change       -0.2688952E-02 Eh
 * total energy  :  -201.7960954 Eh     change       -0.7963955E-03 Eh
 * total energy  :  -201.7969854 Eh     change       -0.8900903E-03 Eh
 * total energy  :  -201.7974736 Eh     change       -0.4881286E-03 Eh
 * total energy  :  -201.7977091 Eh     change       -0.2355577E-03 Eh
 * total energy  :  -201.7978131 Eh     change       -0.1040073E-03 Eh
 * total energy  :  -201.7978713 Eh     change       -0.5812426E-04 Eh
 * total energy  :  -201.7979058 Eh     change       -0.3448728E-04 Eh
 * total energy  :  -201.7982384 Eh     change       -0.1135430E-05 Eh
 * total energy  :  -201.7982395 Eh     change       -0.1058428E-05 Eh
 * total energy  :  -201.7982403 Eh     change       -0.8081025E-06 Eh
 * total energy  :  -201.7982410 Eh     change       -0.6795015E-06 Eh
 * total energy  :  -201.7982417 Eh     change       -0.7562550E-06 Eh
 * total energy  :  -201.7982427 Eh     change       -0.9314324E-06 Eh
 * total energy  :  -201.7982436 Eh     change       -0.9755007E-06 Eh
 * total energy  :  -201.7982445 Eh     change       -0.8666296E-06 Eh
 * total energy  :  -201.7982445 Eh     change       -0.7101193E-08 Eh
   *** GEOMETRY OPTIMIZATION CONVERGED AFTER 68 ITERATIONS ***

 final structure:
================
126
 xtb: 6.7.1 (edcfbbe)
C           -6.06670010069277       -5.95081464387006        1.08862765698024
C           -7.05342436386468       -5.65110826960445       -0.04894871662391
C           -8.36155394838221       -6.42302200536774        0.17510860218604
C           -6.43005895458020       -6.13504900178240       -1.36066106614951
C           -7.34999994750959       -4.16081890235110       -0.05695265731590
C           -7.92575027399823       -3.57136353743365        1.06822499823388
C           -8.19037572390860       -2.21804839517539        1.12149686098282
C           -7.88294092423105       -1.41216957843736        0.03010643055381
N           -8.10074443611144       -0.01918362282606        0.08268846885836
C           -7.10216373353302        0.94826041748653        0.09922413756391
C           -5.69592842220409        0.71425096724312        0.14251652503849
C           -5.09011822213029       -0.47910239528648        0.58528093317506
C           -3.73243387056852       -0.63034686539081        0.55846308264035
C           -2.87596799268334        0.39822725678173        0.09901695507005
C           -1.45750669035306        0.20918430388439        0.03825098329593
C           -0.85188430894020       -1.05479993573637       -0.19904527027516
F           -1.63368211896502       -2.12228346443704       -0.47152306349260
C            0.50191316813504       -1.24498019271720       -0.25430982074931
F            0.93661483004706       -2.48246697995623       -0.57199304039724
C            1.44577527462496       -0.19654335038529       -0.08355121617107
C            2.86360242969382       -0.38777495746842       -0.13334226291331
C            3.72674942023503        0.63795517550204       -0.58825890828857
C            5.08410185165163        0.48548390303115       -0.59970079030758
C            5.68495813533356       -0.70577055783823       -0.14216855104679
C            7.08850985329773       -0.94158390204639       -0.07423696654567
N            7.59923501743176       -2.16459462619882       -0.00065745160387
C            8.93197148200156       -2.02053052200642        0.02739863077272
C            9.92050962371500       -3.04321821211656        0.06655141911891
C            9.55732075569462       -4.39374218480157        0.06102534185387
C           10.52259533647847       -5.37143859005829        0.07373000949030
C           11.86512671153497       -5.00344061611326        0.08773146845894
C           12.23303121699522       -3.67570922506411        0.09741217951788
C           11.27819209905627       -2.64960909952305        0.09315723432313
C           11.63286119284236       -1.23949741731266        0.12948325384283
C           12.96547293195169       -0.82170218502936        0.22137106348809
C           13.31280266493035        0.50897878292606        0.28660908752408
C           12.32589843906975        1.49011568513228        0.27507124951850
C           11.00634189058231        1.12526966090169        0.18103577266845
C           10.63017044987081       -0.22608880158837        0.09323841168884
C            9.28220988135625       -0.65495238003389       -0.00388834153141
N            8.09347012836367        0.02034147982738       -0.07695388581641
C            7.88916070425773        1.41653841252821       -0.08119412311763
C            8.20027960533981        2.17213935447481       -1.20698308773287
C            7.95241368473311        3.52964839932405       -1.20921455046111
C            7.39050959631151        4.17273930567061       -0.10663877574793
C            7.11289059336558        5.66512604480719       -0.17548004265767
C            6.50063561608120        6.21102135022394        1.11700295450869
C            6.12600127572333        5.93047427886204       -1.32142575748526
C            8.43009161399141        6.40988819540470       -0.43548186107847
C            7.09852681237139        3.40113945202355        1.01216316849992
C            7.34331397785058        2.03971269580340        1.03161076498120
C            4.82528714814907       -1.75673102988015        0.25447851817436
C            3.46962977967945       -1.60628717860839        0.26091373112154
C            0.83992678092514        1.06826905104833        0.14950160677437
F            1.62155419284946        2.13671508307314        0.41834689791209
C           -0.51395513731795        1.25804037122570        0.20618254704354
F           -0.94807772694208        2.49617368172268        0.52193817238080
C           -3.48705934489578        1.61697753106279       -0.28442607360597
C           -4.84315591456300        1.76720720403419       -0.25959614969721
N           -7.61902158294395        2.16941581761773        0.07512615800948
C           -8.95216257027113        2.01847241226298        0.06161159538376
C           -9.94640527773544        3.03610068159436        0.07558786064563
C           -9.59040521963588        4.38767167463012        0.12613527280607
C          -10.56098527881223        5.35924058767393        0.16651230203097
C          -11.90163933273589        4.98402427014511        0.16109030886213
C          -12.26254046736516        3.65549637874441        0.10703715860301
C          -11.30223451555319        2.63573901677609        0.05626825034873
C          -11.64978327564009        1.22596928256187       -0.02862795507885
C          -12.98137998406958        0.80407540249345       -0.11788754881713
C          -13.32224964523943       -0.52508452153597       -0.23002964197792
C          -12.32992067299959       -1.49983792286531       -0.27122803365222
C          -11.01112908114691       -1.13089925806754       -0.18145713138044
C          -10.64139533877252        0.21804948251109       -0.04550449112945
C           -9.29425375906063        0.65106320728393        0.04962614971655
C           -7.32317429071195       -1.98154477008801       -1.10437001872968
C           -7.06157693738090       -3.33943061450621       -1.14063061645907
H           -6.48245789972023       -5.68689712828227        2.05719529835196
H           -5.82266948334487       -7.01065577716128        1.10081789288210
H           -5.14722052571692       -5.38725778629182        0.94556390252676
H           -9.07394793319041       -6.19406774170648       -0.61500112218253
H           -8.81637995305591       -6.17017537292857        1.12886939206904
H           -8.16849441936349       -7.49335145141657        0.16484247371138
H           -7.09897895486972       -5.96295040368394       -2.20089602111749
H           -6.24107746364257       -7.20454617875977       -1.29700748991494
H           -5.48122086685104       -5.63880162560533       -1.54957829851678
H           -8.16768240511015       -4.17256396315641        1.93102682170416
H           -8.62821240267490       -1.77637532417146        2.00508484976264
H           -5.69100422476280       -1.27480789977227        0.99491260895166
H           -3.30777368642597       -1.54331736912008        0.94288270622938
H            3.30692906840576        1.54946676433211       -0.98142833407471
H            5.68953941935990        1.27888741068267       -1.00670419414414
H            8.50551816988526       -4.63237356480237        0.04082328382411
H           10.24741876083858       -6.41540786221658        0.06861043760341
H           12.62975037263181       -5.76670859067250        0.09108607020624
H           13.28573470685009       -3.44209416732688        0.10541162234041
H           13.75642730618397       -1.55344265292961        0.25054851619398
H           14.35295046659170        0.79051130726382        0.35672117085335
H           12.59573954404948        2.53337290088299        0.34307761310456
H           10.24406051551990        1.88736706599091        0.18665826114213
H            8.62807539969201        1.68838002541641       -2.07323115922120
H            8.19686888687505        4.09121018554950       -2.09761900844815
H            6.32417740624735        7.27912128382539        1.00925940357217
H            7.17081728081028        6.06621699517982        1.96136203457226
H            5.54672804379393        5.73459112991532        1.32993723641973
H            5.20002039664309        5.38491236696835       -1.15277022808238
H            6.53497400521308        5.62205702220543       -2.27967081492780
H            5.89520652628698        6.99192588778969       -1.37621557136972
H            8.87842615820545        6.11113360820560       -1.37899292105908
H            8.25086723675321        7.48212295691986       -0.46980162722093
H            9.14212131499061        6.20515779063252        0.36157537595942
H            6.66727400775495        3.84904893331141        1.89133289191340
H            7.09983739193495        1.45277250179920        1.90469829918326
H            5.27998380566688       -2.67793133441637        0.58224958526569
H            2.85578811252464       -2.41749816955020        0.61565809332781
H           -2.87826778800335        2.42992068207394       -0.64382445322566
H           -5.30198651755465        2.69018345756998       -0.57661570674363
H           -8.53969368710717        4.63161828331404        0.13822217550584
H          -10.29139769617594        6.40391629465707        0.20669750107709
H          -12.67023864177277        5.74231542616989        0.19972791282244
H          -13.31394910181422        3.41595786508011        0.10807359052875
H          -13.77658915431396        1.53170634135415       -0.10773513295981
H          -14.36173679797672       -0.80999060289761       -0.29636522609213
H          -12.59489665408287       -2.54122735787578       -0.37674299757390
H          -10.24471670695739       -1.88743862647115       -0.22859241180216
H           -7.08224476674351       -1.35561414201431       -1.95069054459625
H           -6.61982146669421       -3.74463275330431       -2.03515755993801

 projected vibrational frequencies (cm⁻¹)
eigval :       -0.00    -0.00    -0.00    -0.00    -0.00     0.00
eigval :       -3.18     3.53     7.15     8.20    14.35    16.90
eigval :       18.70    20.52    22.65    24.51    28.02    33.48
eigval :       35.01    49.04    52.21    59.77    61.04    65.70
eigval :       65.83    75.53    76.99    84.14    86.63    88.72
eigval :       97.01   103.79   106.40   114.00   121.96   124.26
eigval :      133.40   141.68   153.96   161.92   172.92   173.31
eigval :      178.30   178.43   184.94   188.92   196.40   213.26
eigval :      215.05   216.87   227.53   227.67   239.35   247.43
eigval :      253.47   259.52   262.13   263.38   271.36   279.37
eigval :      282.94   288.90   293.67   308.68   310.39   318.06
eigval :      318.20   321.66   334.66   335.65   336.27   340.67
eigval :      359.31   359.61   368.45   372.78   380.30   380.75
eigval :      382.79   383.49   387.23   389.90   394.84   395.55
eigval :      396.23   401.50   403.99   404.37   411.14   415.78
eigval :      423.03   426.78   442.76   443.25   445.69   453.29
eigval :      460.57   462.13   466.05   475.48   479.09   485.55
eigval :      492.19   510.65   511.14   519.94   521.09   529.75
eigval :      529.96   545.61   546.14   548.28   580.25   583.55
eigval :      583.65   588.53   589.64   597.76   602.81   605.89
eigval :      606.63   614.74   639.45   640.50   643.56   646.99
eigval :      648.95   658.11   665.14   665.39   667.97   668.46
eigval :      677.29   677.53   683.22   686.73   695.39   698.71
eigval :      720.36   722.72   729.55   734.73   735.00   750.40
eigval :      756.11   761.66   761.96   775.37   778.72   778.90
eigval :      784.85   787.17   815.48   816.61   819.78   821.46
eigval :      830.02   838.20   858.76   858.98   868.02   868.33
eigval :      871.51   871.70   879.88   882.88   903.25   905.70
eigval :      905.86   907.41   910.97   911.13   914.18   914.21
eigval :      915.90   916.21   919.83   920.70   920.71   920.90
eigval :      925.07   925.16   927.05   927.33   934.63   938.94
eigval :      943.11   959.91   961.05   961.09   962.86   963.60
eigval :      964.29   964.37   980.14   994.25   999.11  1005.51
eigval :     1009.31  1023.56  1034.89  1035.00  1035.38  1035.43
eigval :     1051.42  1071.84  1073.06  1075.04  1084.61  1084.68
eigval :     1105.58  1106.42  1115.98  1120.96  1131.91  1140.02
eigval :     1140.33  1144.71  1144.94  1147.50  1148.03  1155.04
eigval :     1156.48  1165.66  1166.28  1181.26  1181.30  1184.47
eigval :     1184.68  1197.77  1198.17  1212.11  1214.20  1218.08
eigval :     1227.64  1227.67  1233.29  1233.72  1233.81  1236.73
eigval :     1248.84  1251.10  1254.81  1254.96  1263.58  1273.48
eigval :     1273.68  1274.17  1275.41  1281.05  1283.38  1285.12
eigval :     1285.42  1291.02  1291.77  1309.50  1310.16  1313.09
eigval :     1313.68  1320.14  1335.78  1335.98  1336.81  1338.62
eigval :     1338.99  1348.80  1352.06  1379.37  1382.42  1387.17
eigval :     1395.78  1397.75  1398.00  1398.91  1399.46  1405.36
eigval :     1405.40  1409.64  1409.68  1418.53  1424.09  1428.77
eigval :     1428.80  1430.70  1431.23  1433.11  1441.32  1444.84
eigval :     1448.55  1453.20  1455.04  1456.56  1474.23  1480.09
eigval :     1487.88  1488.32  1490.03  1490.04  1490.35  1491.73
eigval :     1491.73  1499.10  1499.31  1502.45  1502.70  1506.15
eigval :     1506.53  1512.71  1512.72  1517.00  1517.02  1528.24
eigval :     1531.69  1545.08  1548.62  1549.87  1550.69  1558.81
eigval :     1567.03  1567.32  1567.56  1579.36  1581.04  1588.36
eigval :     1591.99  1592.39  1598.36  1598.44  3025.72  3025.74
eigval :     3027.37  3027.38  3030.01  3030.01  3033.01  3033.09
eigval :     3034.96  3034.99  3038.00  3038.04  3042.26  3042.27
eigval :     3046.25  3046.27  3049.50  3049.52  3075.94  3076.04
eigval :     3079.48  3079.62  3081.00  3081.36  3088.34  3088.43
eigval :     3089.23  3089.46  3089.94  3090.17  3096.36  3096.54
eigval :     3099.29  3099.37  3106.84  3107.53  3108.10  3108.43
eigval :     3108.54  3109.10  3112.06  3112.26  3120.01  3120.75
eigval :     3121.16  3121.50  3122.52  3122.72  3126.09  3126.21

   temp. (K)  partition function   enthalpy   heat capacity  entropy
                                   cal/mol     cal/K/mol   cal/K/mol   J/K/mol
 298.15  VIB  0.176E+34            39310.338    239.195    249.407
         ROT  0.539E+09              888.752      2.981     42.933
         INT  0.950E+42            40199.091    242.176    292.341
         TR   0.306E+29             1481.254      4.968     46.558
         TOT                       41680.3447   247.1444   338.8987  1417.9521

       T/K    H(0)-H(T)+PV         H(T)/Eh          T*S/Eh         G(T)/Eh
   ------------------------------------------------------------------------
    298.15    0.664219E-01    0.103399E+01    0.161022E+00    0.872970E+00
   ------------------------------------------------------------------------

         :::::::::::::::::::::::::::::::::::::::::::::::::::::
         ::                  THERMODYNAMIC                  ::
         :::::::::::::::::::::::::::::::::::::::::::::::::::::
         :: total free energy        -200.925274219290 Eh   ::
         ::.................................................::
         :: total energy             -201.798244381323 Eh   ::
         :: zero point energy           0.967570000625 Eh   ::
         :: G(RRHO) w/o ZPVE           -0.094599838592 Eh   ::
         :: G(RRHO) contrib.            0.872970162033 Eh   ::
         :::::::::::::::::::::::::::::::::::::::::::::::::::::

           -------------------------------------------------
          | TOTAL ENERGY             -201.798244381323 Eh   |
          | TOTAL ENTHALPY           -200.764252523538 Eh   |
          | TOTAL FREE ENERGY        -200.925274219290 Eh   |
          | GRADIENT NORM               0.000072333889 Eh/α |
           -------------------------------------------------

 * finished run on 2025/07/19 at 01:59:03.482
