   * xtb version 6.7.1 (edcfbbe) compiled by 'albert@albert-system' on 2024-07-22

   ID    Z sym.   atoms
    1    6 C      1-8, 10-16, 18, 20-25, 27-40, 42-54, 56, 58, 59, 61-76
    2    7 N      9, 26, 41, 60
    3    9 F      17, 19, 55, 57
    4    1 H      77-126

          program call               : xtb data2507/gas/4FBTPI/4FBTPI.xyz --gfn 2 --ohess vtight --parallel 40 --molden --ceasefiles --namespace data2507/gas/4FBTPI/4FBTPI_gas_S0_preOpt
          :  Hamiltonian                  GFN2-xTB          :
 * total energy  :  -201.8414496 Eh     change       -0.1830159E-08 Eh
 * total energy  :  -201.8594338 Eh     change       -0.1798418E-01 Eh
 * total energy  :  -201.8646160 Eh     change       -0.5182238E-02 Eh
 * total energy  :  -201.8663900 Eh     change       -0.1773977E-02 Eh
 * total energy  :  -201.8676863 Eh     change       -0.1296282E-02 Eh
 * total energy  :  -201.8684937 Eh     change       -0.8074341E-03 Eh
 * total energy  :  -201.8691205 Eh     change       -0.6268345E-03 Eh
 * total energy  :  -201.8696182 Eh     change       -0.4976665E-03 Eh
 * total energy  :  -201.8700068 Eh     change       -0.3885883E-03 Eh
 * total energy  :  -201.8703231 Eh     change       -0.3162649E-03 Eh
 * total energy  :  -201.8740602 Eh     change       -0.7670324E-06 Eh
 * total energy  :  -201.8740610 Eh     change       -0.7234419E-06 Eh
 * total energy  :  -201.8740617 Eh     change       -0.6981091E-06 Eh
 * total energy  :  -201.8740624 Eh     change       -0.7158473E-06 Eh
 * total energy  :  -201.8740632 Eh     change       -0.8015426E-06 Eh
 * total energy  :  -201.8740640 Eh     change       -0.8498524E-06 Eh
 * total energy  :  -201.8740649 Eh     change       -0.8349897E-06 Eh
 * total energy  :  -201.8740657 Eh     change       -0.8356181E-06 Eh
 * total energy  :  -201.8740657 Eh     change       -0.7245234E-08 Eh
   *** GEOMETRY OPTIMIZATION CONVERGED AFTER 94 ITERATIONS ***

 final structure:
================
126
 xtb: 6.7.1 (edcfbbe)
C           -6.60391570520239        5.58085602511400       -1.49603075332415
C           -7.31418059296353        5.10488072301585       -0.22609497289613
C           -8.68816186394665        5.78689452876849       -0.16089745691265
C           -6.46538371943929        5.52338023428288        0.98291824554685
C           -7.50951009401664        3.59794202078999       -0.19415335521357
C           -7.08405081857323        2.75843941531086       -1.21675501670216
C           -7.27807899273247        1.38979106398973       -1.15315408751048
C           -7.90839610254150        0.82786996236638       -0.05318714409316
N           -8.07183331286796       -0.56985344240295        0.02923503818423
C           -7.04449629918787       -1.48376205864795        0.11010347638592
C           -5.63082864580495       -1.15367033040982        0.14561713036819
C           -5.12767368308697       -0.00302644281048        0.75145188783516
C           -3.77089762518096        0.24671013560365        0.75595878772263
C           -2.88273544924462       -0.64322865390681        0.15645006827098
C           -1.43905507943488       -0.36349723100180        0.14962821060462
C           -0.76190536542634        0.05741444850761        1.29449492375818
F           -1.42929942394412        0.18555809258579        2.45219103446637
C            0.59912438629791        0.32291780252147        1.28520329150092
F            1.18364814921305        0.68852419284329        2.43722045520079
C            1.37069904331238        0.19010395805484        0.12945622936748
C            2.80989289160644        0.48939743886729        0.11902481865901
C            3.70861778607178       -0.35867810510573       -0.52410126992704
C            5.06026226840604       -0.08085522606861       -0.53174049261614
C            5.55201756034653        1.05374345218575        0.11312629686258
C            6.95402783731781        1.42614200239560        0.14987431238484
N            7.34108191016315        2.67570500554186        0.26209624015964
C            8.69585573742925        2.65294311355665        0.25962779433356
C            9.58857527689755        3.75937591677551        0.32442533245280
C            9.11085674472081        5.07195321459077        0.39256793214875
C            9.98753212283202        6.12739488380348        0.42775187076727
C           11.35806192518162        5.87927332980739        0.39102219707668
C           11.83842314817576        4.59195330891570        0.32868870790080
C           10.97492854876387        3.48621126418544        0.29941710764974
C           11.45108857418707        2.11353430993666        0.26420628712527
C           12.81919869501855        1.81032264474256        0.30615967519377
C           13.28028134642634        0.51515352394944        0.31213642030482
C           12.38108652692272       -0.54581079214359        0.29115741827398
C           11.03240628484003       -0.29275705826201        0.24271077700599
C           10.54242139037949        1.02061947396382        0.21060311090319
C            9.15583407648711        1.33951976396340        0.15921823754245
N            8.02476932407618        0.56218333247381        0.07764670489872
C            7.94331319951071       -0.84033890536246       -0.04596972549995
C            7.43961150331686       -1.60516080927869        0.99822126058817
C            7.33157956897042       -2.97397997580075        0.85452792443870
C            7.71798620466871       -3.61970245573837       -0.31848227321902
C            7.56857124614459       -5.12849590972358       -0.42478444220766
C            8.05037716147021       -5.67649462408651       -1.77076681004871
C            6.08576470887694       -5.49183292555028       -0.26191926741970
C            8.39440436943795       -5.79309673122699        0.68574914496614
C            8.22356313466473       -2.83668172106171       -1.35077878350306
C            8.33461159491776       -1.46397439221141       -1.22381531507436
C            4.64483963664407        1.91602312157932        0.73551310446490
C            3.29663295611068        1.63890420057116        0.74247216946153
C            0.69280702076985       -0.23302027614552       -1.01494499444303
F            1.35626295888663       -0.35640809640206       -2.17567951923461
C           -0.66744920897513       -0.50288220237511       -1.00432152544852
F           -1.25371996525705       -0.87527610607349       -2.15340365641424
C           -3.38171481618109       -1.80645822600183       -0.42880028197593
C           -4.73553751363039       -2.05996428805604       -0.42635044921857
N           -7.48654362481993       -2.71754989453615        0.15789949916159
C           -8.83974794387116       -2.63288969683757        0.11577918079747
C           -9.78390147559810       -3.69553705441117        0.18172990302164
C           -9.36998105467429       -5.02460037337290        0.31668359977014
C          -10.29654931440623       -6.03285884135907        0.40924766218268
C          -11.65378651652436       -5.71992548439126        0.37189961718505
C          -12.07153544952138       -4.41677377816773        0.23412723392145
C          -11.15556011604447       -3.35908688876465        0.12713191665031
C          -11.56447573546459       -1.97615245925106       -0.05194680288326
C          -12.91423404397497       -1.62102684974889       -0.18479451309842
C          -13.30996743554806       -0.32137690926717       -0.39540261880753
C          -12.36002084432744        0.68938120764711       -0.49923941611714
C          -11.02747452461683        0.38560880271055       -0.36771057957753
C          -10.60466689479962       -0.92927867021659       -0.12614129924387
C           -9.23749563804348       -1.29916799789432        0.01873586479944
C           -8.33892258446114        1.65025728186915        0.98287476594244
C           -8.14126119027026        3.01340414100184        0.90306290989597
H           -6.49092742323393        6.66240728440636       -1.46252151278377
H           -5.61174636397267        5.14317026717661       -1.57829172107597
H           -7.17968995524235        5.33225059820731       -2.38452735918144
H           -9.21395661101631        5.53696400725533        0.75637591612194
H           -9.30304237660028        5.47536155730664       -1.00284145170699
H           -8.57058574760601        6.86745265736098       -0.20142632283059
H           -6.95392341862078        5.27088901358348        1.91983547235897
H           -6.29757397044721        6.59792019425160        0.96657505458751
H           -5.49942973261588        5.02330401827904        0.95553169340848
H           -6.59150158839254        3.15810660177925       -2.08726661351462
H           -6.93789094736493        0.75212738242860       -1.95575484101115
H           -5.78935688923418        0.69397153686228        1.24105162679948
H           -3.39925093259592        1.14730594635258        1.22033499174006
H            3.35088521487187       -1.25038558890361       -1.01547538034272
H            5.72402934861136       -0.74543442834809       -1.06099967355564
H            8.04224418670022        5.21942224844831        0.41018537702262
H            9.62356920438269        7.14291828728066        0.47920344321777
H           12.05247885920791        6.70687401622832        0.41178530104713
H           12.90711830347911        4.45020306861500        0.29963895233705
H           13.54407682379103        2.60727236406080        0.34341140110741
H           14.34236980173275        0.32158157810628        0.34509390094998
H           12.74042961393512       -1.56396721819370        0.31689439811049
H           10.33895243524619       -1.11845869095270        0.24336576996285
H            7.13108328254649       -1.12155051232869        1.91321337048842
H            6.93589369417053       -3.54362673598013        1.68094870873963
H            7.92227366618257       -6.75673056263290       -1.78709729609135
H            9.10519943147705       -5.46238029148676       -1.92683318610360
H            7.47447781820659       -5.25964759858575       -2.59376295666622
H            5.49291396240221       -5.00996566205651       -1.03671343858341
H            5.70289198564489       -5.17749882773863        0.70500014762351
H            5.95398481765422       -6.56817086543035       -0.34676206071316
H            8.04880885887461       -5.49601582822617        1.67185614128036
H            8.31695092483700       -6.87543278614720        0.61087465025397
H            9.44240656913358       -5.51549313754489        0.59311400740393
H            8.53703140501678       -3.28501386313791       -2.27876235782748
H            8.72740781184318       -0.86930939754359       -2.03587939533976
H            5.02776108797180        2.80626859989528        1.20821220653101
H            2.61289691797188        2.32291303171944        1.22094692259767
H           -2.70341055487028       -2.51822002107616       -0.87369743448977
H           -5.12868780637907       -2.96242773809276       -0.86671150832924
H           -8.30975513989781       -5.22141217131955        0.35127477381444
H           -9.98193445206328       -7.06059065816820        0.51509279776213
H          -12.38739069888693       -6.50922435924826        0.45202705761692
H          -13.13233379743841       -4.22346255854134        0.21342260809276
H          -13.67642402208920       -2.38142539151656       -0.13129264145656
H          -14.35980391416015       -0.08698538688605       -0.49295510773611
H          -12.66732354161329        1.70764115396552       -0.68672970616082
H          -10.29383586860931        1.16963144588501       -0.46697733788863
H           -8.82826108764717        1.21413528976777        1.84181971456972
H           -8.48616834019306        3.62758167617622        1.72050794198106

          :  Hamiltonian                  GFN2-xTB          :
         :: gradient norm              0.000060439421 Eh/a0 ::
         :: HOMO-LUMO gap              1.958045188950 eV    ::
         :: SCC energy              -205.244518711802 Eh    ::
         :: -> dispersion             -0.176271102972 Eh    ::
         :: repulsion energy           3.370453002772 Eh    ::

    * Orbital Energies and Occupations

         #    Occupation            Energy/Eh            Energy/eV
      -------------------------------------------------------------
         1        2.0000           -0.8437336             -22.9592
       ...           ...                  ...                  ...
       173        2.0000           -0.4125054             -11.2248
       174        2.0000           -0.4087900             -11.1237
       175        2.0000           -0.4056003             -11.0369
       176        2.0000           -0.4032901             -10.9741
       177        2.0000           -0.4021349             -10.9426
       178        2.0000           -0.3959194             -10.7735
       179        2.0000           -0.3951530             -10.7527
       180        2.0000           -0.3800458             -10.3416
       181        2.0000           -0.3795993             -10.3294
       182        2.0000           -0.3761524             -10.2356
       183        2.0000           -0.3759857             -10.2311
       184        2.0000           -0.3639728              -9.9042
       185        2.0000           -0.3629342              -9.8759 (HOMO)
       186                         -0.2909774              -7.9179 (LUMO)
       187                         -0.2648218              -7.2062
       188                         -0.2643684              -7.1938
       189                         -0.2541344              -6.9153
       190                         -0.2484087              -6.7595
       191                         -0.2477849              -6.7426
       192                         -0.2425248              -6.5994
       193                         -0.2399828              -6.5303
       194                         -0.2391959              -6.5089
       195                         -0.2383409              -6.4856
       196                         -0.2378464              -6.4721
       ...                                ...                  ...
       354                          0.7295790              19.8529
      -------------------------------------------------------------
                  HL-Gap            0.0719568 Eh            1.9580 eV

     #   Z          covCN         q      C6AA      α(0)
     1   6 C        3.761    -0.109    22.638     6.783
     2   6 C        3.903     0.026    20.079     6.370
     3   6 C        3.762    -0.107    22.581     6.774
     4   6 C        3.762    -0.107    22.583     6.774
     5   6 C        2.973     0.011    27.771     8.644
     6   6 C        2.925    -0.037    28.918     8.819
     7   6 C        2.920    -0.041    29.028     8.835
     8   6 C        2.913     0.062    26.610     8.459
     9   7 N        2.841    -0.043    22.060     6.976
    10   6 C        3.195     0.126    24.770     8.115
    11   6 C        2.974     0.009    27.824     8.652
    12   6 C        2.921    -0.033    28.814     8.803
    13   6 C        2.923    -0.027    28.674     8.781
    14   6 C        2.977     0.025    27.443     8.593
    15   6 C        2.972    -0.021    28.537     8.762
    16   6 C        2.785     0.141    24.919     8.177
    17   9 F        0.787    -0.187    11.100     3.936
    18   6 C        2.786     0.140    24.925     8.178
    19   9 F        0.787    -0.187    11.099     3.935
    20   6 C        2.972    -0.021    28.531     8.762
    21   6 C        2.976     0.024    27.454     8.595
    22   6 C        2.922    -0.027    28.680     8.782
    23   6 C        2.920    -0.034    28.846     8.808
    24   6 C        2.974     0.008    27.833     8.654
    25   6 C        3.191     0.125    24.808     8.124
    26   7 N        1.897    -0.290    28.360     7.895
    27   6 C        3.204     0.058    26.139     8.328
    28   6 C        2.986     0.003    27.955     8.673
    29   6 C        2.922    -0.031    28.773     8.796
    30   6 C        2.917    -0.030    28.750     8.793
    31   6 C        2.918    -0.033    28.813     8.802
    32   6 C        2.922    -0.035    28.863     8.810
    33   6 C        2.979    -0.001    28.051     8.688
    34   6 C        2.980     0.002    27.965     8.674
    35   6 C        2.922    -0.034    28.838     8.806
    36   6 C        2.916    -0.033    28.821     8.803
    37   6 C        2.917    -0.032    28.790     8.799
    38   6 C        2.919    -0.040    28.991     8.830
    39   6 C        2.978    -0.002    28.060     8.689
    40   6 C        3.076     0.022    27.445     8.589
    41   7 N        2.841    -0.043    22.062     6.976
    42   6 C        2.913     0.062    26.602     8.457
    43   6 C        2.919    -0.041    29.017     8.833
    44   6 C        2.928    -0.033    28.810     8.802
    45   6 C        2.973     0.011    27.767     8.644
    46   6 C        3.903     0.026    20.078     6.369
    47   6 C        3.761    -0.109    22.635     6.782
    48   6 C        3.762    -0.107    22.584     6.774
    49   6 C        3.762    -0.107    22.585     6.775
    50   6 C        2.925    -0.038    28.942     8.822
    51   6 C        2.920    -0.040    28.997     8.830
    52   6 C        2.929    -0.026    28.657     8.779
    53   6 C        2.921    -0.025    28.638     8.776
    54   6 C        2.785     0.140    24.925     8.178
    55   9 F        0.787    -0.187    11.104     3.936
    56   6 C        2.786     0.141    24.923     8.177
    57   9 F        0.787    -0.187    11.104     3.936
    58   6 C        2.921    -0.025    28.630     8.775
    59   6 C        2.928    -0.026    28.643     8.777
    60   7 N        1.896    -0.290    28.356     7.895
    61   6 C        3.208     0.057    26.123     8.322
    62   6 C        2.986     0.003    27.953     8.673
    63   6 C        2.922    -0.031    28.775     8.797
    64   6 C        2.917    -0.030    28.751     8.793
    65   6 C        2.918    -0.033    28.815     8.803
    66   6 C        2.922    -0.035    28.864     8.810
    67   6 C        2.979    -0.001    28.052     8.688
    68   6 C        2.980     0.002    27.968     8.675
    69   6 C        2.922    -0.034    28.839     8.807
    70   6 C        2.916    -0.033    28.823     8.804
    71   6 C        2.917    -0.032    28.792     8.799
    72   6 C        2.919    -0.040    28.993     8.830
    73   6 C        2.978    -0.001    28.059     8.689
    74   6 C        3.076     0.021    27.454     8.591
    75   6 C        2.919    -0.040    28.996     8.830
    76   6 C        2.927    -0.034    28.839     8.807
    77   1 H        0.925     0.040     2.449     2.447
    78   1 H        0.925     0.037     2.486     2.466
    79   1 H        0.925     0.037     2.484     2.465
    80   1 H        0.925     0.038     2.478     2.462
    81   1 H        0.925     0.035     2.514     2.479
    82   1 H        0.925     0.041     2.437     2.441
    83   1 H        0.925     0.038     2.476     2.461
    84   1 H        0.925     0.041     2.434     2.440
    85   1 H        0.925     0.035     2.516     2.481
    86   1 H        0.926     0.046     2.364     2.404
    87   1 H        0.926     0.037     2.483     2.464
    88   1 H        0.926     0.038     2.480     2.463
    89   1 H        0.926     0.046     2.376     2.410
    90   1 H        0.926     0.046     2.366     2.406
    91   1 H        0.926     0.038     2.481     2.463
    92   1 H        0.926     0.050     2.317     2.380
    93   1 H        0.926     0.030     2.582     2.513
    94   1 H        0.926     0.028     2.612     2.527
    95   1 H        0.926     0.031     2.576     2.510
    96   1 H        0.926     0.035     2.522     2.484
    97   1 H        0.926     0.029     2.603     2.523
    98   1 H        0.926     0.027     2.632     2.537
    99   1 H        0.926     0.027     2.629     2.536
   100   1 H        0.926     0.038     2.477     2.461
   101   1 H        0.926     0.040     2.452     2.449
   102   1 H        0.925     0.040     2.450     2.448
   103   1 H        0.925     0.037     2.485     2.465
   104   1 H        0.925     0.038     2.481     2.463
   105   1 H        0.925     0.035     2.514     2.479
   106   1 H        0.925     0.038     2.481     2.463
   107   1 H        0.925     0.041     2.432     2.439
   108   1 H        0.925     0.038     2.477     2.461
   109   1 H        0.925     0.041     2.436     2.441
   110   1 H        0.925     0.035     2.514     2.479
   111   1 H        0.926     0.047     2.363     2.404
   112   1 H        0.926     0.040     2.446     2.446
   113   1 H        0.926     0.064     2.149     2.292
   114   1 H        0.926     0.050     2.319     2.381
   115   1 H        0.926     0.050     2.324     2.384
   116   1 H        0.926     0.062     2.175     2.306
   117   1 H        0.926     0.050     2.315     2.379
   118   1 H        0.926     0.030     2.583     2.513
   119   1 H        0.926     0.028     2.614     2.528
   120   1 H        0.926     0.031     2.577     2.510
   121   1 H        0.926     0.034     2.524     2.485
   122   1 H        0.926     0.029     2.605     2.524
   123   1 H        0.926     0.027     2.630     2.536
   124   1 H        0.926     0.027     2.625     2.533
   125   1 H        0.926     0.040     2.446     2.446
   126   1 H        0.926     0.040     2.454     2.450

molecular dipole:
                 x           y           z       tot (Debye)
 q only:        0.121       0.020      -0.195
   full:        0.136       0.026      -0.236       0.697

 projected vibrational frequencies (cm⁻¹)
eigval :       -0.00    -0.00    -0.00    -0.00     0.00     0.00
eigval :        3.58     4.62     8.92     9.20    15.56    17.65
eigval :       18.29    19.39    23.54    26.23    26.85    32.02
eigval :       39.52    44.51    56.33    59.92    64.04    67.29
eigval :       69.91    72.70    78.76    81.96    84.82    91.08
eigval :       96.80   102.65   109.65   118.49   123.24   127.63
eigval :      135.74   144.50   145.63   156.91   162.81   174.28
eigval :      174.97   181.37   182.88   188.96   209.15   213.18
eigval :      217.41   223.15   225.89   228.19   233.67   239.87
eigval :      243.43   259.37   263.37   267.06   268.60   270.92
eigval :      280.44   292.84   301.06   311.00   311.69   316.75
eigval :      317.05   318.23   322.40   334.14   355.66   356.16
eigval :      359.16   364.58   367.11   370.24   376.38   376.72
eigval :      381.98   382.32   387.22   393.37   397.77   398.61
eigval :      403.69   408.38   409.54   416.01   422.72   426.23
eigval :      429.89   443.66   447.78   450.36   451.03   454.66
eigval :      462.29   470.87   478.80   480.69   488.46   506.50
eigval :      509.87   517.58   521.28   528.06   531.36   535.06
eigval :      535.18   546.87   547.32   584.93   584.98   585.87
eigval :      590.36   594.16   599.46   600.60   606.68   608.50
eigval :      628.66   641.66   644.37   649.34   652.87   656.22
eigval :      657.38   663.85   669.49   670.91   674.95   676.08
eigval :      682.47   682.80   689.62   697.11   702.10   702.96
eigval :      722.00   727.01   733.76   736.14   736.28   757.41
eigval :      757.51   765.86   766.04   779.32   782.62   782.77
eigval :      788.27   816.55   821.78   822.82   826.64   832.19
eigval :      862.46   862.74   869.20   870.78   871.00   871.09
eigval :      874.97   875.23   883.55   884.07   907.49   907.65
eigval :      913.11   913.26   914.08   914.55   914.82   919.14
eigval :      919.74   924.04   924.12   927.21   927.35   927.42
eigval :      927.65   928.64   929.30   940.25   940.40   954.60
eigval :      961.11   961.13   962.05   962.78   964.16   964.27
eigval :      965.17   972.71   998.89  1006.69  1015.47  1018.92
eigval :     1033.40  1034.74  1035.66  1035.72  1036.11  1037.89
eigval :     1074.18  1074.29  1086.17  1086.21  1090.55  1108.56
eigval :     1108.69  1121.75  1134.82  1135.46  1141.64  1141.95
eigval :     1145.21  1145.46  1146.21  1148.01  1153.16  1153.29
eigval :     1174.70  1175.06  1183.13  1183.14  1186.55  1186.65
eigval :     1201.44  1201.62  1204.89  1208.19  1215.88  1216.54
eigval :     1227.91  1227.96  1228.96  1233.94  1233.96  1253.60
eigval :     1253.99  1256.87  1258.15  1258.56  1273.50  1274.76
eigval :     1275.27  1275.59  1284.22  1284.39  1286.97  1287.17
eigval :     1303.26  1308.05  1310.49  1312.77  1316.65  1321.71
eigval :     1323.81  1330.34  1331.00  1338.94  1339.02  1347.89
eigval :     1348.18  1379.05  1379.23  1397.79  1398.37  1399.29
eigval :     1400.56  1404.18  1406.31  1406.88  1407.12  1407.25
eigval :     1410.74  1410.83  1422.22  1422.72  1430.54  1430.64
eigval :     1432.72  1433.37  1435.20  1436.68  1441.13  1446.41
eigval :     1469.41  1479.96  1491.09  1491.41  1491.57  1492.33
eigval :     1493.17  1493.43  1502.16  1502.38  1505.89  1506.22
eigval :     1512.08  1513.59  1514.50  1514.75  1515.91  1517.05
eigval :     1518.72  1518.87  1533.58  1539.52  1543.00  1558.32
eigval :     1559.22  1563.79  1564.14  1564.28  1569.00  1569.23
eigval :     1569.54  1570.28  1592.45  1594.62  1594.97  1597.50
eigval :     1600.55  1601.03  1604.66  1604.78  3026.18  3026.22
eigval :     3027.26  3027.38  3029.66  3029.70  3031.88  3032.02
eigval :     3034.92  3034.96  3037.37  3037.61  3041.47  3041.51
eigval :     3047.97  3048.19  3051.64  3051.99  3072.32  3072.45
eigval :     3075.55  3075.62  3082.13  3083.85  3083.95  3084.32
eigval :     3085.99  3086.15  3086.36  3087.28  3093.39  3095.46
eigval :     3095.85  3096.79  3097.25  3097.37  3097.48  3098.87
eigval :     3105.29  3105.32  3108.96  3110.98  3111.21  3112.46
eigval :     3114.61  3115.16  3115.61  3116.57  3121.63  3122.73

   temp. (K)  partition function   enthalpy   heat capacity  entropy
                                   cal/mol     cal/K/mol   cal/K/mol   J/K/mol
 298.15  VIB  0.531E+33            39010.185    237.240    247.070
         ROT  0.535E+09              888.752      2.981     42.921
         INT  0.284E+42            39898.938    240.221    289.991
         TR   0.306E+29             1481.254      4.968     46.558
         TOT                       41380.1916   245.1889   336.5492  1408.1217

       T/K    H(0)-H(T)+PV         H(T)/Eh          T*S/Eh         G(T)/Eh
   ------------------------------------------------------------------------
    298.15    0.659435E-01    0.103806E+01    0.159905E+00    0.878155E+00
   ------------------------------------------------------------------------

         :::::::::::::::::::::::::::::::::::::::::::::::::::::
         ::                  THERMODYNAMIC                  ::
         :::::::::::::::::::::::::::::::::::::::::::::::::::::
         :: total free energy        -200.995910894483 Eh   ::
         ::.................................................::
         :: total energy             -201.874065709064 Eh   ::
         :: zero point energy           0.972116649333 Eh   ::
         :: G(RRHO) w/o ZPVE           -0.093961834752 Eh   ::
         :: G(RRHO) contrib.            0.878154814582 Eh   ::
         :::::::::::::::::::::::::::::::::::::::::::::::::::::

           -------------------------------------------------
          | TOTAL ENERGY             -201.874065709064 Eh   |
          | TOTAL ENTHALPY           -200.836005526863 Eh   |
          | TOTAL FREE ENERGY        -200.995910894483 Eh   |
          | GRADIENT NORM               0.000060440684 Eh/α |
          | HOMO-LUMO GAP               1.958043780394 eV   |
           -------------------------------------------------

 * finished run on 2025/07/19 at 01:39:51.023
