   * xtb version 6.7.1 (edcfbbe) compiled by 'albert@albert-system' on 2024-07-22

   ID    Z sym.   atoms
    1    6 C      1-15, 17-29, 31-35, 37-59
    2    7 N      16, 30, 36
    3    1 H      60-106

          program call               : xtb data2507/toluene/mCP-Py/mCP-Py_toluene_S0_finalOpt.xtbopt.xyz --gfn 2 --uhf 2 --gbsa toluene --ohess vtight --parallel 40 --molden --ceasefiles --namespace data2507/toluene/mCP-Py/mCP-Py_toluene_T1_preOpt
      * Solvation model:               GBSA
        Solvent                        toluene
        Solvent mass                       9.2140E+01 g/mol
          :  Hamiltonian                  GFN2-xTB          :
 * total energy  :  -152.7223180 Eh     change       -0.3112348E-08 Eh
 * total energy  :  -152.7236168 Eh     change       -0.1298806E-02 Eh
 * total energy  :  -152.7239614 Eh     change       -0.3445904E-03 Eh
 * total energy  :  -152.7240356 Eh     change       -0.7417990E-04 Eh
 * total energy  :  -152.7241332 Eh     change       -0.9759771E-04 Eh
 * total energy  :  -152.7243512 Eh     change       -0.2179698E-03 Eh
 * total energy  :  -152.7247120 Eh     change       -0.3607947E-03 Eh
 * total energy  :  -152.7251616 Eh     change       -0.4496549E-03 Eh
 * total energy  :  -152.7084860 Eh     change        0.1667568E-01 Eh
 * total energy  :  -152.7258672 Eh     change       -0.1738123E-01 Eh
 * total energy  :  -152.7263978 Eh     change       -0.6000445E-06 Eh
 * total energy  :  -152.7263986 Eh     change       -0.7857749E-06 Eh
 * total energy  :  -152.7263995 Eh     change       -0.8763203E-06 Eh
 * total energy  :  -152.7264003 Eh     change       -0.8487036E-06 Eh
 * total energy  :  -152.7264010 Eh     change       -0.6447493E-06 Eh
 * total energy  :  -152.7264014 Eh     change       -0.4428644E-06 Eh
 * total energy  :  -152.7264017 Eh     change       -0.3009609E-06 Eh
 * total energy  :  -152.7264020 Eh     change       -0.2204400E-06 Eh
 * total energy  :  -152.7264020 Eh     change       -0.2507477E-08 Eh
   *** GEOMETRY OPTIMIZATION CONVERGED AFTER 44 ITERATIONS ***

 final structure:
================
106
 xtb: 6.7.1 (edcfbbe)
C           -4.81784086417808        5.38747072406171        0.19498640937919
C           -4.65888007188061        4.68012602083163        1.55327554960637
C           -3.21787541381683        4.86722539735991        2.06053498641917
C           -5.60583438635253        5.35279374527209        2.55186923903781
C           -4.93484186781077        3.20375541630778        1.37654386686977
C           -5.97899621511444        2.52388235934444        2.05284343183021
C           -6.23290449105167        1.19695959811476        1.87153151260834
C           -5.42643749636558        0.44287779795038        0.96302910168833
C           -4.36153893620101        1.13927078446404        0.26846238842417
C           -4.12530092132118        2.45738754352051        0.48254099320040
C           -3.62692169370591        0.17465284825389       -0.64563297232444
C           -3.82034170767382        0.47810120353618       -2.11480194193417
C           -4.90580632369222        1.22163456629717       -2.57099307501792
C           -5.08201271169976        1.39641813862756       -3.93342916981051
C           -4.17099389539385        0.81134423552745       -4.79831784527087
N           -3.13774594691208        0.09415886128239       -4.37902218299073
C           -2.97418223013733       -0.06539936651350       -3.07898833407892
C           -2.17045906436131        0.15114175344835       -0.23100734973370
C           -1.29073015676552        1.11613913290037       -0.73602855082571
C            0.02688786436147        1.19011087679168       -0.33251020391226
C            0.47268806958439        0.27203379071396        0.60894112333528
C           -0.39591797159916       -0.72288762774040        1.11295341846928
C           -1.71991676457342       -0.76862421014143        0.70324739965339
C            0.38538065884726       -1.52994994473987        2.00913336131453
C            0.09462019253656       -2.63334380226276        2.80019669141347
C            1.10042302425339       -3.17293501086666        3.57887767824990
C            2.37761128749135       -2.61661393208486        3.58577670307048
C            2.68915501336963       -1.51842069676259        2.80613818528031
C            1.69142080834745       -0.98711627048834        2.00234569505862
N            1.72900819726552        0.10371086289614        1.15476959635145
C            2.84231065476038        0.91745529261830        0.89808576407407
C            2.73249513203795        2.30152765033638        1.01258738283624
C            3.82548845365520        3.10266943508648        0.73714371936893
C            5.03095110073869        2.54200029541775        0.35577909456886
C            5.14480308092326        1.15852842914704        0.23612014078924
N            6.35681515608893        0.58946887073547       -0.18051128478678
C            7.04215052217765       -0.43009393552470        0.45104122709581
C            6.74721641063096       -1.09659987904141        1.63143371598536
C            7.62625712138526       -2.07144953245288        2.06333228507726
C            8.78195114261379       -2.37566382701719        1.34696915553216
C            9.09458945933892       -1.69954459640162        0.18398561275925
C            8.22455265504191       -0.71656278145557       -0.27000370845853
C            8.24159218678384        0.17473502659033       -1.39670309285959
C            9.11970320703620        0.35773908914465       -2.45739019395983
C            8.81885188622905        1.31246284255486       -3.40880063782066
C            7.65233646341545        2.06948159709879       -3.31986928471355
C            6.76369324280245        1.90556839967276       -2.27409227563361
C            7.07295198417436        0.96490448510231       -1.30160518279826
C            4.04887663898932        0.34670864924977        0.50784749252736
C           -4.36796393978912       -1.12062279414295       -0.37251604089910
C           -4.15559730964972       -2.35136341166021       -0.90293743485312
C           -4.97361281965510       -3.44894955249122       -0.53690894135220
C           -4.68606076705938       -4.80735914278992       -1.13556669738422
C           -3.25434229791711       -5.22956292251504       -0.75876699949322
C           -4.80555008479690       -4.71940740094549       -2.66769925913066
C           -5.64652234924507       -5.89557102999283       -0.64565128439988
C           -6.03090380589448       -3.21434147609343        0.38038486491193
C           -6.27644564850885       -1.98928199244049        0.92361475746003
C           -5.44181685076499       -0.88275274511034        0.57259850037685
H           -5.83004393700955        5.25275154419872       -0.18182672574964
H           -4.62872265102008        6.45326445669790        0.30539382130278
H           -4.12452936552671        4.99204272280175       -0.54243922810992
H           -2.49394885483263        4.46062512350532        1.35967525124344
H           -3.08841386054615        4.36116271581457        3.01531127993454
H           -3.00580941064610        5.92572494787536        2.19685494036628
H           -5.35294820544130        6.40803349338738        2.63570478436285
H           -5.51463552342917        4.90654050775657        3.53968865992126
H           -6.63975933164402        5.28128732652550        2.22149978604217
H           -6.59972314226919        3.07188561636457        2.74364230668261
H           -7.02781542338215        0.70396554655461        2.41078471249004
H           -3.32214709004718        2.94780922773105       -0.04646766189334
H           -5.59762761213348        1.65848366246817       -1.86466454338582
H           -5.91093672854638        1.97243529828040       -4.31592653213100
H           -4.26254150992799        0.91383957573491       -5.87184922716487
H           -2.10988500880863       -0.65089900178450       -2.78933804213409
H           -1.65046728942119        1.81557377069265       -1.47699150403135
H            0.68909591432502        1.93250425153586       -0.75118841188800
H           -2.38835093285927       -1.51738485806551        1.10034313255715
H           -0.89975214890625       -3.05405784215611        2.80600413857679
H            0.89566641639449       -4.03288261343297        4.19941047633430
H            3.14015281793703       -3.04990467805280        4.21622856715465
H            3.67567754707469       -1.08313971106762        2.83405183223787
H            1.79746853930525        2.73711914906901        1.32944280042142
H            3.74089670656653        4.17453621932969        0.83392899981265
H            5.88924538800013        3.16608703223073        0.16030773268390
H            5.86603001820848       -0.85435423750292        2.20464648154163
H            7.41467950479871       -2.60622395368722        2.97784125783113
H            9.44450357866057       -3.14529962305723        1.71503244097241
H            9.99834059066326       -1.92471923178093       -0.36235888153418
H           10.01581270854241       -0.23963850605115       -2.53552462224328
H            9.49015309150525        1.47221193401192       -4.23977097524115
H            7.43533569045383        2.79783526098734       -4.08765109095916
H            5.85419948593232        2.48492682371809       -2.22461401805840
H            4.12534333021360       -0.72304135921901        0.38434205780221
H           -3.34980652045126       -2.49530836545173       -1.60729222799254
H           -3.15220655249364       -5.28569523257833        0.32339261403364
H           -2.51945477697578       -4.52279633084085       -1.13434902316927
H           -3.03222192660305       -6.20841587562411       -1.17859387549648
H           -4.60449190970859       -5.69154091773539       -3.11308609515505
H           -5.81068616343118       -4.41047393631883       -2.94880254535081
H           -4.10246731790806       -4.00198697821386       -3.08240405984910
H           -5.38410080621816       -6.84432694105914       -1.10973900979518
H           -5.58077780677610       -6.02019902569591        0.43301098803555
H           -6.67395172757669       -5.66302709121617       -0.91690746712120
H           -6.67100119767773       -4.03519794200767        0.66158030028655
H           -7.09257338787124       -1.84056396788580        1.61473823703171

          :  Hamiltonian                  GFN2-xTB          :
         :: gradient norm              0.000036739178 Eh/a0 ::
         :: HOMO-LUMO gap              0.235645506459 eV    ::
         :: SCC energy              -155.491769822811 Eh    ::
         :: -> dispersion             -0.148351216287 Eh    ::
         :: -> Gsolv                  -0.060386768112 Eh    ::
         :: repulsion energy           2.765367865617 Eh    ::

    * Orbital Energies and Occupations

         #    Occupation            Energy/Eh            Energy/eV
      -------------------------------------------------------------
         1        2.0000           -0.6812556             -18.5379
       ...           ...                  ...                  ...
       132        2.0000           -0.4068315             -11.0704
       133        2.0000           -0.4067692             -11.0688
       134        2.0000           -0.4060197             -11.0484
       135        2.0000           -0.3993298             -10.8663
       136        2.0000           -0.3970721             -10.8049
       137        2.0000           -0.3936135             -10.7108
       138        2.0000           -0.3817791             -10.3887
       139        2.0000           -0.3801500             -10.3444
       140        1.9999           -0.3695602             -10.0562
       141        1.9971           -0.3659882              -9.9590
       142        1.9666           -0.3636273              -9.8948
       143        1.0363           -0.3573159              -9.7231
       144        0.9892           -0.2595906              -7.0638 (HOMO)
       145        0.0100           -0.2509306              -6.8282 (LUMO)
       146        0.0007           -0.2483960              -6.7592
       147        0.0001           -0.2460950              -6.6966
       148        0.0000           -0.2407631              -6.5515
       149        0.0000           -0.2400432              -6.5319
       150                         -0.2351110              -6.3977
       151                         -0.2263052              -6.1581
       152                         -0.2235288              -6.0825
       153                         -0.2130961              -5.7986
       154                         -0.2079866              -5.6596
       155                         -0.1972289              -5.3669
       ...                                ...                  ...
       283                          0.7430777              20.2202
      -------------------------------------------------------------
                  HL-Gap            0.0086600 Eh            0.2357 eV

     #   Z          covCN         q      C6AA      α(0)
     1   6 C        3.761    -0.102    22.502     6.762
     2   6 C        3.902     0.028    20.048     6.365
     3   6 C        3.761    -0.103    22.517     6.764
     4   6 C        3.761    -0.106    22.581     6.774
     5   6 C        2.971    -0.003    28.101     8.695
     6   6 C        2.912    -0.040    28.983     8.828
     7   6 C        2.903    -0.045    29.117     8.848
     8   6 C        3.022    -0.008    28.190     8.709
     9   6 C        3.046    -0.003    28.051     8.687
    10   6 C        2.909    -0.042    29.047     8.837
    11   6 C        3.938     0.009    20.353     6.411
    12   6 C        2.977     0.005    27.910     8.666
    13   6 C        2.932    -0.021    28.523     8.759
    14   6 C        2.912    -0.041    29.018     8.833
    15   6 C        2.911     0.053    26.805     8.490
    16   7 N        1.835    -0.247    27.286     7.741
    17   6 C        2.915     0.058    26.695     8.472
    18   6 C        2.978     0.003    27.948     8.672
    19   6 C        2.927    -0.038    28.939     8.822
    20   6 C        2.908    -0.051    29.258     8.869
    21   6 C        3.076     0.045    26.900     8.504
    22   6 C        3.065    -0.016    28.353     8.731
    23   6 C        2.916    -0.038    28.955     8.824
    24   6 C        3.067    -0.016    28.344     8.730
    25   6 C        2.912    -0.033    28.810     8.802
    26   6 C        2.920    -0.040    28.995     8.830
    27   6 C        2.923    -0.034    28.842     8.807
    28   6 C        2.910    -0.049    29.216     8.863
    29   6 C        3.075     0.047    26.870     8.499
    30   7 N        2.802    -0.037    21.959     6.960
    31   6 C        2.912     0.066    26.523     8.445
    32   6 C        2.921    -0.046    29.140     8.852
    33   6 C        2.919    -0.026    28.650     8.777
    34   6 C        2.921    -0.046    29.139     8.852
    35   6 C        2.912     0.067    26.496     8.441
    36   7 N        2.802    -0.043    22.072     6.978
    37   6 C        3.073     0.047    26.873     8.500
    38   6 C        2.910    -0.051    29.254     8.869
    39   6 C        2.923    -0.034    28.857     8.809
    40   6 C        2.920    -0.042    29.037     8.837
    41   6 C        2.912    -0.034    28.849     8.808
    42   6 C        3.067    -0.018    28.380     8.735
    43   6 C        3.067    -0.018    28.378     8.735
    44   6 C        2.912    -0.034    28.851     8.808
    45   6 C        2.920    -0.042    29.033     8.836
    46   6 C        2.924    -0.034    28.856     8.809
    47   6 C        2.910    -0.051    29.278     8.873
    48   6 C        3.075     0.047    26.874     8.499
    49   6 C        2.924    -0.056    29.386     8.890
    50   6 C        3.049    -0.004    28.068     8.689
    51   6 C        2.909    -0.041    29.028     8.835
    52   6 C        2.971    -0.003    28.085     8.693
    53   6 C        3.902     0.028    20.046     6.364
    54   6 C        3.761    -0.102    22.503     6.762
    55   6 C        3.761    -0.102    22.502     6.762
    56   6 C        3.761    -0.107    22.582     6.774
    57   6 C        2.912    -0.040    28.989     8.829
    58   6 C        2.903    -0.044    29.103     8.846
    59   6 C        3.022    -0.009    28.209     8.712
    60   1 H        0.925     0.032     2.552     2.498
    61   1 H        0.925     0.040     2.446     2.446
    62   1 H        0.925     0.036     2.505     2.475
    63   1 H        0.925     0.037     2.496     2.471
    64   1 H        0.925     0.033     2.543     2.494
    65   1 H        0.925     0.040     2.443     2.444
    66   1 H        0.925     0.038     2.477     2.461
    67   1 H        0.925     0.036     2.501     2.473
    68   1 H        0.925     0.036     2.503     2.474
    69   1 H        0.926     0.036     2.508     2.476
    70   1 H        0.926     0.024     2.671     2.556
    71   1 H        0.926     0.025     2.657     2.549
    72   1 H        0.926     0.036     2.502     2.474
    73   1 H        0.926     0.037     2.483     2.464
    74   1 H        0.925     0.033     2.545     2.495
    75   1 H        0.925     0.031     2.577     2.510
    76   1 H        0.926     0.028     2.621     2.532
    77   1 H        0.926     0.035     2.515     2.480
    78   1 H        0.926     0.034     2.526     2.485
    79   1 H        0.926     0.033     2.545     2.495
    80   1 H        0.926     0.031     2.567     2.506
    81   1 H        0.926     0.034     2.536     2.490
    82   1 H        0.926     0.030     2.580     2.512
    83   1 H        0.926     0.050     2.322     2.383
    84   1 H        0.926     0.051     2.312     2.378
    85   1 H        0.926     0.050     2.318     2.381
    86   1 H        0.926     0.028     2.616     2.529
    87   1 H        0.926     0.031     2.567     2.506
    88   1 H        0.926     0.029     2.600     2.522
    89   1 H        0.926     0.032     2.564     2.504
    90   1 H        0.926     0.032     2.564     2.504
    91   1 H        0.926     0.029     2.598     2.521
    92   1 H        0.926     0.031     2.565     2.505
    93   1 H        0.926     0.032     2.563     2.504
    94   1 H        0.926     0.051     2.307     2.375
    95   1 H        0.926     0.023     2.686     2.563
    96   1 H        0.925     0.034     2.537     2.491
    97   1 H        0.925     0.037     2.493     2.469
    98   1 H        0.925     0.040     2.445     2.445
    99   1 H        0.925     0.041     2.439     2.442
   100   1 H        0.925     0.032     2.561     2.503
   101   1 H        0.925     0.035     2.511     2.478
   102   1 H        0.925     0.038     2.472     2.459
   103   1 H        0.925     0.037     2.491     2.468
   104   1 H        0.925     0.036     2.504     2.475
   105   1 H        0.926     0.036     2.500     2.472
   106   1 H        0.926     0.025     2.660     2.551

molecular dipole:
                 x           y           z       tot (Debye)
 q only:        0.623       0.710       0.748
   full:        0.362       0.896       0.922       3.395

 projected vibrational frequencies (cm⁻¹)
eigval :       -0.00     0.00     0.00     0.00     0.00     0.00
eigval :        6.45    11.27    16.15    17.56    18.97    25.07
eigval :       30.18    36.17    36.50    38.42    48.69    54.63
eigval :       56.45    63.31    71.09    82.57    86.77    92.85
eigval :      103.29   109.02   116.35   132.42   139.62   142.36
eigval :      151.05   172.84   177.44   179.55   182.09   194.30
eigval :      202.78   210.67   219.84   221.96   227.20   237.62
eigval :      238.91   252.77   260.97   266.90   270.43   271.66
eigval :      276.19   299.58   304.33   305.54   314.65   318.61
eigval :      321.11   327.04   328.94   346.34   348.74   353.10
eigval :      365.69   366.76   381.90   385.73   392.69   396.26
eigval :      405.14   422.36   422.98   425.48   427.24   429.89
eigval :      437.27   445.79   446.84   453.47   469.90   476.14
eigval :      503.66   513.82   516.23   520.08   532.46   534.57
eigval :      541.27   547.61   560.90   563.62   578.88   582.74
eigval :      589.00   591.99   597.71   605.69   612.63   617.02
eigval :      621.15   640.31   649.22   662.14   671.38   674.88
eigval :      675.90   678.90   687.76   691.38   698.33   708.16
eigval :      708.41   711.60   748.50   758.01   761.82   766.30
eigval :      768.85   771.24   776.82   778.99   781.16   795.64
eigval :      806.41   823.98   862.03   862.33   864.67   867.99
eigval :      871.41   872.68   873.60   877.89   890.92   894.04
eigval :      894.74   896.65   897.62   899.48   900.92   901.70
eigval :      905.57   905.95   907.78   908.50   915.93   918.19
eigval :      920.67   922.10   923.02   926.57   934.42   938.45
eigval :      953.42   954.17   956.62   959.40   959.67   962.60
eigval :      963.15   972.42   995.39  1001.23  1007.85  1014.67
eigval :     1027.49  1027.71  1030.44  1032.48  1033.42  1065.59
eigval :     1069.74  1073.11  1081.17  1089.95  1092.46  1108.87
eigval :     1116.03  1119.57  1125.45  1128.48  1138.52  1147.82
eigval :     1150.99  1164.94  1167.76  1173.79  1174.48  1176.64
eigval :     1180.71  1183.36  1185.61  1190.30  1196.63  1200.88
eigval :     1207.83  1207.95  1209.65  1225.44  1228.30  1231.60
eigval :     1233.65  1236.47  1244.36  1247.56  1250.80  1262.69
eigval :     1266.49  1276.29  1279.17  1288.70  1296.43  1299.76
eigval :     1300.11  1301.68  1302.92  1314.73  1315.68  1339.23
eigval :     1351.37  1353.77  1355.21  1355.59  1359.18  1369.99
eigval :     1377.92  1393.55  1397.38  1398.15  1399.28  1401.22
eigval :     1402.78  1414.14  1419.27  1423.04  1423.95  1425.16
eigval :     1425.97  1439.32  1455.12  1465.76  1470.39  1474.68
eigval :     1479.63  1482.07  1483.83  1486.02  1487.32  1487.32
eigval :     1491.26  1491.45  1497.77  1498.25  1500.73  1500.88
eigval :     1510.47  1510.63  1514.20  1517.00  1517.12  1536.48
eigval :     1548.52  1551.54  1559.33  1565.20  1568.48  1572.70
eigval :     1580.44  1587.09  1588.56  1593.33  1596.40  1600.34
eigval :     1608.15  3018.83  3019.45  3019.84  3019.90  3022.79
eigval :     3022.92  3024.61  3025.00  3026.46  3026.73  3030.08
eigval :     3030.25  3035.21  3035.66  3041.32  3042.84  3043.25
eigval :     3046.12  3046.57  3053.28  3069.64  3072.49  3073.41
eigval :     3073.48  3074.77  3075.17  3077.73  3078.06  3078.26
eigval :     3079.71  3080.92  3082.51  3085.85  3085.87  3086.86
eigval :     3088.39  3089.13  3089.27  3091.98  3092.58  3096.68
eigval :     3096.78  3098.71  3099.58  3104.81  3105.26  3106.29

   temp. (K)  partition function   enthalpy   heat capacity  entropy
                                   cal/mol     cal/K/mol   cal/K/mol   J/K/mol
 298.15  VIB  0.673E+24            30386.378    189.829    188.667
         ROT  0.164E+09              888.752      2.981     40.567
         INT  0.110E+33            31275.130    192.810    229.234
         TR   0.204E+29             1481.254      4.968     45.751
         TOT                       32756.3838   197.7785   274.9845  1150.5352

       T/K    H(0)-H(T)+PV         H(T)/Eh          T*S/Eh         G(T)/Eh
   ------------------------------------------------------------------------
    298.15    0.522006E-01    0.899465E+00    0.130654E+00    0.768811E+00
   ------------------------------------------------------------------------

         :::::::::::::::::::::::::::::::::::::::::::::::::::::
         ::                  THERMODYNAMIC                  ::
         :::::::::::::::::::::::::::::::::::::::::::::::::::::
         :: total free energy        -151.957590482300 Eh   ::
         ::.................................................::
         :: total energy             -152.726401960007 Eh   ::
         :: zero point energy           0.847264869038 Eh   ::
         :: G(RRHO) w/o ZPVE           -0.078453391331 Eh   ::
         :: G(RRHO) contrib.            0.768811477707 Eh   ::
         :::::::::::::::::::::::::::::::::::::::::::::::::::::

           -------------------------------------------------
          | TOTAL ENERGY             -152.726401960007 Eh   |
          | TOTAL ENTHALPY           -151.826936470629 Eh   |
          | TOTAL FREE ENERGY        -151.957590482300 Eh   |
          | GRADIENT NORM               0.000036743986 Eh/α |
          | HOMO-LUMO GAP               0.235651423121 eV   |
           -------------------------------------------------

 * finished run on 2025/08/24 at 22:01:20.074
