   * xtb version 6.7.1 (edcfbbe) compiled by 'albert@albert-system' on 2024-07-22

   ID    Z sym.   atoms
    1    6 C      1-15, 17-29, 31-35, 37-59
    2    7 N      16, 30, 36
    3    1 H      60-106

          program call               : xtb data2507/toluene/mCP-Py/mCP-Py.xyz --gfn 2 --gbsa toluene --ohess vtight --parallel 40 --molden --ceasefiles --namespace data2507/toluene/mCP-Py/mCP-Py_toluene_S0_preOpt
      * Solvation model:               GBSA
        Solvent                        toluene
        Solvent mass                       9.2140E+01 g/mol
          :  Hamiltonian                  GFN2-xTB          :
 * total energy  :  -152.8072661 Eh     change       -0.3453863E-08 Eh
 * total energy  :  -152.8256123 Eh     change       -0.1834626E-01 Eh
 * total energy  :  -152.8312273 Eh     change       -0.5614946E-02 Eh
 * total energy  :  -152.8329285 Eh     change       -0.1701214E-02 Eh
 * total energy  :  -152.8337978 Eh     change       -0.8692727E-03 Eh
 * total energy  :  -152.8341341 Eh     change       -0.3363339E-03 Eh
 * total energy  :  -152.8343439 Eh     change       -0.2098211E-03 Eh
 * total energy  :  -152.8344913 Eh     change       -0.1473596E-03 Eh
 * total energy  :  -152.8345780 Eh     change       -0.8677495E-04 Eh
 * total energy  :  -152.8346262 Eh     change       -0.4812766E-04 Eh
 * total energy  :  -152.8349264 Eh     change       -0.2372595E-05 Eh
 * total energy  :  -152.8349288 Eh     change       -0.2380207E-05 Eh
 * total energy  :  -152.8349311 Eh     change       -0.2246574E-05 Eh
 * total energy  :  -152.8349331 Eh     change       -0.2011653E-05 Eh
 * total energy  :  -152.8349348 Eh     change       -0.1745167E-05 Eh
 * total energy  :  -152.8349364 Eh     change       -0.1530972E-05 Eh
 * total energy  :  -152.8349377 Eh     change       -0.1375082E-05 Eh
 * total energy  :  -152.8349390 Eh     change       -0.1296746E-05 Eh
 * total energy  :  -152.8349390 Eh     change       -0.7916753E-08 Eh
   *** GEOMETRY OPTIMIZATION CONVERGED AFTER 44 ITERATIONS ***

 final structure:
================
106
 xtb: 6.7.1 (edcfbbe)
C           -5.24536713978605        5.44820143948300        2.12897137510611
C           -4.32016978938987        4.73740508069106        1.13654345057449
C           -4.55994267860886        5.33990635143374       -0.25642636511122
C           -2.86882806261166        4.99194659263942        1.57121434101172
C           -4.56300677588078        3.23659509033016        1.07233023369716
C           -5.54482904522987        2.59626107632037        1.82226671818692
C           -5.75100399246605        1.22693082613083        1.74561136753804
C           -4.95973055746730        0.47335981639030        0.89800357299183
C           -3.96954827607068        1.10554056864579        0.13346618827649
C           -3.77024427674436        2.46302453267431        0.22028767747892
C           -3.21399968433523        0.09412252031078       -0.70999587107686
C           -3.40180107248816        0.29685933795551       -2.19583871052517
C           -4.48575751894604        0.99862510274621       -2.71172222757271
C           -4.63903039958570        1.09543294922212       -4.08526260478954
C           -3.70581746527000        0.47364557344789       -4.89919219467822
N           -2.67512540459140       -0.20710383147438       -4.42328774058491
C           -2.53205188537467       -0.29007062589526       -3.11298669159229
C           -1.75512225397286        0.12334499587917       -0.29467164726019
C           -0.89384401696544        1.06861171179712       -0.86274670779838
C            0.42433402196720        1.19052630687866       -0.47051261160423
C            0.88843505628561        0.34716194404343        0.52868155785853
C            0.03750689813456       -0.62591092220672        1.09827335147048
C           -1.28557328701592       -0.72621952251946        0.69221437502850
C            0.82864863861991       -1.35470649747803        2.04957566221035
C            0.55212441002466       -2.40349001072578        2.91730167023953
C            1.56166444628309       -2.86837537142546        3.73660156417488
C            2.82854725610501       -2.28861333688701        3.70999318727114
C            3.12504195019500       -1.24362479939926        2.85602752084936
C            2.12448665021658       -0.79020795385327        2.00888572523098
N            2.14808710431119        0.23761257336469        1.08578437702916
C            3.25326986617490        1.04073603447457        0.76889194152128
C            3.12791403866949        2.42796237800271        0.76565723657747
C            4.21452859580028        3.21612118173542        0.43301186611352
C            5.43138467882752        2.64052776144435        0.11538919341663
C            5.56260230747323        1.25403592206617        0.11861385548957
N            6.78929050259067        0.66375536363077       -0.22062181930087
C            7.47007834852990       -0.28123753533603        0.52150992928240
C            7.15974632999603       -0.82466323109991        1.75955797742915
C            8.03675865826330       -1.74353290502292        2.30319627919040
C            9.20636861092850       -2.11042299982364        1.64060253126086
C            9.53490077999128       -1.55407768952009        0.42018049759153
C            8.66685222507390       -0.62928823568359       -0.14646198523283
C            8.69948780051282        0.14683569311200       -1.35480310513935
C            9.59747937661102        0.23309762946831       -2.41126461141133
C            9.31148509263666        1.09072132115964       -3.45496064626815
C            8.13993438484063        1.84534988428295       -3.46122896422774
C            7.23117854671896        1.77613814357023       -2.42227283280008
C            7.52475856730060        0.93396798174811       -1.35893170893935
C            4.47120957306798        0.45487278506673        0.44127637949732
C           -3.92167518409374       -1.19556282387956       -0.33031354341307
C           -3.67391507976548       -2.46825346392062       -0.79756892181163
C           -4.43235901459038       -3.53899271452263       -0.32806912109553
C           -4.19635002638255       -4.96920684562345       -0.79083907032398
C           -3.07079173669752       -5.07693812257315       -1.82446323285713
C           -5.48408501010653       -5.51134459469306       -1.42897995091153
C           -3.81386602167046       -5.83020652432919        0.42279415529969
C           -5.43672874887237       -3.27869268431636        0.60535899950654
C           -5.69867506235016       -2.00361263580848        1.07369695051450
C           -4.93498312190325       -0.94854928804689        0.60271898622459
H           -5.10106478047968        5.06966355107142        3.13847670882953
H           -5.02012457913337        6.51296053487034        2.13411258685901
H           -6.28928380761738        5.32847947698814        1.84783748651383
H           -5.58384998012540        5.15382532080569       -0.57569983622107
H           -3.88938576454257        4.91026710152408       -0.99599997064303
H           -4.39681090231507        6.41544244774911       -0.23231086722883
H           -2.68144700868747        6.06162485758822        1.64011334477370
H           -2.16109502746730        4.56698610630486        0.86459537917576
H           -2.68482145836765        4.54501021976789        2.54653428432356
H           -6.17361390149076        3.16361234209949        2.48896260731495
H           -6.52135702061881        0.76088254166025        2.34276540972882
H           -2.99869678638399        2.92378063432549       -0.37723488057613
H           -5.19867481339898        1.46524611710041       -2.04696205551693
H           -5.46743100567322        1.63921142928519       -4.51292453605971
H           -3.77913181573847        0.51521250479362       -5.97836957048305
H           -1.66708873622857       -0.84888563621784       -2.77764378380851
H           -1.26535935077713        1.71526782106086       -1.64476346600004
H            1.07120979918330        1.91567812371971       -0.94040204142721
H           -1.93414998140645       -1.46320464046941        1.14044400750735
H           -0.43568671374302       -2.83880666527807        2.94977523648604
H            1.36885837800002       -3.68546086082574        4.41620115971297
H            3.59474933137386       -2.66115975647740        4.37418270504078
H            4.10264564963601       -0.78795985623705        2.85991222847140
H            2.18564161721127        2.87828463599334        1.03712095871007
H            4.11620831834774        4.29125248230144        0.43635134825366
H            6.28489481848236        3.25631431564663       -0.12277676586602
H            6.26823781984784       -0.52962588720673        2.29065208883721
H            7.81355781947765       -2.18269638524891        3.26470412631825
H            9.86718752629658       -2.83306316682650        2.09659492853336
H           10.44982640038154       -1.82629300786417       -0.08462328247518
H           10.49790549356178       -0.36296389394279       -2.41392920794594
H            9.99865748695300        1.17489851605126       -4.28412822766272
H            7.93559450890558        2.49662366650793       -4.29865820821994
H            6.31867540677688        2.35252716999446       -2.44498963443752
H            4.56276280075877       -0.62043177870879        0.41074090167110
H           -2.88674250179991       -2.61626555470978       -1.51822853577860
H           -2.12354908872997       -4.73777117992333       -1.41057772639046
H           -3.29874284779399       -4.49612307762410       -2.71589897999725
H           -2.95260301428486       -6.11686205234047       -2.12274363579559
H           -5.32354671586764       -6.52464203734745       -1.79137513870735
H           -6.30364777831376       -5.53154799310010       -0.71589390541496
H           -5.77844552954828       -4.88621702820727       -2.27009662873692
H           -3.62669120230044       -6.85524413126724        0.10967117043795
H           -2.91032869193622       -5.44186682682727        0.88934143591818
H           -4.60509429694663       -5.84073622500559        1.16753249010407
H           -6.03681299904932       -4.09305126508815        0.98292646012068
H           -6.48521420134650       -1.83850731452762        1.79561202294472

          :  Hamiltonian                  GFN2-xTB          :
         :: gradient norm              0.000068983527 Eh/a0 ::
         :: HOMO-LUMO gap              3.017406362102 eV    ::
         :: SCC energy              -155.620723962605 Eh    ::
         :: -> dispersion             -0.148386557393 Eh    ::
         :: -> Gsolv                  -0.059863701898 Eh    ::
         :: repulsion energy           2.785784925733 Eh    ::

    * Orbital Energies and Occupations

         #    Occupation            Energy/Eh            Energy/eV
      -------------------------------------------------------------
         1        2.0000           -0.6785209             -18.4635
       ...           ...                  ...                  ...
       131        2.0000           -0.4099111             -11.1543
       132        2.0000           -0.4097520             -11.1499
       133        2.0000           -0.4074238             -11.0866
       134        2.0000           -0.4057735             -11.0417
       135        2.0000           -0.4004822             -10.8977
       136        2.0000           -0.3975569             -10.8181
       137        2.0000           -0.3939294             -10.7194
       138        2.0000           -0.3800389             -10.3414
       139        2.0000           -0.3791385             -10.3169
       140        2.0000           -0.3715566             -10.1106
       141        2.0000           -0.3701606             -10.0726
       142        2.0000           -0.3648713              -9.9287
       143        2.0000           -0.3618394              -9.8462 (HOMO)
       144                         -0.2509518              -6.8287 (LUMO)
       145                         -0.2492863              -6.7834
       146                         -0.2474010              -6.7321
       147                         -0.2463600              -6.7038
       148                         -0.2389884              -6.5032
       149                         -0.2385453              -6.4911
       150                         -0.2378279              -6.4716
       151                         -0.2257206              -6.1422
       152                         -0.2224873              -6.0542
       153                         -0.2194292              -5.9710
       154                         -0.2151099              -5.8534
       ...                                ...                  ...
       283                          0.7442119              20.2510
      -------------------------------------------------------------
                  HL-Gap            0.1108876 Eh            3.0174 eV

     #   Z          covCN         q      C6AA      α(0)
     1   6 C        3.761    -0.107    22.591     6.776
     2   6 C        3.903     0.025    20.092     6.372
     3   6 C        3.761    -0.103    22.520     6.765
     4   6 C        3.761    -0.104    22.528     6.766
     5   6 C        2.974     0.006    27.893     8.663
     6   6 C        2.925    -0.044    29.100     8.846
     7   6 C        2.914    -0.039    28.963     8.825
     8   6 C        3.034    -0.005    28.119     8.698
     9   6 C        3.054    -0.002    28.020     8.681
    10   6 C        2.922    -0.041    29.024     8.835
    11   6 C        3.947     0.009    20.364     6.412
    12   6 C        2.975     0.010    27.798     8.648
    13   6 C        2.933    -0.018    28.462     8.749
    14   6 C        2.912    -0.041    29.017     8.833
    15   6 C        2.912     0.056    26.741     8.480
    16   7 N        1.835    -0.245    27.233     7.733
    17   6 C        2.916     0.058    26.695     8.472
    18   6 C        2.978     0.003    27.949     8.672
    19   6 C        2.927    -0.038    28.957     8.825
    20   6 C        2.909    -0.052    29.299     8.876
    21   6 C        3.076     0.045    26.905     8.504
    22   6 C        3.067    -0.018    28.389     8.737
    23   6 C        2.916    -0.040    28.993     8.830
    24   6 C        3.068    -0.018    28.379     8.735
    25   6 C        2.912    -0.034    28.840     8.806
    26   6 C        2.920    -0.042    29.042     8.837
    27   6 C        2.923    -0.034    28.855     8.809
    28   6 C        2.910    -0.051    29.257     8.869
    29   6 C        3.076     0.047    26.861     8.497
    30   7 N        2.802    -0.044    22.084     6.980
    31   6 C        2.911     0.067    26.509     8.443
    32   6 C        2.922    -0.047    29.169     8.857
    33   6 C        2.919    -0.027    28.666     8.780
    34   6 C        2.921    -0.047    29.162     8.856
    35   6 C        2.912     0.067    26.503     8.442
    36   7 N        2.802    -0.045    22.116     6.985
    37   6 C        3.075     0.047    26.866     8.498
    38   6 C        2.910    -0.051    29.263     8.870
    39   6 C        2.923    -0.035    28.863     8.810
    40   6 C        2.920    -0.042    29.053     8.839
    41   6 C        2.912    -0.035    28.859     8.809
    42   6 C        3.067    -0.018    28.393     8.737
    43   6 C        3.067    -0.018    28.390     8.737
    44   6 C        2.912    -0.035    28.861     8.809
    45   6 C        2.920    -0.042    29.050     8.839
    46   6 C        2.924    -0.035    28.862     8.810
    47   6 C        2.910    -0.052    29.289     8.874
    48   6 C        3.075     0.047    26.868     8.499
    49   6 C        2.925    -0.056    29.395     8.891
    50   6 C        3.057    -0.002    28.009     8.679
    51   6 C        2.919    -0.045    29.128     8.850
    52   6 C        2.974     0.006    27.878     8.661
    53   6 C        3.902     0.025    20.092     6.372
    54   6 C        3.761    -0.105    22.562     6.771
    55   6 C        3.761    -0.104    22.542     6.768
    56   6 C        3.761    -0.104    22.535     6.767
    57   6 C        2.928    -0.040    28.991     8.830
    58   6 C        2.913    -0.039    28.962     8.825
    59   6 C        3.035    -0.005    28.114     8.697
    60   1 H        0.925     0.036     2.502     2.474
    61   1 H        0.925     0.038     2.475     2.460
    62   1 H        0.925     0.036     2.502     2.473
    63   1 H        0.925     0.032     2.555     2.500
    64   1 H        0.925     0.035     2.515     2.480
    65   1 H        0.925     0.039     2.460     2.453
    66   1 H        0.925     0.039     2.458     2.452
    67   1 H        0.925     0.036     2.507     2.476
    68   1 H        0.925     0.032     2.555     2.500
    69   1 H        0.926     0.038     2.474     2.460
    70   1 H        0.926     0.028     2.610     2.527
    71   1 H        0.926     0.028     2.612     2.527
    72   1 H        0.926     0.039     2.463     2.454
    73   1 H        0.926     0.040     2.451     2.448
    74   1 H        0.925     0.035     2.518     2.481
    75   1 H        0.925     0.034     2.524     2.485
    76   1 H        0.926     0.026     2.641     2.541
    77   1 H        0.926     0.033     2.541     2.493
    78   1 H        0.926     0.032     2.556     2.500
    79   1 H        0.926     0.030     2.580     2.512
    80   1 H        0.926     0.029     2.600     2.521
    81   1 H        0.926     0.031     2.567     2.505
    82   1 H        0.926     0.028     2.612     2.527
    83   1 H        0.926     0.049     2.336     2.390
    84   1 H        0.926     0.049     2.330     2.387
    85   1 H        0.926     0.049     2.338     2.391
    86   1 H        0.926     0.027     2.634     2.538
    87   1 H        0.926     0.030     2.580     2.512
    88   1 H        0.926     0.028     2.611     2.527
    89   1 H        0.926     0.031     2.574     2.509
    90   1 H        0.926     0.031     2.575     2.510
    91   1 H        0.926     0.028     2.609     2.526
    92   1 H        0.926     0.031     2.575     2.509
    93   1 H        0.926     0.031     2.576     2.510
    94   1 H        0.926     0.050     2.325     2.385
    95   1 H        0.926     0.034     2.528     2.486
    96   1 H        0.925     0.035     2.510     2.478
    97   1 H        0.925     0.034     2.529     2.487
    98   1 H        0.925     0.038     2.475     2.460
    99   1 H        0.925     0.040     2.454     2.450
   100   1 H        0.925     0.037     2.486     2.466
   101   1 H        0.925     0.032     2.565     2.505
   102   1 H        0.925     0.040     2.454     2.450
   103   1 H        0.925     0.033     2.549     2.497
   104   1 H        0.925     0.037     2.488     2.467
   105   1 H        0.926     0.032     2.564     2.504
   106   1 H        0.926     0.029     2.602     2.522

molecular dipole:
                 x           y           z       tot (Debye)
 q only:       -0.248       0.787       0.494
   full:       -0.511       0.981       0.680       3.301

 projected vibrational frequencies (cm⁻¹)
eigval :       -0.00    -0.00    -0.00     0.00     0.00     0.00
eigval :        7.67     9.96    16.47    17.44    21.76    27.57
eigval :       29.55    32.93    37.27    41.72    50.56    54.00
eigval :       58.29    65.25    81.08    82.68    91.09    93.69
eigval :      100.55   116.24   129.37   139.25   143.72   154.97
eigval :      157.83   174.32   181.36   187.31   192.80   197.53
eigval :      208.89   217.02   222.94   228.48   229.44   234.48
eigval :      248.63   253.66   267.86   270.43   271.58   276.10
eigval :      279.42   298.94   314.49   315.78   324.17   326.28
eigval :      333.32   338.33   347.11   349.63   360.15   369.94
eigval :      371.91   383.35   387.28   392.77   395.76   421.08
eigval :      421.36   423.43   426.99   431.13   431.95   437.15
eigval :      443.77   448.06   457.17   468.79   480.84   488.74
eigval :      514.65   519.93   529.39   530.55   532.72   539.66
eigval :      547.25   552.85   567.89   575.50   586.40   589.88
eigval :      598.31   599.74   611.69   616.78   624.56   631.96
eigval :      634.51   648.70   660.70   670.43   673.70   678.03
eigval :      689.31   690.75   697.49   706.80   708.37   717.51
eigval :      721.64   731.24   749.56   761.97   764.71   774.57
eigval :      776.16   778.55   790.03   803.92   808.89   820.88
eigval :      824.75   834.82   861.85   868.13   869.70   870.68
eigval :      877.42   879.02   886.25   888.39   893.32   896.56
eigval :      899.00   899.91   900.26   905.22   906.25   907.66
eigval :      909.17   911.31   912.63   915.52   918.86   919.41
eigval :      920.67   926.77   930.05   932.60   949.66   958.78
eigval :      959.80   960.04   960.88   963.25   963.46   967.66
eigval :      971.37   996.84  1008.21  1011.71  1014.57  1016.04
eigval :     1034.35  1034.51  1035.12  1035.41  1036.31  1065.46
eigval :     1069.74  1072.64  1095.34  1109.11  1112.02  1120.28
eigval :     1125.47  1126.35  1138.32  1143.35  1147.93  1154.82
eigval :     1168.73  1172.51  1175.79  1176.82  1179.78  1181.15
eigval :     1185.35  1193.61  1197.04  1199.80  1207.97  1224.33
eigval :     1225.20  1229.94  1230.96  1232.42  1234.17  1237.23
eigval :     1239.93  1243.60  1249.80  1251.64  1256.39  1268.11
eigval :     1281.05  1281.84  1285.41  1289.15  1297.87  1300.46
eigval :     1304.11  1308.81  1314.54  1326.67  1343.33  1352.15
eigval :     1355.94  1358.28  1361.51  1370.86  1371.32  1399.24
eigval :     1400.73  1402.49  1403.26  1403.75  1414.50  1416.80
eigval :     1420.04  1424.67  1426.92  1427.30  1427.90  1433.61
eigval :     1446.15  1452.94  1458.37  1469.87  1475.42  1477.01
eigval :     1478.36  1485.59  1486.52  1488.65  1488.65  1491.72
eigval :     1491.84  1499.12  1499.53  1501.75  1502.37  1511.11
eigval :     1512.54  1517.33  1518.50  1565.16  1567.33  1570.84
eigval :     1573.95  1574.70  1576.26  1580.72  1585.31  1587.94
eigval :     1591.48  1597.74  1599.43  1602.93  1609.47  1613.21
eigval :     1615.04  3018.78  3018.85  3019.38  3019.66  3022.66
eigval :     3023.08  3023.25  3024.09  3026.65  3027.87  3029.07
eigval :     3030.35  3034.71  3035.53  3041.72  3043.79  3045.63
eigval :     3047.31  3047.67  3052.60  3071.42  3071.49  3071.91
eigval :     3072.86  3072.91  3074.14  3075.77  3077.12  3078.04
eigval :     3078.30  3084.83  3085.54  3085.96  3087.52  3087.71
eigval :     3089.51  3090.49  3091.05  3092.20  3094.04  3095.61
eigval :     3097.26  3098.45  3098.70  3104.07  3111.75  3116.64

   temp. (K)  partition function   enthalpy   heat capacity  entropy
                                   cal/mol     cal/K/mol   cal/K/mol   J/K/mol
 298.15  VIB  0.179E+24            29868.625    187.638    184.894
         ROT  0.164E+09              888.752      2.981     40.569
         INT  0.293E+32            30757.377    190.619    225.463
         TR   0.204E+29             1481.254      4.968     45.751
         TOT                       32238.6314   195.5870   271.2134  1134.7568

       T/K    H(0)-H(T)+PV         H(T)/Eh          T*S/Eh         G(T)/Eh
   ------------------------------------------------------------------------
    298.15    0.513755E-01    0.903787E+00    0.128862E+00    0.774925E+00
   ------------------------------------------------------------------------

         :::::::::::::::::::::::::::::::::::::::::::::::::::::
         ::                  THERMODYNAMIC                  ::
         :::::::::::::::::::::::::::::::::::::::::::::::::::::
         :: total free energy        -152.060013914025 Eh   ::
         ::.................................................::
         :: total energy             -152.834939037253 Eh   ::
         :: zero point energy           0.852411829193 Eh   ::
         :: G(RRHO) w/o ZPVE           -0.077486705966 Eh   ::
         :: G(RRHO) contrib.            0.774925123228 Eh   ::
         :::::::::::::::::::::::::::::::::::::::::::::::::::::

           -------------------------------------------------
          | TOTAL ENERGY             -152.834939037253 Eh   |
          | TOTAL ENTHALPY           -151.931151678717 Eh   |
          | TOTAL FREE ENERGY        -152.060013914025 Eh   |
          | GRADIENT NORM               0.000068981212 Eh/α |
          | HOMO-LUMO GAP               3.017406471957 eV   |
           -------------------------------------------------

 * finished run on 2025/08/24 at 21:51:18.358
