   * xtb version 6.7.1 (edcfbbe) compiled by 'albert@albert-system' on 2024-07-22

   ID    Z sym.   atoms
    1    6 C      1-15, 17-29, 31-35, 37-59
    2    7 N      16, 30, 36
    3    1 H      60-106

          program call               : xtb data2507/toluene/mCP-Py/mCP-Py_toluene_T1_crest.xyz --gfn 2 --uhf 2 --gbsa toluene --ohess vtight --parallel 40 --molden --ceasefiles --namespace data2507/toluene/mCP-Py/mCP-Py_toluene_T1_finalOpt
      * Solvation model:               GBSA
        Solvent                        toluene
        Solvent mass                       9.2140E+01 g/mol
          :  Hamiltonian                  GFN2-xTB          :
 * total energy  :  -152.7243391 Eh     change       -0.1459637E-07 Eh
 * total energy  :  -152.7244296 Eh     change       -0.9049560E-04 Eh
 * total energy  :  -152.7245044 Eh     change       -0.7476155E-04 Eh
 * total energy  :  -152.7245549 Eh     change       -0.5057409E-04 Eh
 * total energy  :  -152.7246039 Eh     change       -0.4896153E-04 Eh
 * total energy  :  -152.7246861 Eh     change       -0.8224087E-04 Eh
 * total energy  :  -152.7247915 Eh     change       -0.1053792E-03 Eh
 * total energy  :  -152.7248437 Eh     change       -0.5219110E-04 Eh
 * total energy  :  -152.7250048 Eh     change       -0.1610542E-03 Eh
 * total energy  :  -152.7252578 Eh     change       -0.2530513E-03 Eh
 * total energy  :  -152.7262299 Eh     change       -0.1892554E-05 Eh
 * total energy  :  -152.7262317 Eh     change       -0.1786565E-05 Eh
 * total energy  :  -152.7262333 Eh     change       -0.1645784E-05 Eh
 * total energy  :  -152.7262349 Eh     change       -0.1578807E-05 Eh
 * total energy  :  -152.7262366 Eh     change       -0.1640469E-05 Eh
 * total energy  :  -152.7262384 Eh     change       -0.1870212E-05 Eh
 * total energy  :  -152.7262407 Eh     change       -0.2308632E-05 Eh
 * total energy  :  -152.7262439 Eh     change       -0.3128739E-05 Eh
 * total energy  :  -152.7262439 Eh     change       -0.7959329E-08 Eh
   *** GEOMETRY OPTIMIZATION CONVERGED AFTER 94 ITERATIONS ***

 final structure:
================
106
 xtb: 6.7.1 (edcfbbe)
C           -6.48236934986776        3.15863920816536       -0.23282093531192
C           -7.23426784435812        1.81873409305939       -0.13490466413606
C           -8.50766139020099        2.04709870334587        0.68535902992390
C           -7.65128499369661        1.36298736078194       -1.54487863090429
C           -6.31608842041172        0.78197204896335        0.47190319760744
C           -6.60724371723893        0.10475934292567        1.68486319740973
C           -5.76936641174531       -0.81989871976740        2.23069418729011
C           -4.53773785551826       -1.13152786840800        1.57304686940816
C           -4.24724166599481       -0.45040768132796        0.32496015378716
C           -5.10617565257525        0.46194431128959       -0.19439987089648
C           -2.93243977106729       -0.95381543007156       -0.24075186312742
C           -3.26641095584210       -1.63086187788980       -1.55193935043207
C           -3.34928042584704       -0.90760917118913       -2.73984576458777
C           -3.75082216997666       -1.54985878676102       -3.89758440450115
C           -4.05683748271532       -2.90137489672528       -3.83023212021242
N           -3.98548648619790       -3.60146966691562       -2.70874885686588
C           -3.60799478012176       -2.97971325993232       -1.60601597463467
C           -1.85468247120362        0.10083802699757       -0.38003633391513
C           -0.73250879982329       -0.17435425259286       -1.17132322280705
C            0.34681277963612        0.68211403814839       -1.23057365054479
C            0.30004100543383        1.84403498024029       -0.47361279625352
C           -0.85052476187141        2.16844421168774        0.27963611755252
C           -1.91733034173863        1.28312483952727        0.34025465877963
C           -0.60018674167868        3.45700270017474        0.86502622782625
C           -1.34263715527175        4.28862545562198        1.69287910748579
C           -0.78517921669053        5.48530015325379        2.09995049699463
C            0.50141782255344        5.84690907582951        1.70624626410556
C            1.25969357786959        5.03540402137184        0.88262674237177
C            0.69496044565923        3.84498329519842        0.44795941037505
N            1.22857129459498        2.85795761919268       -0.36035441564642
C            2.53881337110316        2.81703794247829       -0.85903731330905
C            3.06060038238291        3.89065143030457       -1.57580608326589
C            4.36373378602786        3.83679369877436       -2.03797609265706
C            5.15166921458767        2.72411416916453       -1.80381117622675
C            4.63398145691911        1.64796811448962       -1.08602106859516
N            5.43051241093260        0.52521039296110       -0.81820005453905
C            6.68915719826002        0.54894622212486       -0.24732742003606
C            7.44044267833136        1.62912719439095        0.19389879387350
C            8.67689795391813        1.37011432818845        0.75466231808219
C            9.15908856167522        0.06912503805750        0.88424543425774
C            8.40535634827405       -1.01142780080656        0.47037190874695
C            7.15873889439064       -0.77633538267482       -0.09542119863702
C            6.12696558737294       -1.63674977241694       -0.60436667201366
C            6.01007328245188       -3.01460165163809       -0.73775002875616
C            4.86274569371865       -3.53049806379527       -1.30769182664300
C            3.84745480641112       -2.68973116606954       -1.75872838431968
C            3.94140891311073       -1.31668969397046       -1.63465312182602
C            5.07827025056269       -0.79260683960751       -1.03684507651591
C            3.32806572112940        1.69833765376820       -0.61283917084026
C           -2.48931350585108       -1.91798354546034        0.84507993141695
C           -1.33329257586552       -2.61995368596139        0.94129581694579
C           -1.08646497554210       -3.46602256327952        2.05198184330578
C            0.21903636398881       -4.22627845929498        2.11319699119522
C            0.34323943941010       -5.10934478974638        3.35843015765439
C            1.38205992351418       -3.21725842848560        2.12385409536496
C            0.34094687326163       -5.13017865569164        0.87332908813428
C           -2.08278966412083       -3.54918641905439        3.05842480276451
C           -3.24832897095402       -2.84578491638994        3.00053499753509
C           -3.49586829612403       -1.98096563446155        1.88781507518715
H           -6.18002784082322        3.49211828610038        0.75813481769974
H           -5.59175932784299        3.07079889148320       -0.84911907295972
H           -7.12828885424007        3.91675831994868       -0.67072582404669
H           -8.27177302258542        2.40244325172399        1.68600528367320
H           -9.09461819290163        1.13425812428216        0.75927974184131
H           -9.12125212818218        2.80212283268095        0.19759761323142
H           -8.32808870667788        2.09153143234618       -1.98653941623969
H           -8.16092331661627        0.40262736546960       -1.49331873381557
H           -6.79119013096366        1.25557940719141       -2.20008898010787
H           -7.52893569938226        0.32547682584889        2.19892099224948
H           -6.02063263573867       -1.32321898237145        3.15217936681665
H           -4.86324684355450        0.95376935804989       -1.12458435130368
H           -3.09055375203429        0.14202201973613       -2.75485681246635
H           -3.82203471508386       -1.01618800646450       -4.83326491421912
H           -4.37185784453738       -3.45392002204978       -4.70601466710308
H           -3.57118096106295       -3.59368414847567       -0.71445697052043
H           -0.71442531814379       -1.08261395337782       -1.75671947007552
H            1.19576886517279        0.45650338825626       -1.85698163447787
H           -2.78470236648964        1.51190605766230        0.94089139531208
H           -2.33347663792718        3.99962077637947        2.01020255550470
H           -1.34752270330953        6.14880314526305        2.74036033110626
H            0.91704549198729        6.78128071107966        2.05416304512792
H            2.26166904222132        5.31805786232515        0.59817421264230
H            2.44123545908270        4.75059448267978       -1.77832446896538
H            4.76591602232499        4.66668001352227       -2.59919402732824
H            6.16042196106332        2.67598787044667       -2.18384054545322
H            7.07006726298933        2.63988394738638        0.11349667517651
H            9.28211841305335        2.19452350505216        1.10267063760112
H           10.13227460014680       -0.09197251900289        1.32439710667576
H            8.77206272393663       -2.02051682621412        0.58571113612262
H            6.80553952796341       -3.66535051514329       -0.40644522899094
H            4.75106005716788       -4.59918211591776       -1.41837826433233
H            2.96962834754842       -3.12002354954386       -2.21874654069795
H            3.15863759787945       -0.67344717468344       -2.00510562285467
H            2.93441088140326        0.88102978891831       -0.02724727924065
H           -0.59407014743268       -2.54164665957034        0.15876665260014
H            1.30134952455033       -5.62513521551964        3.34087413034462
H           -0.44264939724933       -5.86087727260105        3.38594382289819
H            0.30041366298224       -4.51349529623507        4.26745592088473
H            1.36075408084215       -2.57879309110185        1.24529122499195
H            1.31948313185022       -2.58286530718380        3.00603859165138
H            2.33427802096274       -3.74341185296005        2.14032127564214
H            1.27748102256862       -5.68286800788280        0.90729258666124
H           -0.48192407283975       -5.84189255788534        0.84422735816279
H            0.32110453871766       -4.55040599906625       -0.04509829973045
H           -1.91464623436424       -4.18994691803623        3.90929143241683
H           -3.98239188898018       -2.91969810747481        3.78872008504821

          :  Hamiltonian                  GFN2-xTB          :
         :: gradient norm              0.000069372930 Eh/a0 ::
         :: HOMO-LUMO gap              0.238560345302 eV    ::
         :: SCC energy              -155.491675872659 Eh    ::
         :: -> dispersion             -0.149700147689 Eh    ::
         :: -> Gsolv                  -0.060286286051 Eh    ::
         :: repulsion energy           2.765431996862 Eh    ::

    * Orbital Energies and Occupations

         #    Occupation            Energy/Eh            Energy/eV
      -------------------------------------------------------------
         1        2.0000           -0.6811057             -18.5338
       ...           ...                  ...                  ...
       132        2.0000           -0.4071363             -11.0787
       133        2.0000           -0.4061343             -11.0515
       134        2.0000           -0.4058039             -11.0425
       135        2.0000           -0.3987652             -10.8510
       136        2.0000           -0.3972798             -10.8105
       137        2.0000           -0.3954499             -10.7607
       138        2.0000           -0.3817533             -10.3880
       139        2.0000           -0.3805076             -10.3541
       140        1.9987           -0.3670781              -9.9887
       141        1.9980           -0.3666703              -9.9776
       142        1.9779           -0.3643485              -9.9144
       143        1.0253           -0.3572777              -9.7220
       144        0.9898           -0.2599400              -7.0733 (HOMO)
       145        0.0094           -0.2511733              -6.8348 (LUMO)
       146        0.0006           -0.2486099              -6.7650
       147        0.0001           -0.2470750              -6.7233
       148        0.0000           -0.2410066              -6.5581
       149        0.0000           -0.2402948              -6.5388
       150                         -0.2344995              -6.3811
       151                         -0.2262175              -6.1557
       152                         -0.2238931              -6.0924
       153                         -0.2130685              -5.7979
       154                         -0.2081936              -5.6652
       155                         -0.1975646              -5.3760
       ...                                ...                  ...
       283                          0.7427230              20.2105
      -------------------------------------------------------------
                  HL-Gap            0.0087667 Eh            0.2386 eV

     #   Z          covCN         q      C6AA      α(0)
     1   6 C        3.761    -0.102    22.502     6.762
     2   6 C        3.902     0.028    20.044     6.364
     3   6 C        3.761    -0.107    22.585     6.775
     4   6 C        3.761    -0.103    22.505     6.763
     5   6 C        2.971    -0.002    28.083     8.692
     6   6 C        2.912    -0.040    28.992     8.829
     7   6 C        2.903    -0.043    29.072     8.841
     8   6 C        3.022    -0.009    28.220     8.714
     9   6 C        3.049    -0.003    28.059     8.688
    10   6 C        2.909    -0.041    29.024     8.834
    11   6 C        3.938     0.010    20.349     6.410
    12   6 C        2.977     0.005    27.906     8.665
    13   6 C        2.932    -0.018    28.447     8.747
    14   6 C        2.912    -0.042    29.046     8.838
    15   6 C        2.912     0.054    26.779     8.486
    16   7 N        1.835    -0.247    27.292     7.742
    17   6 C        2.915     0.056    26.741     8.480
    18   6 C        2.979     0.003    27.941     8.671
    19   6 C        2.927    -0.038    28.943     8.823
    20   6 C        2.909    -0.050    29.248     8.868
    21   6 C        3.079     0.045    26.906     8.504
    22   6 C        3.064    -0.017    28.373     8.735
    23   6 C        2.916    -0.039    28.974     8.827
    24   6 C        3.069    -0.017    28.350     8.731
    25   6 C        2.912    -0.033    28.824     8.804
    26   6 C        2.920    -0.041    29.007     8.832
    27   6 C        2.924    -0.034    28.849     8.808
    28   6 C        2.909    -0.051    29.261     8.870
    29   6 C        3.074     0.047    26.866     8.498
    30   7 N        2.801    -0.040    22.014     6.968
    31   6 C        2.912     0.066    26.519     8.444
    32   6 C        2.920    -0.047    29.157     8.855
    33   6 C        2.919    -0.026    28.657     8.779
    34   6 C        2.921    -0.046    29.152     8.854
    35   6 C        2.911     0.067    26.499     8.441
    36   7 N        2.801    -0.044    22.087     6.980
    37   6 C        3.074     0.047    26.868     8.499
    38   6 C        2.910    -0.052    29.283     8.873
    39   6 C        2.924    -0.034    28.859     8.810
    40   6 C        2.920    -0.042    29.037     8.837
    41   6 C        2.912    -0.034    28.853     8.808
    42   6 C        3.067    -0.018    28.378     8.735
    43   6 C        3.066    -0.018    28.378     8.735
    44   6 C        2.912    -0.034    28.848     8.807
    45   6 C        2.920    -0.041    29.022     8.834
    46   6 C        2.923    -0.033    28.834     8.806
    47   6 C        2.910    -0.050    29.252     8.869
    48   6 C        3.074     0.047    26.865     8.498
    49   6 C        2.926    -0.056    29.384     8.890
    50   6 C        3.047    -0.004    28.090     8.692
    51   6 C        2.910    -0.042    29.048     8.838
    52   6 C        2.971    -0.001    28.057     8.688
    53   6 C        3.902     0.028    20.042     6.364
    54   6 C        3.761    -0.107    22.590     6.776
    55   6 C        3.761    -0.102    22.487     6.760
    56   6 C        3.761    -0.102    22.501     6.762
    57   6 C        2.912    -0.039    28.960     8.824
    58   6 C        2.903    -0.044    29.103     8.846
    59   6 C        3.022    -0.007    28.161     8.705
    60   1 H        0.925     0.034     2.537     2.491
    61   1 H        0.925     0.037     2.490     2.468
    62   1 H        0.925     0.040     2.442     2.444
    63   1 H        0.925     0.037     2.491     2.468
    64   1 H        0.925     0.036     2.503     2.474
    65   1 H        0.925     0.038     2.472     2.459
    66   1 H        0.925     0.041     2.438     2.442
    67   1 H        0.925     0.032     2.559     2.502
    68   1 H        0.925     0.035     2.513     2.479
    69   1 H        0.926     0.037     2.494     2.469
    70   1 H        0.926     0.026     2.648     2.545
    71   1 H        0.926     0.025     2.659     2.550
    72   1 H        0.926     0.036     2.498     2.471
    73   1 H        0.926     0.038     2.472     2.459
    74   1 H        0.925     0.033     2.546     2.495
    75   1 H        0.925     0.031     2.574     2.509
    76   1 H        0.926     0.027     2.626     2.534
    77   1 H        0.926     0.030     2.593     2.518
    78   1 H        0.926     0.033     2.539     2.492
    79   1 H        0.926     0.032     2.552     2.498
    80   1 H        0.926     0.031     2.577     2.510
    81   1 H        0.926     0.033     2.542     2.493
    82   1 H        0.926     0.034     2.533     2.489
    83   1 H        0.926     0.050     2.317     2.380
    84   1 H        0.926     0.050     2.317     2.380
    85   1 H        0.926     0.050     2.324     2.384
    86   1 H        0.926     0.032     2.564     2.504
    87   1 H        0.926     0.031     2.567     2.505
    88   1 H        0.926     0.029     2.600     2.522
    89   1 H        0.926     0.031     2.566     2.505
    90   1 H        0.926     0.031     2.565     2.505
    91   1 H        0.926     0.030     2.593     2.518
    92   1 H        0.926     0.030     2.588     2.516
    93   1 H        0.926     0.026     2.637     2.539
    94   1 H        0.926     0.049     2.330     2.387
    95   1 H        0.926     0.026     2.644     2.543
    96   1 H        0.925     0.039     2.467     2.456
    97   1 H        0.925     0.037     2.490     2.468
    98   1 H        0.925     0.036     2.497     2.471
    99   1 H        0.925     0.035     2.516     2.480
   100   1 H        0.925     0.033     2.547     2.496
   101   1 H        0.925     0.041     2.441     2.443
   102   1 H        0.925     0.041     2.438     2.442
   103   1 H        0.925     0.034     2.534     2.489
   104   1 H        0.925     0.036     2.505     2.475
   105   1 H        0.926     0.037     2.484     2.465
   106   1 H        0.926     0.026     2.645     2.543

molecular dipole:
                 x           y           z       tot (Debye)
 q only:        0.971       1.493      -0.178
   full:        1.050       1.836      -0.233       5.407

 projected vibrational frequencies (cm⁻¹)
eigval :       -0.00    -0.00    -0.00     0.00     0.00     0.00
eigval :      -13.94     6.03    17.99    19.69    21.67    23.22
eigval :       27.58    36.20    36.96    39.98    49.85    52.58
eigval :       56.96    64.95    73.68    77.96    91.75    94.43
eigval :       98.05   107.01   127.04   131.96   134.47   141.29
eigval :      155.82   170.06   173.50   175.14   176.97   192.11
eigval :      199.12   209.58   215.87   220.51   224.81   235.82
eigval :      238.44   247.89   256.31   268.13   269.10   273.16
eigval :      278.82   302.77   306.41   308.07   311.11   320.45
eigval :      322.10   325.62   331.39   346.19   347.88   354.01
eigval :      364.41   366.65   380.03   384.75   389.80   394.59
eigval :      403.95   420.07   420.99   425.55   426.42   430.95
eigval :      437.22   445.91   446.78   454.36   471.22   476.82
eigval :      501.78   513.89   515.89   519.61   532.63   533.89
eigval :      537.83   549.21   559.01   563.48   580.03   583.64
eigval :      589.80   592.81   596.24   606.14   611.11   615.45
eigval :      622.34   638.02   651.30   660.95   670.36   673.61
eigval :      675.18   679.77   687.50   691.93   698.10   705.73
eigval :      706.75   712.65   748.67   757.94   761.92   764.18
eigval :      764.62   773.71   775.30   776.70   786.03   794.73
eigval :      802.12   820.30   858.27   862.24   864.38   869.61
eigval :      870.44   871.96   873.45   876.62   890.37   892.64
eigval :      893.70   894.72   895.48   898.13   898.88   902.15
eigval :      902.44   906.57   907.57   909.01   916.44   919.42
eigval :      922.70   923.14   926.48   930.11   931.47   938.59
eigval :      953.17   953.47   956.97   959.01   959.25   961.03
eigval :      962.13   970.76   995.98  1003.69  1008.15  1015.94
eigval :     1026.54  1026.72  1028.41  1032.45  1032.67  1067.22
eigval :     1069.40  1071.81  1080.61  1088.40  1092.51  1110.90
eigval :     1115.81  1118.11  1124.00  1127.10  1139.83  1147.16
eigval :     1151.99  1166.09  1168.73  1172.94  1174.37  1177.97
eigval :     1179.52  1182.99  1185.19  1193.51  1197.09  1201.97
eigval :     1206.85  1207.25  1207.77  1225.94  1228.89  1230.10
eigval :     1233.56  1235.79  1243.05  1248.17  1253.48  1262.47
eigval :     1265.65  1276.09  1279.89  1286.07  1297.41  1298.75
eigval :     1299.35  1300.67  1304.11  1315.02  1317.35  1339.72
eigval :     1349.69  1352.77  1355.35  1356.34  1359.35  1370.50
eigval :     1377.16  1394.00  1396.60  1397.97  1398.44  1400.63
eigval :     1402.16  1416.26  1417.47  1422.20  1424.26  1424.47
eigval :     1425.37  1441.02  1455.69  1466.83  1471.64  1475.04
eigval :     1482.29  1483.04  1485.13  1486.10  1486.25  1486.61
eigval :     1490.77  1490.86  1497.54  1498.18  1499.60  1500.42
eigval :     1510.12  1510.22  1517.09  1517.14  1531.39  1541.85
eigval :     1548.03  1557.83  1559.79  1566.89  1569.67  1572.77
eigval :     1581.59  1587.03  1590.10  1594.69  1596.39  1602.24
eigval :     1607.84  3019.52  3019.76  3020.10  3020.39  3022.92
eigval :     3023.52  3024.49  3025.44  3026.47  3027.20  3030.46
eigval :     3031.07  3035.84  3036.58  3043.30  3046.05  3046.35
eigval :     3047.44  3051.12  3052.56  3065.98  3071.43  3071.77
eigval :     3072.98  3073.94  3076.57  3077.70  3078.31  3078.48
eigval :     3079.25  3079.63  3084.57  3085.25  3085.63  3086.40
eigval :     3087.74  3088.05  3089.53  3092.47  3092.72  3094.63
eigval :     3095.73  3097.34  3099.99  3105.05  3105.41  3107.03

   temp. (K)  partition function   enthalpy   heat capacity  entropy
                                   cal/mol     cal/K/mol   cal/K/mol   J/K/mol
 298.15  VIB  0.496E+24            30415.901    189.993    188.611
         ROT  0.133E+09              888.752      2.981     40.159
         INT  0.661E+32            31304.654    192.973    228.770
         TR   0.204E+29             1481.254      4.968     45.751
         TOT                       32785.9077   197.9415   274.5207  1148.5944

       T/K    H(0)-H(T)+PV         H(T)/Eh          T*S/Eh         G(T)/Eh
   ------------------------------------------------------------------------
    298.15    0.522477E-01    0.899458E+00    0.130434E+00    0.769025E+00
   ------------------------------------------------------------------------

         :::::::::::::::::::::::::::::::::::::::::::::::::::::
         ::                  THERMODYNAMIC                  ::
         :::::::::::::::::::::::::::::::::::::::::::::::::::::
         :: total free energy        -151.957219084369 Eh   ::
         ::.................................................::
         :: total energy             -152.726243869818 Eh   ::
         :: zero point energy           0.847210740265 Eh   ::
         :: G(RRHO) w/o ZPVE           -0.078185954816 Eh   ::
         :: G(RRHO) contrib.            0.769024785450 Eh   ::
         :::::::::::::::::::::::::::::::::::::::::::::::::::::

           -------------------------------------------------
          | TOTAL ENERGY             -152.726243869818 Eh   |
          | TOTAL ENTHALPY           -151.826785459967 Eh   |
          | TOTAL FREE ENERGY        -151.957219084369 Eh   |
          | GRADIENT NORM               0.000069394750 Eh/α |
          | HOMO-LUMO GAP               0.238555017695 eV   |
           -------------------------------------------------

 * finished run on 2025/08/24 at 22:17:52.561
