   * xtb version 6.7.1 (edcfbbe) compiled by 'albert@albert-system' on 2024-07-22

   ID    Z sym.   atoms
    1    6 C      1-15, 17-29, 31-35, 37-59
    2    7 N      16, 30, 36
    3    1 H      60-106

          program call               : xtb data2507/toluene/mCP-Py/mCP-Py_toluene_S0_crest.xyz --gfn 2 --gbsa toluene --ohess vtight --parallel 40 --molden --ceasefiles --namespace data2507/toluene/mCP-Py/mCP-Py_toluene_S0_finalOpt
      * Solvation model:               GBSA
        Solvent                        toluene
        Solvent mass                       9.2140E+01 g/mol
          :  Hamiltonian                  GFN2-xTB          :
 * total energy  :  -152.8350455 Eh     change       -0.2964185E-08 Eh
 * total energy  :  -152.8350965 Eh     change       -0.5098482E-04 Eh
 * total energy  :  -152.8351170 Eh     change       -0.2055055E-04 Eh
 * total energy  :  -152.8351253 Eh     change       -0.8227144E-05 Eh
 * total energy  :  -152.8351355 Eh     change       -0.1024895E-04 Eh
 * total energy  :  -152.8351432 Eh     change       -0.7668470E-05 Eh
 * total energy  :  -152.8351500 Eh     change       -0.6766808E-05 Eh
 * total energy  :  -152.8351541 Eh     change       -0.4182545E-05 Eh
 * total energy  :  -152.8351574 Eh     change       -0.3304107E-05 Eh
 * total energy  :  -152.8351615 Eh     change       -0.4088228E-05 Eh
 * total energy  :  -152.8351894 Eh     change       -0.5406497E-06 Eh
 * total energy  :  -152.8351900 Eh     change       -0.5545723E-06 Eh
 * total energy  :  -152.8351905 Eh     change       -0.5307028E-06 Eh
 * total energy  :  -152.8351909 Eh     change       -0.3492991E-06 Eh
 * total energy  :  -152.8351910 Eh     change       -0.1269877E-06 Eh
 * total energy  :  -152.8351910 Eh     change        0.4039941E-07 Eh
 * total energy  :  -152.8351911 Eh     change       -0.1130716E-06 Eh
 * total energy  :  -152.8351910 Eh     change        0.3312510E-07 Eh
 * total energy  :  -152.8351911 Eh     change       -0.8214005E-07 Eh
   *** GEOMETRY OPTIMIZATION CONVERGED AFTER 33 ITERATIONS ***

 final structure:
================
106
 xtb: 6.7.1 (edcfbbe)
C           -4.86671189605023        5.41023701505075        0.16491596835737
C           -4.69522383516040        4.71254574859538        1.52312794046284
C           -3.25714863635345        4.90310820171674        2.02863841369437
C           -5.64419417446629        5.37929520455830        2.52362021789009
C           -4.96645857171247        3.22508572642806        1.35182408553825
C           -5.98089559626227        2.55765871792850        2.03132317190836
C           -6.21156153013408        1.20123520460448        1.85747128997475
C           -5.41335760725612        0.48924776437259        0.98087504635004
C           -4.39068368491608        1.14932435419809        0.28573247758992
C           -4.16654631662446        2.49318279403917        0.47020845014386
C           -3.64009418669744        0.18278163012739       -0.61311365457477
C           -3.80557596070270        0.48968624822959       -2.08444263439464
C           -4.86965187671939        1.24446106860755       -2.56523583864999
C           -5.00222893475226        1.43606110602006       -3.93096366682963
C           -4.06960018749527        0.85246155731215       -4.77335503368910
N           -3.05747845405968        0.12253321461219       -4.33157044148461
C           -2.93362217792051       -0.04984320066607       -3.02811962986979
C           -2.18392617759845        0.15410555363881       -0.18949588852623
C           -1.31082372718652        1.13692854834592       -0.66953191423929
C            0.00940487664928        1.20439385443079       -0.27222467773619
C            0.46514045205679        0.26151138920879        0.63787598065298
C           -0.39705742434978       -0.75009811324779        1.11588081842533
C           -1.72399228995150       -0.79128072680006        0.71073106921390
C            0.39049321164132       -1.58214350853207        1.98171311783872
C            0.10495785626589       -2.70915629753578        2.74171285493128
C            1.11502443887541       -3.27174951037051        3.49653802373032
C            2.39237146453676       -2.71499370323828        3.51114326851971
C            2.69842805815775       -1.59389502838773        2.76370834624660
C            1.69571206448184       -1.03769397529804        1.98284435875038
N            1.72702493782753        0.07897566295274        1.16981689051753
C            2.83916697860871        0.89746656781475        0.92322690866006
C            2.73190223499512        2.27881294879285        1.06677112362077
C            3.82224567852996        3.08537391184459        0.79644170474091
C            5.02481903802697        2.53255430244503        0.39496736536160
C            5.13741618270186        1.15195937042138        0.25061777312071
N            6.34769876976314        0.58805808696205       -0.18036262513306
C            7.03915593700798       -0.43253588336442        0.44181132799811
C            6.75512319529514       -1.10092904687451        1.62376738320192
C            7.63778580731388       -2.07674180554650        2.04540186217942
C            8.78663694463957       -2.37983458312327        1.31736596058763
C            9.08821629402356       -1.70202936534405        0.15265945065050
C            8.21419640457663       -0.71784014915820       -0.29153057294669
C            8.21994577679490        0.17599205144625       -1.41611266568792
C            9.08669006016532        0.36140027126816       -2.48589948535775
C            8.77644638373507        1.31890315125954       -3.43117389438442
C            7.61224153676074        2.07773577449281       -3.32685060322564
C            6.73486477900690        1.91177028998401       -2.27209260216448
C            7.05272400294275        0.96660167371141       -1.30684939431669
C            4.04312042277228        0.33525097979612        0.51331410367994
C           -4.38066252059256       -1.11432831391617       -0.33658018542021
C           -4.15707410484349       -2.35580067759822       -0.88362201907082
C           -4.95502557553783       -3.44067258683209       -0.51084655578561
C           -4.67067804255144       -4.80364976082011       -1.12424485920123
C           -3.23744940040527       -5.22300799251004       -0.76280874033885
C           -4.81504850459849       -4.70528184227302       -2.65050873324761
C           -5.62581159459628       -5.89212276093085       -0.62484493177265
C           -5.97483410370265       -3.22353989449706        0.41109486787218
C           -6.21295496641850       -1.97363059192912        0.96254023190971
C           -5.41306010554663       -0.90915091381540        0.58849199906241
H           -5.87780292830140        5.26087364660704       -0.20968337628382
H           -4.69201353170138        6.47918390154223        0.26865596633805
H           -4.16954622144663        5.02187603238141       -0.57279957284620
H           -2.53186086385432        4.50371683480930        1.32484354617526
H           -3.12301276271073        4.39273650986066        2.98062437192481
H           -3.04795936028419        5.96143033135332        2.17099895129958
H           -5.39886945676447        6.43649986478165        2.60503800070324
H           -5.54644647953291        4.93537014590354        3.51181654730872
H           -6.67849457299358        5.29966757754104        2.19633763408450
H           -6.61685601161571        3.09281807766442        2.71751866424827
H           -7.00738998992479        0.71302292360513        2.40104083758817
H           -3.37073622463039        2.97703531939417       -0.07466788305410
H           -5.58314809217718        1.67867903492207       -1.87952613042390
H           -5.81475742834619        2.02291924753496       -4.33120787437089
H           -4.12743702719371        0.96743002597369       -5.84813921990679
H           -2.08313421400652       -0.64537335097171       -2.71963963921568
H           -1.67489097913546        1.85772479308164       -1.38754361728106
H            0.66437086957685        1.96294036777021       -0.67293691770774
H           -2.38161656942664       -1.55818572007534        1.09010312717555
H           -0.88958997004965       -3.12984706540268        2.74136182767757
H            0.91508877429681       -4.15017760701276        4.09243840896928
H            3.15945227052617       -3.16731847211849        4.12271585449892
H            3.68528034778416       -1.15973344696364        2.79875909687242
H            1.79981613048786        2.70886022221875        1.39965780952167
H            3.73808159551809        4.15530056025013        0.91380455018466
H            5.88114911935609        3.16029051354298        0.20212870242866
H            5.87935469888870       -0.85836793950894        2.20537115172609
H            7.43492050799989       -2.61297298425900        2.96110638274924
H            9.45262882987593       -3.15009682465215        1.67800733739230
H            9.98672048536000       -1.92664328228024       -0.40260936644099
H            9.98141737751014       -0.23656156466234       -2.57538169185014
H            9.43849778661217        1.48004756450985       -4.26932932982605
H            7.38835900168092        2.80919019510889       -4.08975828182988
H            5.82732575224086        2.49305106651672       -2.20933201734599
H            4.11986084062752       -0.73201012761971        0.36945177355736
H           -3.35674027490963       -2.48303518760496       -1.59666798792597
H           -3.12183386823783       -5.27574730463694        0.31830254665272
H           -2.50677863745424       -4.51746114754599       -1.14916682305971
H           -3.01784655401010       -6.20319406772685       -1.18093167006302
H           -4.62751438075611       -5.67508042570450       -3.10683920087880
H           -5.82283088593241       -4.38892137019024       -2.91375345279815
H           -4.11443753498287       -3.98976972148823       -3.07290129708806
H           -5.37369481859169       -6.83859395693118       -1.09917876980013
H           -5.54212264327138       -6.02400888572173        0.45167441428560
H           -6.65689172726863       -5.65492788167518       -0.87750179016253
H           -6.60960539488558       -4.03875622991407        0.71791381769403
H           -7.01470490104421       -1.83927660380790        1.67411193647199

          :  Hamiltonian                  GFN2-xTB          :
         :: gradient norm              0.000032567251 Eh/a0 ::
         :: HOMO-LUMO gap              3.015230531979 eV    ::
         :: SCC energy              -155.621079661464 Eh    ::
         :: -> dispersion             -0.148626429058 Eh    ::
         :: -> Gsolv                  -0.059881038661 Eh    ::
         :: repulsion energy           2.785888549083 Eh    ::

    * Orbital Energies and Occupations

         #    Occupation            Energy/Eh            Energy/eV
      -------------------------------------------------------------
         1        2.0000           -0.6784382             -18.4612
       ...           ...                  ...                  ...
       131        2.0000           -0.4097997             -11.1512
       132        2.0000           -0.4095607             -11.1447
       133        2.0000           -0.4070946             -11.0776
       134        2.0000           -0.4057697             -11.0416
       135        2.0000           -0.4006446             -10.9021
       136        2.0000           -0.3974709             -10.8157
       137        2.0000           -0.3938698             -10.7177
       138        2.0000           -0.3799155             -10.3380
       139        2.0000           -0.3791329             -10.3167
       140        2.0000           -0.3717045             -10.1146
       141        2.0000           -0.3703793             -10.0785
       142        2.0000           -0.3648956              -9.9293
       143        2.0000           -0.3618694              -9.8470 (HOMO)
       144                         -0.2510617              -6.8317 (LUMO)
       145                         -0.2491931              -6.7809
       146                         -0.2474185              -6.7326
       147                         -0.2463901              -6.7046
       148                         -0.2390547              -6.5050
       149                         -0.2386158              -6.4931
       150                         -0.2381168              -6.4795
       151                         -0.2255768              -6.1383
       152                         -0.2224728              -6.0538
       153                         -0.2193168              -5.9679
       154                         -0.2149339              -5.8486
       ...                                ...                  ...
       283                          0.7441843              20.2503
      -------------------------------------------------------------
                  HL-Gap            0.1108077 Eh            3.0152 eV

     #   Z          covCN         q      C6AA      α(0)
     1   6 C        3.761    -0.103    22.520     6.765
     2   6 C        3.903     0.025    20.092     6.372
     3   6 C        3.761    -0.104    22.528     6.766
     4   6 C        3.761    -0.107    22.591     6.776
     5   6 C        2.974     0.006    27.892     8.663
     6   6 C        2.925    -0.044    29.099     8.846
     7   6 C        2.914    -0.039    28.963     8.825
     8   6 C        3.034    -0.005    28.118     8.698
     9   6 C        3.053    -0.002    28.021     8.681
    10   6 C        2.922    -0.041    29.026     8.835
    11   6 C        3.946     0.009    20.362     6.412
    12   6 C        2.976     0.010    27.796     8.648
    13   6 C        2.933    -0.018    28.459     8.749
    14   6 C        2.912    -0.041    29.013     8.832
    15   6 C        2.912     0.056    26.736     8.479
    16   7 N        1.835    -0.245    27.237     7.734
    17   6 C        2.917     0.058    26.690     8.472
    18   6 C        2.977     0.003    27.959     8.674
    19   6 C        2.928    -0.039    28.957     8.825
    20   6 C        2.909    -0.052    29.301     8.876
    21   6 C        3.077     0.045    26.904     8.504
    22   6 C        3.067    -0.018    28.389     8.737
    23   6 C        2.916    -0.040    28.996     8.830
    24   6 C        3.068    -0.018    28.375     8.735
    25   6 C        2.912    -0.034    28.837     8.806
    26   6 C        2.920    -0.042    29.041     8.837
    27   6 C        2.923    -0.034    28.855     8.809
    28   6 C        2.910    -0.051    29.257     8.869
    29   6 C        3.075     0.047    26.862     8.497
    30   7 N        2.801    -0.044    22.088     6.980
    31   6 C        2.912     0.067    26.508     8.443
    32   6 C        2.922    -0.047    29.165     8.856
    33   6 C        2.919    -0.027    28.665     8.780
    34   6 C        2.921    -0.047    29.159     8.855
    35   6 C        2.912     0.067    26.502     8.442
    36   7 N        2.802    -0.045    22.118     6.985
    37   6 C        3.075     0.047    26.866     8.498
    38   6 C        2.910    -0.051    29.262     8.870
    39   6 C        2.923    -0.035    28.862     8.810
    40   6 C        2.920    -0.042    29.053     8.839
    41   6 C        2.912    -0.035    28.859     8.809
    42   6 C        3.067    -0.018    28.393     8.737
    43   6 C        3.067    -0.018    28.391     8.737
    44   6 C        2.912    -0.035    28.861     8.809
    45   6 C        2.920    -0.042    29.050     8.839
    46   6 C        2.924    -0.035    28.863     8.810
    47   6 C        2.910    -0.052    29.289     8.874
    48   6 C        3.075     0.047    26.867     8.498
    49   6 C        2.925    -0.056    29.390     8.890
    50   6 C        3.056    -0.002    28.010     8.679
    51   6 C        2.921    -0.041    29.019     8.834
    52   6 C        2.974     0.006    27.879     8.661
    53   6 C        3.903     0.025    20.090     6.371
    54   6 C        3.761    -0.103    22.514     6.764
    55   6 C        3.761    -0.103    22.521     6.765
    56   6 C        3.761    -0.107    22.592     6.776
    57   6 C        2.925    -0.044    29.098     8.846
    58   6 C        2.914    -0.039    28.965     8.825
    59   6 C        3.034    -0.005    28.115     8.697
    60   1 H        0.925     0.032     2.556     2.500
    61   1 H        0.925     0.039     2.460     2.453
    62   1 H        0.925     0.035     2.515     2.480
    63   1 H        0.925     0.036     2.508     2.476
    64   1 H        0.925     0.032     2.554     2.499
    65   1 H        0.925     0.039     2.458     2.452
    66   1 H        0.925     0.038     2.475     2.460
    67   1 H        0.925     0.036     2.502     2.473
    68   1 H        0.925     0.036     2.502     2.473
    69   1 H        0.926     0.038     2.474     2.460
    70   1 H        0.926     0.028     2.609     2.526
    71   1 H        0.926     0.028     2.608     2.526
    72   1 H        0.926     0.039     2.462     2.453
    73   1 H        0.926     0.040     2.447     2.446
    74   1 H        0.925     0.035     2.514     2.479
    75   1 H        0.925     0.033     2.546     2.495
    76   1 H        0.926     0.026     2.646     2.544
    77   1 H        0.926     0.033     2.546     2.495
    78   1 H        0.926     0.033     2.545     2.495
    79   1 H        0.926     0.031     2.571     2.508
    80   1 H        0.926     0.029     2.600     2.521
    81   1 H        0.926     0.031     2.568     2.506
    82   1 H        0.926     0.028     2.615     2.529
    83   1 H        0.926     0.049     2.337     2.390
    84   1 H        0.926     0.049     2.329     2.387
    85   1 H        0.926     0.049     2.337     2.391
    86   1 H        0.926     0.027     2.635     2.538
    87   1 H        0.926     0.030     2.580     2.512
    88   1 H        0.926     0.028     2.611     2.527
    89   1 H        0.926     0.031     2.574     2.509
    90   1 H        0.926     0.031     2.575     2.510
    91   1 H        0.926     0.028     2.609     2.526
    92   1 H        0.926     0.031     2.575     2.509
    93   1 H        0.926     0.031     2.578     2.511
    94   1 H        0.926     0.050     2.325     2.384
    95   1 H        0.926     0.027     2.633     2.538
    96   1 H        0.925     0.033     2.550     2.497
    97   1 H        0.925     0.036     2.505     2.475
    98   1 H        0.925     0.039     2.460     2.453
    99   1 H        0.925     0.040     2.453     2.449
   100   1 H        0.925     0.031     2.568     2.506
   101   1 H        0.925     0.035     2.520     2.483
   102   1 H        0.925     0.038     2.471     2.458
   103   1 H        0.925     0.037     2.493     2.469
   104   1 H        0.925     0.036     2.503     2.474
   105   1 H        0.926     0.039     2.465     2.455
   106   1 H        0.926     0.029     2.599     2.521

molecular dipole:
                 x           y           z       tot (Debye)
 q only:       -0.253       0.755       0.575
   full:       -0.500       0.946       0.758       3.332

 projected vibrational frequencies (cm⁻¹)
eigval :       -0.00    -0.00     0.00     0.00     0.00     0.00
eigval :        9.29    11.95    17.88    19.50    23.47    28.63
eigval :       31.37    35.86    38.14    41.61    51.39    55.85
eigval :       59.32    65.64    78.39    81.50    86.58    94.58
eigval :      104.11   116.63   127.15   141.15   143.61   148.46
eigval :      154.62   175.21   179.02   184.06   187.61   196.55
eigval :      207.20   214.76   221.25   225.61   228.38   237.28
eigval :      246.83   256.11   267.64   269.08   271.76   276.65
eigval :      284.02   301.83   306.26   315.60   318.51   321.07
eigval :      330.22   334.14   347.86   352.65   355.09   365.44
eigval :      369.28   383.34   385.57   393.98   397.00   421.77
eigval :      423.34   424.67   427.44   431.36   431.48   437.27
eigval :      445.91   450.27   454.57   465.42   478.64   487.58
eigval :      514.53   520.31   529.66   530.57   532.62   541.86
eigval :      542.52   552.45   567.49   575.34   586.10   589.85
eigval :      598.45   599.62   611.51   616.11   624.24   629.74
eigval :      634.41   648.52   660.54   669.88   674.59   678.50
eigval :      689.34   690.34   697.43   708.40   709.74   717.29
eigval :      721.21   729.31   749.63   762.15   766.71   773.25
eigval :      776.59   779.51   790.90   799.84   808.53   822.50
eigval :      824.07   834.16   863.47   868.88   870.24   871.46
eigval :      877.24   885.49   888.20   892.38   893.29   895.79
eigval :      899.13   899.91   900.15   903.67   906.88   908.08
eigval :      908.61   913.05   913.74   915.89   916.23   919.12
eigval :      920.12   923.74   930.54   931.46   948.63   959.04
eigval :      959.70   961.13   962.05   963.18   963.40   965.87
eigval :      971.61   996.75  1008.34  1011.47  1014.33  1015.84
eigval :     1034.17  1034.77  1035.43  1035.74  1036.45  1066.60
eigval :     1070.01  1073.26  1095.59  1108.87  1112.12  1120.41
eigval :     1125.57  1126.78  1139.17  1142.22  1149.41  1154.49
eigval :     1168.53  1173.51  1176.67  1178.62  1180.77  1181.47
eigval :     1185.78  1193.92  1197.64  1200.39  1209.41  1224.57
eigval :     1224.68  1230.75  1231.92  1233.36  1234.35  1235.87
eigval :     1238.88  1243.11  1249.98  1251.60  1256.00  1268.24
eigval :     1281.51  1282.90  1284.76  1287.86  1297.84  1298.14
eigval :     1301.42  1309.05  1314.42  1327.47  1343.71  1352.04
eigval :     1356.14  1358.31  1361.55  1371.80  1374.45  1399.05
eigval :     1400.35  1401.52  1402.80  1403.53  1414.65  1416.84
eigval :     1420.37  1424.83  1426.94  1427.45  1427.64  1432.80
eigval :     1446.22  1451.83  1458.54  1469.84  1472.85  1475.65
eigval :     1477.07  1485.86  1486.81  1489.53  1489.61  1491.47
eigval :     1492.87  1498.68  1499.36  1503.05  1503.45  1510.93
eigval :     1511.30  1517.18  1517.47  1565.33  1567.34  1570.93
eigval :     1574.01  1574.70  1577.45  1580.87  1585.38  1588.15
eigval :     1593.45  1597.91  1599.44  1604.53  1610.33  1613.37
eigval :     1614.96  3019.19  3019.66  3019.89  3019.95  3023.04
eigval :     3023.32  3023.94  3024.50  3026.90  3027.38  3030.19
eigval :     3030.27  3035.18  3035.54  3041.78  3042.51  3045.40
eigval :     3045.62  3046.11  3052.94  3071.51  3072.26  3072.65
eigval :     3073.02  3073.17  3075.27  3075.60  3077.33  3078.57
eigval :     3078.84  3084.83  3085.60  3085.62  3088.02  3088.11
eigval :     3090.58  3090.88  3091.40  3092.05  3095.66  3096.07
eigval :     3097.24  3098.29  3098.37  3104.01  3111.97  3112.54

   temp. (K)  partition function   enthalpy   heat capacity  entropy
                                   cal/mol     cal/K/mol   cal/K/mol   J/K/mol
 298.15  VIB  0.887E+23            29894.604    187.887    184.701
         ROT  0.163E+09              888.752      2.981     40.562
         INT  0.145E+32            30783.356    190.868    225.263
         TR   0.204E+29             1481.254      4.968     45.751
         TOT                       32264.6099   195.8360   271.0132  1133.9194

       T/K    H(0)-H(T)+PV         H(T)/Eh          T*S/Eh         G(T)/Eh
   ------------------------------------------------------------------------
    298.15    0.514169E-01    0.903783E+00    0.128767E+00    0.775015E+00
   ------------------------------------------------------------------------

         :::::::::::::::::::::::::::::::::::::::::::::::::::::
         ::                  THERMODYNAMIC                  ::
         :::::::::::::::::::::::::::::::::::::::::::::::::::::
         :: total free energy        -152.060175650777 Eh   ::
         ::.................................................::
         :: total energy             -152.835191113134 Eh   ::
         :: zero point energy           0.852365664217 Eh   ::
         :: G(RRHO) w/o ZPVE           -0.077350201860 Eh   ::
         :: G(RRHO) contrib.            0.775015462358 Eh   ::
         :::::::::::::::::::::::::::::::::::::::::::::::::::::

           -------------------------------------------------
          | TOTAL ENERGY             -152.835191113134 Eh   |
          | TOTAL ENTHALPY           -151.931408520235 Eh   |
          | TOTAL FREE ENERGY        -152.060175650777 Eh   |
          | GRADIENT NORM               0.000032553229 Eh/α |
          | HOMO-LUMO GAP               3.015230423519 eV   |
           -------------------------------------------------

 * finished run on 2025/08/24 at 22:01:06.327
