   * xtb version 6.7.1 (edcfbbe) compiled by 'albert@albert-system' on 2024-07-22

   ID    Z sym.   atoms
    1    6 C      1-5, 7-11, 13-22, 24-31, 33-47
    2    7 N      6, 23, 32
    3    8 O      12
    4    1 H      48-82

          program call               : xtb data2507/toluene/BIPOCz/BIPOCz_toluene_T1_crest.xyz --gfn 2 --uhf 2 --gbsa toluene --ohess vtight --parallel 40 --molden --ceasefiles --namespace data2507/toluene/BIPOCz/BIPOCz_toluene_T1_finalOpt
      * Solvation model:               GBSA
        Solvent                        toluene
        Solvent mass                       9.2140E+01 g/mol
          :  Hamiltonian                  GFN2-xTB          :
 * total energy  :  -122.7764397 Eh     change       -0.1021704E-08 Eh
 * total energy  :  -122.7765152 Eh     change       -0.7548352E-04 Eh
 * total energy  :  -122.7765622 Eh     change       -0.4696283E-04 Eh
 * total energy  :  -122.7765798 Eh     change       -0.1766809E-04 Eh
 * total energy  :  -122.7765992 Eh     change       -0.1939368E-04 Eh
 * total energy  :  -122.7766109 Eh     change       -0.1170694E-04 Eh
 * total energy  :  -122.7766176 Eh     change       -0.6719643E-05 Eh
 * total energy  :  -122.7766225 Eh     change       -0.4802673E-05 Eh
 * total energy  :  -122.7766271 Eh     change       -0.4691448E-05 Eh
 * total energy  :  -122.7766322 Eh     change       -0.5078433E-05 Eh
 * total energy  :  -122.7766523 Eh     change       -0.1429865E-06 Eh
 * total energy  :  -122.7766528 Eh     change       -0.4529321E-06 Eh
 * total energy  :  -122.7766523 Eh     change        0.4288844E-06 Eh
 * total energy  :  -122.7766529 Eh     change       -0.5821876E-06 Eh
 * total energy  :  -122.7766530 Eh     change       -0.1005049E-06 Eh
 * total energy  :  -122.7766533 Eh     change       -0.2718588E-06 Eh
 * total energy  :  -122.7766535 Eh     change       -0.1485951E-06 Eh
 * total energy  :  -122.7766536 Eh     change       -0.1014880E-06 Eh
 * total energy  :  -122.7766536 Eh     change       -0.2047159E-07 Eh
   *** GEOMETRY OPTIMIZATION CONVERGED AFTER 30 ITERATIONS ***

 final structure:
================
82
 xtb: 6.7.1 (edcfbbe)
C           -3.72048339025987       -4.72999998388613       -1.85388807224440
C           -2.36771434805411       -4.60009626441695       -1.56418801151112
C           -1.83952547355077       -3.36405213741176       -1.26153047395334
C           -2.65760345584881       -2.22622432758543       -1.22297549386598
C           -2.04839311205362       -0.95394502408550       -0.92075997095683
N           -0.78555612890659       -0.73411558045649       -1.24265633682831
C           -0.49218305925377        0.54184333296182       -0.95922311193561
C            0.82529648191876        1.02778490708968       -1.04944423227105
C            1.31730642728886        2.19338000555235       -0.40523571106339
C            2.64063878654544        2.53098130322100       -0.48951921050698
C            3.55363073792942        1.74942718253080       -1.21907670603294
O            4.83715954240881        2.18730017440672       -1.19440956490334
C            5.86575812132450        1.45518402069618       -1.83492344155251
C            6.26881798584258        0.15106842028184       -1.13689460162998
C            6.60349926490539        0.32194195105773        0.34836888452973
C            5.37466799176412        0.23280633841130        1.26080809357678
C            4.57210087267301       -1.03771915675017        1.12689406482661
C            5.14689936264751       -2.26426404981692        0.82444108945982
C            4.40057845385577       -3.43612867064535        0.72692186077798
C            3.03815600908506       -3.43615405373430        0.94463593898813
C            2.42790952613952       -2.23102873055723        1.26705861330574
C            3.19418207762256       -1.04457493878444        1.34836865424752
N            2.36069001949339       -0.01030979360865        1.70722281653572
C            1.08285838650674       -0.48067862008801        1.84726127276571
C           -0.07427665182820        0.19244348140713        2.21139007722220
C           -1.23926993943016       -0.54267028159305        2.31696621922701
C           -1.25756101343899       -1.91313102823843        2.06486703771634
C           -0.10854842646430       -2.58779748632938        1.70236681055100
C            1.07479881553131       -1.87144640968657        1.58968594698100
C            3.08184734516246        0.60237035405888       -1.87381209177917
C            1.76412991502226        0.24781512696469       -1.77608185763257
N           -1.64852372460969        1.21723599893402       -0.50520363243616
C           -1.74532833312891        2.57464285802090       -0.20619154153332
C           -2.30378926010538        3.00745038720746        1.00114011209135
C           -2.39495601599104        4.35699236805331        1.27443475884053
C           -1.93886827907220        5.29470650590914        0.35815914757604
C           -1.38450800108736        4.86966770231217       -0.84151996447564
C           -1.28725451268804        3.52341976884586       -1.12810532789557
C           -2.65076676478029        0.26374936183241       -0.40632332123982
C           -3.97520171684888        0.48083966368745        0.04232219509268
C           -4.66018815216178       -0.54792250514398        0.73976106098239
C           -5.94222352129281       -0.36303076090595        1.19429543651533
C           -6.60911515993949        0.83938450418646        0.96953340871457
C           -5.96156989400193        1.85689398822218        0.27288906047235
C           -4.67401798079736        1.69449202372920       -0.17735701053840
C           -4.01299047794558       -2.36373705743305       -1.55036378025236
C           -4.53241686770448       -3.60580760049589       -1.85776587753093
H           -4.13547949035514       -5.69920349519370       -2.08773869361242
H           -1.72860037178079       -5.47119489620966       -1.57503287528403
H           -0.79253488269138       -3.24160643719467       -1.03188145552534
H            0.66087464913007        2.79528780882491        0.20048969235223
H            3.01820476492946        3.40765521313128        0.01658031249818
H            6.71244584771906        2.14832343525612       -1.82837536031917
H            5.59262980002015        1.25019990756245       -2.87783447813347
H            7.14570319572832       -0.22138336451493       -1.66979288555242
H            5.47713679959682       -0.59190979019180       -1.23409063388443
H            7.07916460627281        1.29245351493987        0.50517890235575
H            7.32369084698306       -0.44274572334997        0.64157652510365
H            4.72492643947907        1.08612940288965        1.06209543683556
H            5.71216080081023        0.32053172476218        2.29981599117209
H            6.21121309526827       -2.32403905743847        0.65876091876266
H            4.90602099443309       -4.35917131164462        0.48259105066840
H            2.46081496160003       -4.34566310485423        0.87655952456890
H            2.62415535976203        0.95771148495057        1.77044533445241
H           -0.06261791172392        1.25474829588216        2.40834123696403
H           -2.15746869705787       -0.05089426783151        2.60562292573632
H           -2.18676947345967       -2.45561141241733        2.16216582119207
H           -0.12994473709214       -3.65112530579596        1.51727130198413
H            3.74646614181988       -0.01032163522848       -2.46090320282913
H            1.39957337035576       -0.64112465991134       -2.26505230229425
H           -2.65118810358871        2.27804234325152        1.71652660371145
H           -2.82148187639319        4.68153777904372        2.21237287990763
H           -2.01603572958647        6.34880154809023        0.57679404139390
H           -1.03395068095238        5.59388517815683       -1.56221091406185
H           -0.86506178961923        3.18782359053623       -2.06428661427437
H           -4.13722009190350       -1.46900692914750        0.94556036255357
H           -6.43484913528450       -1.15562784402703        1.73957751901710
H           -7.61693700483366        0.98014547701295        1.32900831688987
H           -6.47981299461222        2.78480566072460        0.07575424719953
H           -4.20759999034447        2.47791022102300       -0.75464953870109
H           -4.64667558201096       -1.49127416694290       -1.59429893675502
H           -5.57919597634909       -3.69728966166728       -2.10964950342010

          :  Hamiltonian                  GFN2-xTB          :
         :: gradient norm              0.000069414601 Eh/a0 ::
         :: HOMO-LUMO gap              0.476257733046 eV    ::
         :: SCC energy              -124.943452557743 Eh    ::
         :: -> dispersion             -0.128913434686 Eh    ::
         :: -> Gsolv                  -0.042820518931 Eh    ::
         :: repulsion energy           2.166798983941 Eh    ::

    * Orbital Energies and Occupations

         #    Occupation            Energy/Eh            Energy/eV
      -------------------------------------------------------------
         1        2.0000           -0.7235833             -19.6897
       ...           ...                  ...                  ...
       103        2.0000           -0.4139145             -11.2632
       104        2.0000           -0.4106317             -11.1739
       105        2.0000           -0.4077786             -11.0962
       106        2.0000           -0.4064078             -11.0589
       107        2.0000           -0.4025227             -10.9532
       108        2.0000           -0.3993086             -10.8657
       109        2.0000           -0.3903788             -10.6227
       110        2.0000           -0.3867919             -10.5251
       111        2.0000           -0.3814606             -10.3801
       112        2.0000           -0.3758029             -10.2261
       113        1.9986           -0.3637750              -9.8988
       114        1.0014           -0.3512944              -9.5592
       115        0.9999           -0.2684244              -7.3042 (HOMO)
       116        0.0001           -0.2509223              -6.8279 (LUMO)
       117                         -0.2421872              -6.5902
       118                         -0.2306516              -6.2763
       119                         -0.2283112              -6.2127
       120                         -0.2254843              -6.1357
       121                         -0.2233657              -6.0781
       122                         -0.2200103              -5.9868
       123                         -0.2167858              -5.8990
       124                         -0.2145782              -5.8390
       125                         -0.1920672              -5.2264
       126                         -0.1841192              -5.0101
       ...                                ...                  ...
       223                          0.7470057              20.3271
      -------------------------------------------------------------
                  HL-Gap            0.0175021 Eh            0.4763 eV

     #   Z          covCN         q      C6AA      α(0)
     1   6 C        2.919    -0.029    28.726     8.789
     2   6 C        2.916    -0.029    28.716     8.787
     3   6 C        2.927    -0.026    28.663     8.780
     4   6 C        2.974     0.006    27.880     8.661
     5   6 C        3.125     0.086    25.914     8.336
     6   7 N        1.888    -0.300    28.623     7.931
     7   6 C        3.110     0.133    24.950     8.183
     8   6 C        2.969    -0.013    28.346     8.733
     9   6 C        2.914    -0.043    29.070     8.841
    10   6 C        2.914    -0.058    29.440     8.897
    11   6 C        2.857     0.141    24.925     8.183
    12   8 O        1.705    -0.270    18.472     5.803
    13   6 C        3.687     0.075    19.517     6.324
    14   6 C        3.799    -0.070    21.837     6.654
    15   6 C        3.800    -0.055    21.568     6.612
    16   6 C        3.805    -0.060    21.643     6.623
    17   6 C        2.957    -0.011    28.296     8.725
    18   6 C        2.929    -0.046    29.133     8.852
    19   6 C        2.919    -0.045    29.121     8.849
    20   6 C        2.912    -0.038    28.954     8.823
    21   6 C        3.075    -0.018    28.370     8.733
    22   6 C        3.071     0.046    26.906     8.505
    23   7 N        2.758    -0.129    23.791     7.244
    24   6 C        3.070     0.058    26.633     8.462
    25   6 C        2.910    -0.056    29.384     8.889
    26   6 C        2.924    -0.033    28.812     8.802
    27   6 C        2.920    -0.041    29.022     8.834
    28   6 C        2.912    -0.033    28.811     8.802
    29   6 C        3.071    -0.014    28.289     8.721
    30   6 C        2.910    -0.061    29.512     8.908
    31   6 C        2.928    -0.033    28.833     8.806
    32   7 N        2.805    -0.070    22.596     7.060
    33   6 C        2.908     0.058    26.689     8.471
    34   6 C        2.920    -0.044    29.102     8.846
    35   6 C        2.918    -0.031    28.764     8.795
    36   6 C        2.918    -0.041    29.016     8.833
    37   6 C        2.918    -0.031    28.773     8.796
    38   6 C        2.921    -0.046    29.139     8.852
    39   6 C        3.015     0.030    27.320     8.574
    40   6 C        2.964    -0.006    28.172     8.706
    41   6 C        2.922    -0.037    28.923     8.819
    42   6 C        2.913    -0.032    28.786     8.798
    43   6 C        2.917    -0.039    28.981     8.828
    44   6 C        2.914    -0.031    28.778     8.797
    45   6 C        2.918    -0.039    28.963     8.825
    46   6 C        2.921    -0.033    28.832     8.805
    47   6 C        2.917    -0.029    28.732     8.790
    48   1 H        0.926     0.038     2.469     2.457
    49   1 H        0.926     0.039     2.464     2.455
    50   1 H        0.926     0.049     2.332     2.388
    51   1 H        0.926     0.035     2.522     2.484
    52   1 H        0.926     0.044     2.392     2.418
    53   1 H        0.924     0.059     2.217     2.328
    54   1 H        0.924     0.037     2.488     2.467
    55   1 H        0.924     0.047     2.358     2.402
    56   1 H        0.925     0.052     2.301     2.372
    57   1 H        0.924     0.042     2.417     2.431
    58   1 H        0.924     0.042     2.422     2.434
    59   1 H        0.924     0.037     2.496     2.470
    60   1 H        0.924     0.042     2.417     2.431
    61   1 H        0.926     0.040     2.442     2.444
    62   1 H        0.926     0.030     2.586     2.515
    63   1 H        0.926     0.031     2.578     2.511
    64   1 H        0.860     0.162     1.325     1.803
    65   1 H        0.926     0.021     2.715     2.577
    66   1 H        0.926     0.022     2.707     2.573
    67   1 H        0.926     0.022     2.701     2.570
    68   1 H        0.926     0.034     2.534     2.490
    69   1 H        0.926     0.047     2.359     2.402
    70   1 H        0.926     0.053     2.281     2.362
    71   1 H        0.926     0.030     2.584     2.514
    72   1 H        0.926     0.034     2.524     2.484
    73   1 H        0.926     0.034     2.529     2.487
    74   1 H        0.926     0.035     2.515     2.480
    75   1 H        0.926     0.028     2.613     2.528
    76   1 H        0.926     0.027     2.622     2.532
    77   1 H        0.926     0.029     2.600     2.522
    78   1 H        0.926     0.028     2.615     2.529
    79   1 H        0.926     0.027     2.627     2.535
    80   1 H        0.926     0.021     2.717     2.578
    81   1 H        0.926     0.033     2.551     2.498
    82   1 H        0.926     0.036     2.500     2.473

molecular dipole:
                 x           y           z       tot (Debye)
 q only:        1.709      -0.007      -0.123
   full:        1.421       0.466      -0.081       3.807

 projected vibrational frequencies (cm⁻¹)
eigval :       -0.00    -0.00    -0.00    -0.00    -0.00     0.00
eigval :       17.10    24.32    25.86    28.52    31.65    42.24
eigval :       46.75    48.48    57.64    60.44    72.63    75.31
eigval :       84.16    99.96   108.13   120.26   124.50   131.54
eigval :      136.83   147.90   158.09   169.89   205.72   216.10
eigval :      220.70   225.69   233.93   237.39   250.88   253.83
eigval :      265.13   274.19   283.06   302.27   304.29   308.35
eigval :      333.85   361.91   375.03   380.46   385.21   393.96
eigval :      395.99   407.02   418.52   424.13   428.42   440.10
eigval :      447.22   456.19   472.27   483.80   486.72   489.00
eigval :      518.20   532.93   536.14   541.90   553.34   575.41
eigval :      577.36   579.37   585.42   587.00   594.28   605.04
eigval :      621.18   629.80   636.06   640.90   648.91   659.38
eigval :      666.75   671.33   679.73   695.64   702.35   711.29
eigval :      726.43   734.61   753.29   758.52   776.68   782.21
eigval :      794.20   799.28   825.31   829.56   845.67   851.45
eigval :      857.40   860.29   861.50   864.88   866.65   869.41
eigval :      871.26   880.31   887.06   898.73   900.25   904.88
eigval :      909.20   913.01   915.01   917.40   918.56   920.42
eigval :      920.98   922.42   925.05   926.45   928.18   931.41
eigval :      954.02   970.29   978.90   982.91   992.36  1008.39
eigval :     1046.57  1057.52  1067.32  1068.45  1073.52  1074.16
eigval :     1077.76  1088.20  1100.15  1110.85  1115.37  1117.35
eigval :     1121.66  1127.97  1137.64  1143.10  1153.60  1162.10
eigval :     1169.88  1173.01  1174.60  1175.44  1177.50  1181.78
eigval :     1184.58  1189.41  1192.90  1195.67  1199.35  1225.18
eigval :     1229.62  1232.01  1234.38  1246.95  1254.39  1266.88
eigval :     1271.36  1273.35  1274.67  1276.57  1285.33  1312.63
eigval :     1317.68  1319.05  1322.07  1325.31  1328.53  1331.36
eigval :     1332.75  1340.83  1345.56  1352.94  1358.37  1367.85
eigval :     1375.51  1399.44  1402.86  1404.52  1408.34  1422.22
eigval :     1426.31  1429.99  1430.71  1438.72  1457.40  1459.46
eigval :     1466.41  1471.69  1477.71  1481.45  1488.01  1488.28
eigval :     1495.49  1504.58  1534.27  1536.01  1547.80  1554.80
eigval :     1563.82  1573.59  1577.88  1588.74  1595.93  1598.60
eigval :     1612.10  2900.92  2925.96  2958.76  2973.74  2982.80
eigval :     2995.13  3001.59  3008.44  3065.46  3066.09  3067.81
eigval :     3071.78  3072.07  3072.33  3073.69  3074.13  3075.75
eigval :     3079.91  3083.87  3084.18  3087.01  3087.91  3088.14
eigval :     3090.92  3092.69  3094.39  3096.52  3098.93  3100.14
eigval :     3101.39  3103.93  3105.19  3115.81  3120.74  3484.73

   temp. (K)  partition function   enthalpy   heat capacity  entropy
                                   cal/mol     cal/K/mol   cal/K/mol   J/K/mol
 298.15  VIB  0.559E+17            22792.179    145.657    140.309
         ROT  0.513E+08              888.752      2.981     38.262
         INT  0.287E+25            23680.931    148.638    178.571
         TR   0.146E+29             1481.254      4.968     45.086
         TOT                       25162.1851   153.6065   223.6577   935.7840

       T/K    H(0)-H(T)+PV         H(T)/Eh          T*S/Eh         G(T)/Eh
   ------------------------------------------------------------------------
    298.15    0.400985E-01    0.686316E+00    0.106267E+00    0.580049E+00
   ------------------------------------------------------------------------

         :::::::::::::::::::::::::::::::::::::::::::::::::::::
         ::                  THERMODYNAMIC                  ::
         :::::::::::::::::::::::::::::::::::::::::::::::::::::
         :: total free energy        -122.196604936410 Eh   ::
         ::.................................................::
         :: total energy             -122.776653567101 Eh   ::
         :: zero point energy           0.646217144488 Eh   ::
         :: G(RRHO) w/o ZPVE           -0.066168513797 Eh   ::
         :: G(RRHO) contrib.            0.580048630691 Eh   ::
         :::::::::::::::::::::::::::::::::::::::::::::::::::::

           -------------------------------------------------
          | TOTAL ENERGY             -122.776653567101 Eh   |
          | TOTAL ENTHALPY           -122.090337928278 Eh   |
          | TOTAL FREE ENERGY        -122.196604936410 Eh   |
          | GRADIENT NORM               0.000068828799 Eh/α |
          | HOMO-LUMO GAP               0.476257399989 eV   |
           -------------------------------------------------

 * finished run on 2025/09/11 at 12:30:18.032
