   * xtb version 6.7.1 (edcfbbe) compiled by 'albert@albert-system' on 2024-07-22

   ID    Z sym.   atoms
    1    6 C      1-5, 7-11, 13-22, 24-31, 33-47
    2    7 N      6, 23, 32
    3    8 O      12
    4    1 H      48-82

          program call               : xtb data2507/toluene/BIPOCz/BIPOCz.xyz --gfn 2 --gbsa toluene --ohess vtight --parallel 40 --molden --ceasefiles --namespace data2507/toluene/BIPOCz/BIPOCz_toluene_S0_preOpt
      * Solvation model:               GBSA
        Solvent                        toluene
        Solvent mass                       9.2140E+01 g/mol
          :  Hamiltonian                  GFN2-xTB          :
 * total energy  :  -122.8422511 Eh     change       -0.2559432E-08 Eh
 * total energy  :  -122.8535945 Eh     change       -0.1134345E-01 Eh
 * total energy  :  -122.8559306 Eh     change       -0.2336122E-02 Eh
 * total energy  :  -122.8565119 Eh     change       -0.5812480E-03 Eh
 * total energy  :  -122.8569943 Eh     change       -0.4824641E-03 Eh
 * total energy  :  -122.8573385 Eh     change       -0.3441849E-03 Eh
 * total energy  :  -122.8577112 Eh     change       -0.3726852E-03 Eh
 * total energy  :  -122.8581331 Eh     change       -0.4218489E-03 Eh
 * total energy  :  -122.8585953 Eh     change       -0.4622271E-03 Eh
 * total energy  :  -122.8590094 Eh     change       -0.4140648E-03 Eh
 * total energy  :  -122.8647309 Eh     change       -0.6599686E-06 Eh
 * total energy  :  -122.8647316 Eh     change       -0.6380179E-06 Eh
 * total energy  :  -122.8647322 Eh     change       -0.6044556E-06 Eh
 * total energy  :  -122.8647327 Eh     change       -0.5583681E-06 Eh
 * total energy  :  -122.8647332 Eh     change       -0.5128449E-06 Eh
 * total energy  :  -122.8647337 Eh     change       -0.4869465E-06 Eh
 * total energy  :  -122.8647342 Eh     change       -0.4556407E-06 Eh
 * total energy  :  -122.8647347 Eh     change       -0.5093605E-06 Eh
 * total energy  :  -122.8647347 Eh     change       -0.4244185E-08 Eh
   *** GEOMETRY OPTIMIZATION CONVERGED AFTER 122 ITERATIONS ***

 final structure:
================
82
 xtb: 6.7.1 (edcfbbe)
C           -7.08438859950193       -5.22344839997604        0.67702389367725
C           -5.74974455220851       -5.08209808276533        1.02252709471592
C           -5.11014747443224       -3.87116781530690        0.84074557000051
C           -5.79809425494839       -2.77782282506827        0.31435275119734
C           -5.09071545071304       -1.51797066003525        0.13439891057287
N           -3.74193069836392       -1.50244011244931       -0.06338812031429
C           -3.39046496333329       -0.24959595607657       -0.22449666825371
C           -2.01268210551053        0.17120822480973       -0.41411833946611
C           -1.14528466523408       -0.68219634740207       -1.09185492723364
C            0.18512951670790       -0.35788681182154       -1.27301395220391
C            0.68493578736573        0.83830411650903       -0.76370931974004
O            1.97221141861547        1.25571014573396       -0.87066171157625
C            2.92878299475872        0.39153299709098       -1.46308250976161
C            4.30960492963791        1.01882238178094       -1.29351882847022
C            4.72787497493973        1.16512642882158        0.17038979848913
C            5.01803294402000       -0.17376766896281        0.86620443721906
C            6.15839322143696       -0.91301518126048        0.22456402558637
C            5.95211377623309       -1.97754642376379       -0.63852381886051
C            7.00490471622618       -2.65155979643940       -1.25454078240650
C            8.31568371241430       -2.28664250156335       -1.02582895471131
C            8.56328744218614       -1.22705995542747       -0.16095728770214
C            7.48433854547291       -0.54854496766111        0.45263759975759
N            7.98733366791638        0.44753647624314        1.25421178399552
C            9.35641494793344        0.43506596909618        1.19053096393333
C           10.28027514613280        1.24720878199987        1.83191155980749
C           11.61999298041814        1.01717164689788        1.58325613992961
C           12.03435685546185        0.00574749058322        0.71779441221608
C           11.11845700128740       -0.80572245761082        0.07740666707714
C            9.76497792093985       -0.59560344080519        0.31096982633317
C           -0.17973278777455        1.69318854410817       -0.07462170159350
C           -1.50528238731685        1.36519900448722        0.10122881984719
N           -4.47819363585608        0.58061996771398       -0.14323470714012
C           -4.50806178246033        1.97945494525745       -0.30804632883333
C           -3.97695095336716        2.55073770648122       -1.45967981524618
C           -4.01835079392746        3.92296481465899       -1.62537695728878
C           -4.59398335742831        4.72619828642795       -0.65409098540369
C           -5.12526389054278        4.15491148446504        0.49042466572570
C           -5.08225496615127        2.78394409810556        0.66979619942545
C           -5.57456053108100       -0.22127911552597        0.09684439565046
C           -6.92157277879772        0.30891513213664        0.27083601126677
C           -7.46924419510113        1.19918210262059       -0.65118881288831
C           -8.74611282836578        1.69725787820066       -0.46691953965045
C           -9.49150181005419        1.31620456334311        0.63650033470838
C           -8.95616507528400        0.42699012342957        1.55530293606196
C           -7.68058153026009       -0.07347154879628        1.37676375780118
C           -7.13472650209074       -2.93441335071429       -0.04895474929198
C           -7.77071754347028       -4.14784069631336        0.13670532122037
H           -7.58602977423719       -6.16935295344627        0.82171357282743
H           -5.20640129132582       -5.91998563371337        1.43587107843234
H           -4.06981643702277       -3.74798348865667        1.10178761506320
H           -1.53359426602730       -1.61252157252603       -1.47713489904953
H            0.82063276079360       -1.04137793645875       -1.81326068837051
H            2.70710585203227        0.26558810614208       -2.53177055725089
H            2.89196290921087       -0.59179987486430       -0.98069973700666
H            4.29022567419729        2.00823968477326       -1.75404848324889
H            5.03548066097221        0.40338227306170       -1.82715757008247
H            3.93286379428094        1.68232835725838        0.71088650156266
H            5.62374568341948        1.78836412002272        0.20511573492017
H            4.12410148814868       -0.79822408122355        0.84680320591252
H            5.25320083522378        0.02382115590365        1.91572019621624
H            4.94004271507508       -2.30029240827962       -0.83794815480392
H            6.78409092777241       -3.47418957412322       -1.91932389604158
H            9.13083109132898       -2.81062590174882       -1.50192758378285
H            7.43983512443229        1.07128562709946        1.82174722301548
H            9.96318984918824        2.03205174084472        2.50316297786364
H           12.36325110208231        1.63286296431347        2.06906842860384
H           13.09121851904288       -0.14236895338052        0.54920635781180
H           11.44488347301013       -1.58858352706232       -0.59120861458241
H            0.21942997566731        2.61244307035317        0.32532951219024
H           -2.14269223639203        2.03222202683245        0.66168474313018
H           -3.53505685648278        1.91594033532567       -2.21374641247428
H           -3.60450452925596        4.36388365299446       -2.51974679304939
H           -4.62884606445887        5.79654354579495       -0.78977366798682
H           -5.57303899956923        4.77692400438640        1.25082378449234
H           -5.48855379025235        2.33276231927158        1.56294178506714
H           -6.89733857894133        1.49036134531529       -1.52082948615553
H           -9.16026062695331        2.38462442165936       -1.19027829849517
H          -10.48765657047563        1.70819109453947        0.77941189283195
H           -9.53368751928025        0.12500235198502        2.41693259705023
H           -7.25854931971887       -0.76501534989773        2.09199595195559
H           -7.67271452732283       -2.10647262574784       -0.48679150329639
H           -8.80774443470941       -4.25613951189687       -0.14807987139715

          :  Hamiltonian                  GFN2-xTB          :
         :: gradient norm              0.000055250796 Eh/a0 ::
         :: HOMO-LUMO gap              2.890946347169 eV    ::
         :: SCC energy              -125.052071934567 Eh    ::
         :: -> dispersion             -0.106013018983 Eh    ::
         :: -> Gsolv                  -0.052322111177 Eh    ::
         :: repulsion energy           2.187337240601 Eh    ::

    * Orbital Energies and Occupations

         #    Occupation            Energy/Eh            Energy/eV
      -------------------------------------------------------------
         1        2.0000           -0.7183966             -19.5486
       ...           ...                  ...                  ...
       102        2.0000           -0.4148985             -11.2900
       103        2.0000           -0.4130143             -11.2387
       104        2.0000           -0.4126751             -11.2295
       105        2.0000           -0.4098555             -11.1527
       106        2.0000           -0.4082784             -11.1098
       107        2.0000           -0.4002814             -10.8922
       108        2.0000           -0.3990789             -10.8595
       109        2.0000           -0.3975921             -10.8190
       110        2.0000           -0.3859635             -10.5026
       111        2.0000           -0.3767984             -10.2532
       112        2.0000           -0.3750310             -10.2051
       113        2.0000           -0.3626047              -9.8670
       114        2.0000           -0.3597635              -9.7897 (HOMO)
       115                         -0.2535232              -6.8987 (LUMO)
       116                         -0.2411730              -6.5627
       117                         -0.2410570              -6.5595
       118                         -0.2381509              -6.4804
       119                         -0.2348126              -6.3896
       120                         -0.2282349              -6.2106
       121                         -0.2271522              -6.1811
       122                         -0.2188766              -5.9559
       123                         -0.2179968              -5.9320
       124                         -0.2174942              -5.9183
       125                         -0.1906246              -5.1872
       ...                                ...                  ...
       223                          0.7463151              20.3083
      -------------------------------------------------------------
                  HL-Gap            0.1062403 Eh            2.8909 eV

     #   Z          covCN         q      C6AA      α(0)
     1   6 C        2.919    -0.034    28.845     8.807
     2   6 C        2.918    -0.031    28.784     8.798
     3   6 C        2.927    -0.032    28.795     8.800
     4   6 C        2.973     0.006    27.887     8.662
     5   6 C        3.162     0.053    26.486     8.412
     6   7 N        1.913    -0.319    29.111     8.000
     7   6 C        3.156     0.130    24.876     8.156
     8   6 C        2.972    -0.013    28.328     8.730
     9   6 C        2.929    -0.031    28.782     8.798
    10   6 C        2.916    -0.067    29.666     8.932
    11   6 C        2.862     0.143    24.875     8.175
    12   8 O        1.705    -0.282    18.679     5.835
    13   6 C        3.691     0.083    19.378     6.299
    14   6 C        3.800    -0.064    21.722     6.636
    15   6 C        3.802    -0.055    21.566     6.612
    16   6 C        3.806    -0.062    21.689     6.630
    17   6 C        2.959    -0.011    28.297     8.725
    18   6 C        2.929    -0.045    29.122     8.850
    19   6 C        2.919    -0.046    29.141     8.852
    20   6 C        2.912    -0.039    28.977     8.827
    21   6 C        3.072    -0.020    28.420     8.741
    22   6 C        3.074     0.046    26.890     8.502
    23   7 N        2.756    -0.121    23.638     7.221
    24   6 C        3.070     0.053    26.734     8.478
    25   6 C        2.909    -0.057    29.418     8.894
    26   6 C        2.924    -0.035    28.879     8.813
    27   6 C        2.920    -0.044    29.101     8.846
    28   6 C        2.912    -0.035    28.878     8.812
    29   6 C        3.071    -0.018    28.395     8.737
    30   6 C        2.919    -0.056    29.396     8.891
    31   6 C        2.921    -0.036    28.889     8.814
    32   7 N        2.849    -0.047    22.136     6.988
    33   6 C        2.913     0.066    26.527     8.446
    34   6 C        2.922    -0.039    28.959     8.825
    35   6 C        2.920    -0.026    28.649     8.777
    36   6 C        2.919    -0.029    28.736     8.791
    37   6 C        2.920    -0.026    28.659     8.779
    38   6 C        2.921    -0.038    28.952     8.824
    39   6 C        3.069     0.015    27.600     8.614
    40   6 C        2.971     0.006    27.881     8.661
    41   6 C        2.924    -0.034    28.853     8.809
    42   6 C        2.918    -0.030    28.741     8.791
    43   6 C        2.920    -0.031    28.776     8.797
    44   6 C        2.918    -0.029    28.715     8.787
    45   6 C        2.925    -0.033    28.826     8.805
    46   6 C        2.923    -0.039    28.974     8.827
    47   6 C        2.919    -0.032    28.790     8.799
    48   1 H        0.926     0.031     2.577     2.511
    49   1 H        0.926     0.031     2.570     2.507
    50   1 H        0.926     0.042     2.423     2.434
    51   1 H        0.926     0.049     2.335     2.390
    52   1 H        0.926     0.042     2.419     2.432
    53   1 H        0.923     0.031     2.570     2.507
    54   1 H        0.924     0.037     2.483     2.464
    55   1 H        0.924     0.050     2.317     2.380
    56   1 H        0.924     0.050     2.324     2.384
    57   1 H        0.924     0.047     2.361     2.403
    58   1 H        0.924     0.037     2.491     2.468
    59   1 H        0.924     0.041     2.442     2.444
    60   1 H        0.924     0.036     2.502     2.474
    61   1 H        0.926     0.028     2.622     2.532
    62   1 H        0.926     0.025     2.652     2.547
    63   1 H        0.926     0.027     2.624     2.533
    64   1 H        0.860     0.163     1.315     1.796
    65   1 H        0.926     0.027     2.626     2.534
    66   1 H        0.926     0.028     2.608     2.525
    67   1 H        0.926     0.026     2.650     2.546
    68   1 H        0.926     0.028     2.611     2.527
    69   1 H        0.926     0.048     2.341     2.393
    70   1 H        0.926     0.034     2.530     2.487
    71   1 H        0.926     0.037     2.487     2.466
    72   1 H        0.926     0.046     2.369     2.407
    73   1 H        0.926     0.047     2.362     2.403
    74   1 H        0.926     0.046     2.374     2.410
    75   1 H        0.926     0.039     2.464     2.455
    76   1 H        0.926     0.025     2.658     2.550
    77   1 H        0.926     0.034     2.524     2.485
    78   1 H        0.926     0.036     2.505     2.475
    79   1 H        0.926     0.035     2.510     2.477
    80   1 H        0.926     0.029     2.600     2.521
    81   1 H        0.926     0.024     2.680     2.560
    82   1 H        0.926     0.029     2.597     2.520

molecular dipole:
                 x           y           z       tot (Debye)
 q only:        0.016       1.611       0.103
   full:       -0.312       1.898       0.130       4.901

 projected vibrational frequencies (cm⁻¹)
eigval :       -0.00    -0.00    -0.00     0.00     0.00     0.00
eigval :        5.31     7.53    10.75    20.65    23.31    24.66
eigval :       35.40    35.76    43.86    48.94    55.86    63.92
eigval :       70.70    75.98    79.96    89.64   106.61   116.90
eigval :      121.90   128.12   152.38   166.48   175.92   192.95
eigval :      217.54   224.96   227.95   235.12   243.75   256.56
eigval :      269.04   274.26   283.22   313.24   324.52   335.16
eigval :      362.18   369.43   374.89   378.66   381.91   384.01
eigval :      391.96   410.32   421.60   436.14   441.75   452.91
eigval :      464.82   481.51   485.33   486.73   494.02   510.59
eigval :      520.42   529.64   531.28   540.04   556.58   584.36
eigval :      586.38   588.34   597.28   600.79   614.20   617.18
eigval :      632.54   645.38   653.69   660.65   665.34   674.09
eigval :      682.42   686.38   692.91   701.77   705.22   711.28
eigval :      738.98   761.18   761.39   770.49   775.22   786.43
eigval :      800.29   808.02   839.33   848.93   858.86   859.27
eigval :      863.17   864.55   874.74   875.04   877.81   889.01
eigval :      890.94   897.53   897.97   901.17   903.07   906.46
eigval :      918.70   919.45   920.38   925.76   928.85   929.61
eigval :      929.92   932.62   933.23   941.95   950.13   958.48
eigval :      973.85   981.74   991.80   996.76  1018.11  1033.30
eigval :     1059.34  1066.83  1074.13  1078.68  1080.45  1082.93
eigval :     1089.68  1108.64  1109.67  1116.01  1116.47  1121.37
eigval :     1128.60  1135.46  1143.11  1154.59  1163.89  1170.53
eigval :     1175.35  1176.81  1179.25  1182.27  1184.10  1185.04
eigval :     1190.32  1194.26  1195.87  1200.55  1212.16  1213.60
eigval :     1232.91  1236.00  1244.64  1268.03  1270.77  1275.31
eigval :     1276.14  1280.45  1282.95  1284.60  1312.01  1313.14
eigval :     1314.87  1319.08  1321.87  1322.92  1328.09  1332.10
eigval :     1334.25  1350.66  1353.15  1355.09  1364.45  1372.71
eigval :     1393.15  1409.67  1413.50  1428.13  1430.14  1432.28
eigval :     1434.57  1450.78  1459.03  1463.16  1473.08  1474.24
eigval :     1479.34  1487.57  1487.72  1495.55  1505.19  1535.20
eigval :     1558.82  1564.43  1577.19  1578.03  1579.65  1583.98
eigval :     1593.04  1593.08  1596.04  1598.10  1599.95  1601.86
eigval :     1615.08  2880.75  2919.12  2953.64  2973.37  2982.90
eigval :     2991.94  2994.58  2996.56  3065.34  3067.66  3067.85
eigval :     3067.97  3070.12  3071.43  3071.62  3076.56  3078.18
eigval :     3079.34  3080.13  3080.73  3081.69  3082.58  3087.35
eigval :     3087.54  3087.67  3088.53  3089.98  3092.02  3092.83
eigval :     3094.72  3094.87  3100.79  3101.13  3107.29  3487.25

   temp. (K)  partition function   enthalpy   heat capacity  entropy
                                   cal/mol     cal/K/mol   cal/K/mol   J/K/mol
 298.15  VIB  0.449E+20            22980.875    141.687    146.278
         ROT  0.126E+09              888.752      2.981     40.051
         INT  0.567E+28            23869.628    144.668    186.329
         TR   0.146E+29             1481.254      4.968     45.086
         TOT                       25350.8815   149.6358   231.4151   968.2407

       T/K    H(0)-H(T)+PV         H(T)/Eh          T*S/Eh         G(T)/Eh
   ------------------------------------------------------------------------
    298.15    0.403992E-01    0.689845E+00    0.109953E+00    0.579893E+00
   ------------------------------------------------------------------------

         :::::::::::::::::::::::::::::::::::::::::::::::::::::
         ::                  THERMODYNAMIC                  ::
         :::::::::::::::::::::::::::::::::::::::::::::::::::::
         :: total free energy        -122.284842017774 Eh   ::
         ::.................................................::
         :: total energy             -122.864734694690 Eh   ::
         :: zero point energy           0.649446247423 Eh   ::
         :: G(RRHO) w/o ZPVE           -0.069553570506 Eh   ::
         :: G(RRHO) contrib.            0.579892676917 Eh   ::
         :::::::::::::::::::::::::::::::::::::::::::::::::::::

           -------------------------------------------------
          | TOTAL ENERGY             -122.864734694690 Eh   |
          | TOTAL ENTHALPY           -122.174889246027 Eh   |
          | TOTAL FREE ENERGY        -122.284842017774 Eh   |
          | GRADIENT NORM               0.000055252923 Eh/α |
          | HOMO-LUMO GAP               2.890946703807 eV   |
           -------------------------------------------------

 * finished run on 2025/09/11 at 11:36:47.697
