   * xtb version 6.7.1 (edcfbbe) compiled by 'albert@albert-system' on 2024-07-22

   ID    Z sym.   atoms
    1    6 C      1-5, 7-11, 13-22, 24-31, 33-47
    2    7 N      6, 23, 32
    3    8 O      12
    4    1 H      48-82

          program call               : xtb data2507/toluene/BIPOCz/BIPOCz_toluene_S0_crest.xyz --gfn 2 --gbsa toluene --ohess vtight --parallel 40 --molden --ceasefiles --namespace data2507/toluene/BIPOCz/BIPOCz_toluene_S0_finalOpt
      * Solvation model:               GBSA
        Solvent                        toluene
        Solvent mass                       9.2140E+01 g/mol
          :  Hamiltonian                  GFN2-xTB          :
 * total energy  :  -122.8692657 Eh     change       -0.4172747E-08 Eh
 * total energy  :  -122.8693366 Eh     change       -0.7091454E-04 Eh
 * total energy  :  -122.8693967 Eh     change       -0.6009289E-04 Eh
 * total energy  :  -122.8694296 Eh     change       -0.3293362E-04 Eh
 * total energy  :  -122.8694614 Eh     change       -0.3183320E-04 Eh
 * total energy  :  -122.8695049 Eh     change       -0.4342395E-04 Eh
 * total energy  :  -122.8695248 Eh     change       -0.1998127E-04 Eh
 * total energy  :  -122.8695340 Eh     change       -0.9195469E-05 Eh
 * total energy  :  -122.8695481 Eh     change       -0.1402289E-04 Eh
 * total energy  :  -122.8695560 Eh     change       -0.7909911E-05 Eh
 * total energy  :  -122.8696577 Eh     change       -0.3454977E-06 Eh
 * total energy  :  -122.8696580 Eh     change       -0.2682691E-06 Eh
 * total energy  :  -122.8696582 Eh     change       -0.1944190E-06 Eh
 * total energy  :  -122.8696584 Eh     change       -0.1718345E-06 Eh
 * total energy  :  -122.8696585 Eh     change       -0.1436643E-06 Eh
 * total energy  :  -122.8696586 Eh     change       -0.1050394E-06 Eh
 * total energy  :  -122.8696587 Eh     change       -0.1094583E-06 Eh
 * total energy  :  -122.8696588 Eh     change       -0.1217194E-06 Eh
 * total energy  :  -122.8696589 Eh     change       -0.9524240E-07 Eh
   *** GEOMETRY OPTIMIZATION CONVERGED AFTER 41 ITERATIONS ***

 final structure:
================
82
 xtb: 6.7.1 (edcfbbe)
C           -4.02681254680180       -5.04431875408677       -1.10824325410104
C           -2.67132275834280       -4.93745103512438       -0.83955744508550
C           -2.07455266022901       -3.69373132978518       -0.77085989042209
C           -2.82440655699517       -2.53307912788666       -0.96313294731047
C           -2.15461536140023       -1.24366410005118       -0.87885554599595
N           -0.81921362170291       -1.14361801761264       -1.12938635919961
C           -0.49711576780306        0.12130651682933       -1.00887462089784
C            0.86870823865958        0.59596663249727       -1.12522407543904
C            1.35573011074859        1.68857828560261       -0.40839129165500
C            2.68909059093974        2.02388905617441       -0.47366990553655
C            3.58248779430125        1.28129390807034       -1.24972859255342
O            4.88087421284754        1.68031161005090       -1.17655600450174
C            5.89015753605321        0.98779043213735       -1.89086170279627
C            6.24574470507447       -0.40230185123885       -1.35377274959707
C            6.78778977634374       -0.41616735311955        0.07738768730556
C            5.71363691316603       -0.20132516115343        1.14922079042079
C            4.54546118433491       -1.15361583198520        1.08474240337760
C            4.63651297653110       -2.44952124866980        0.59959432719161
C            3.53077707278748       -3.29418660647655        0.51740114842188
C            2.27938318075483       -2.87780897744767        0.91989142871109
C            2.15235738608439       -1.59615201516485        1.43940653089850
C            3.28540679598527       -0.75591334849903        1.53215326732361
N            2.90869183231613        0.42511996042248        2.12641514849517
C            1.56498650455857        0.39430355851562        2.38848734318703
C            0.75453858421780        1.35871099621292        2.96884506206399
C           -0.58645390262523        1.06339709572683        3.12205341338955
C           -1.11158549889928       -0.15944709048176        2.70750997165677
C           -0.30690007008759       -1.12636636144775        2.13732835424329
C            1.04513912475541       -0.85464984619931        1.97502142616111
C            3.09111276750079        0.22112179120141       -2.00561333652289
C            1.75501949376657       -0.11758292016073       -1.92905174531041
N           -1.59469051386602        0.87936316786821       -0.69340508036496
C           -1.66763074141422        2.27860090302864       -0.55770168540487
C           -2.23342916518568        2.84068670236323        0.58050557589574
C           -2.32168110124586        4.21634942825007        0.69456475512639
C           -1.84886782950368        5.03300147914451       -0.31943919097757
C           -1.28581262867179        4.47106056852427       -1.45408848333426
C           -1.19819735307075        3.09680692395585       -1.58053839429915
C           -2.66240370725696        0.01213423391715       -0.59230848649186
C           -4.00907913938982        0.44710086578575       -0.24316419632388
C           -4.70617848502130       -0.20275895731547        0.77532531016128
C           -5.98046795417550        0.20386660663704        1.12170629011891
C           -6.57854822822485        1.26380834980062        0.45812207188488
C           -5.89720106692035        1.90945962189462       -0.56021881037789
C           -4.62149181430634        1.50663262565396       -0.91057236711968
C           -4.18208090826220       -2.65129084283754       -1.25619804623039
C           -4.77554205273952       -3.89834288202489       -1.32290774248869
H           -4.49619970206359       -6.01623965159924       -1.15837172326167
H           -2.07930933342632       -5.82814138025439       -0.68276961656632
H           -1.01862969638743       -3.59165253435675       -0.57134049034710
H            0.69963741055587        2.25698807582492        0.23209557454834
H            3.07342536395086        2.86237218968208        0.08761382042527
H            6.76018629068219        1.64677690393659       -1.81004395179811
H            5.61149145721822        0.91143716911340       -2.94996247985299
H            7.00812747649347       -0.80501918819213       -2.02433455156425
H            5.37313349162873       -1.05281971171652       -1.40319458280301
H            7.54294530027403        0.36573929045612        0.18662640875922
H            7.28356859930931       -1.37308102916833        0.25018766138161
H            5.33585847766001        0.81904978007586        1.05845208041771
H            6.18788449509430       -0.28795381624634        2.13341203873626
H            5.59184551086396       -2.82923033254042        0.27088014823197
H            3.66441308353429       -4.29171144929527        0.12406855601628
H            1.42119153508801       -3.52766065299669        0.84404736517232
H            3.50798945697948        1.21637311280882        2.28253391346442
H            1.15672429484459        2.30955204623720        3.28716944103224
H           -1.24050051902138        1.79422539294049        3.57598638525477
H           -2.16689930077631       -0.35141002958841        2.84045923839086
H           -0.71942125466119       -2.07133400885203        1.81710881647244
H            3.73655953867533       -0.35263864945362       -2.65047576231722
H            1.37815895026060       -0.95978244624572       -2.48841323050121
H           -2.59294952389947        2.19558204686070        1.36677413753434
H           -2.76116606220437        4.64962591298693        1.58049229415791
H           -1.91981299893518        6.10621798593055       -0.22692133145034
H           -0.91929678393050        5.10332675900582       -2.24881416536426
H           -0.76547796560835        2.64915995158747       -2.46352666792836
H           -4.23734605114211       -1.03014328636362        1.28834074765448
H           -6.50828859549251       -0.30614986743131        1.91453391494978
H           -7.57382163908774        1.58195875942041        0.73120169614998
H           -6.36121485392398        2.73033468517942       -1.08747628592616
H           -4.10109827081332        2.00607599603061       -1.71544226529791
H           -4.77093742378866       -1.76531334648777       -1.44263136780228
H           -5.82957160417686       -3.97608826367285       -1.54926133818129

          :  Hamiltonian                  GFN2-xTB          :
         :: gradient norm              0.000034559564 Eh/a0 ::
         :: HOMO-LUMO gap              2.839285406744 eV    ::
         :: SCC energy              -125.059038592604 Eh    ::
         :: -> dispersion             -0.127913608289 Eh    ::
         :: -> Gsolv                  -0.043747433934 Eh    ::
         :: repulsion energy           2.189379659051 Eh    ::

    * Orbital Energies and Occupations

         #    Occupation            Energy/Eh            Energy/eV
      -------------------------------------------------------------
         1        2.0000           -0.7184227             -19.5493
       ...           ...                  ...                  ...
       102        2.0000           -0.4122681             -11.2184
       103        2.0000           -0.4114159             -11.1952
       104        2.0000           -0.4103640             -11.1666
       105        2.0000           -0.4085584             -11.1174
       106        2.0000           -0.4067204             -11.0674
       107        2.0000           -0.3994730             -10.8702
       108        2.0000           -0.3973347             -10.8120
       109        2.0000           -0.3955586             -10.7637
       110        2.0000           -0.3837844             -10.4433
       111        2.0000           -0.3743304             -10.1860
       112        2.0000           -0.3729658             -10.1489
       113        2.0000           -0.3606273              -9.8132
       114        2.0000           -0.3572127              -9.7203 (HOMO)
       115                         -0.2528709              -6.8810 (LUMO)
       116                         -0.2403677              -6.5407
       117                         -0.2395375              -6.5181
       118                         -0.2369018              -6.4464
       119                         -0.2333084              -6.3486
       120                         -0.2272530              -6.1839
       121                         -0.2261343              -6.1534
       122                         -0.2169226              -5.9028
       123                         -0.2168285              -5.9002
       124                         -0.2163042              -5.8859
       125                         -0.1890186              -5.1435
       ...                                ...                  ...
       223                          0.7501215              20.4118
      -------------------------------------------------------------
                  HL-Gap            0.1043418 Eh            2.8393 eV

     #   Z          covCN         q      C6AA      α(0)
     1   6 C        2.919    -0.034    28.854     8.809
     2   6 C        2.918    -0.032    28.789     8.799
     3   6 C        2.928    -0.031    28.779     8.798
     4   6 C        2.972     0.006    27.883     8.662
     5   6 C        3.163     0.056    26.426     8.402
     6   7 N        1.914    -0.318    29.084     7.996
     7   6 C        3.156     0.136    24.765     8.137
     8   6 C        2.973    -0.011    28.292     8.725
     9   6 C        2.922    -0.035    28.877     8.812
    10   6 C        2.921    -0.058    29.444     8.898
    11   6 C        2.858     0.146    24.829     8.167
    12   8 O        1.705    -0.284    18.721     5.842
    13   6 C        3.686     0.076    19.498     6.321
    14   6 C        3.799    -0.071    21.855     6.656
    15   6 C        3.800    -0.055    21.564     6.612
    16   6 C        3.805    -0.060    21.652     6.624
    17   6 C        2.957    -0.012    28.317     8.728
    18   6 C        2.929    -0.047    29.161     8.856
    19   6 C        2.920    -0.046    29.155     8.854
    20   6 C        2.912    -0.037    28.923     8.819
    21   6 C        3.075    -0.018    28.381     8.735
    22   6 C        3.076     0.045    26.914     8.506
    23   7 N        2.757    -0.130    23.819     7.249
    24   6 C        3.072     0.055    26.689     8.471
    25   6 C        2.909    -0.059    29.463     8.901
    26   6 C        2.924    -0.037    28.926     8.820
    27   6 C        2.920    -0.045    29.121     8.849
    28   6 C        2.912    -0.032    28.793     8.799
    29   6 C        3.072    -0.016    28.336     8.728
    30   6 C        2.916    -0.065    29.614     8.924
    31   6 C        2.930    -0.031    28.783     8.798
    32   7 N        2.850    -0.048    22.169     6.993
    33   6 C        2.913     0.066    26.517     8.444
    34   6 C        2.922    -0.038    28.954     8.824
    35   6 C        2.920    -0.026    28.661     8.779
    36   6 C        2.919    -0.030    28.758     8.794
    37   6 C        2.920    -0.027    28.670     8.781
    38   6 C        2.922    -0.039    28.979     8.828
    39   6 C        3.069     0.018    27.542     8.605
    40   6 C        2.971     0.006    27.876     8.660
    41   6 C        2.925    -0.032    28.801     8.801
    42   6 C        2.918    -0.029    28.722     8.788
    43   6 C        2.920    -0.031    28.786     8.798
    44   6 C        2.918    -0.030    28.744     8.792
    45   6 C        2.924    -0.034    28.857     8.809
    46   6 C        2.923    -0.040    28.987     8.829
    47   6 C        2.919    -0.032    28.792     8.799
    48   1 H        0.926     0.030     2.583     2.513
    49   1 H        0.926     0.031     2.579     2.511
    50   1 H        0.926     0.042     2.425     2.435
    51   1 H        0.926     0.031     2.571     2.508
    52   1 H        0.926     0.042     2.417     2.431
    53   1 H        0.924     0.056     2.242     2.341
    54   1 H        0.924     0.033     2.550     2.497
    55   1 H        0.924     0.044     2.390     2.418
    56   1 H        0.925     0.052     2.297     2.370
    57   1 H        0.924     0.039     2.456     2.451
    58   1 H        0.924     0.040     2.446     2.446
    59   1 H        0.924     0.042     2.426     2.436
    60   1 H        0.924     0.040     2.444     2.445
    61   1 H        0.926     0.038     2.479     2.462
    62   1 H        0.926     0.027     2.632     2.537
    63   1 H        0.926     0.026     2.640     2.541
    64   1 H        0.860     0.164     1.312     1.794
    65   1 H        0.926     0.026     2.638     2.540
    66   1 H        0.926     0.028     2.618     2.530
    67   1 H        0.926     0.019     2.746     2.592
    68   1 H        0.926     0.025     2.657     2.549
    69   1 H        0.926     0.045     2.378     2.411
    70   1 H        0.926     0.048     2.339     2.392
    71   1 H        0.926     0.041     2.432     2.439
    72   1 H        0.926     0.045     2.379     2.412
    73   1 H        0.926     0.046     2.365     2.405
    74   1 H        0.926     0.046     2.374     2.410
    75   1 H        0.926     0.036     2.504     2.475
    76   1 H        0.926     0.028     2.610     2.526
    77   1 H        0.926     0.035     2.513     2.479
    78   1 H        0.926     0.036     2.506     2.475
    79   1 H        0.926     0.034     2.526     2.485
    80   1 H        0.926     0.024     2.673     2.557
    81   1 H        0.926     0.023     2.687     2.563
    82   1 H        0.926     0.029     2.602     2.522

molecular dipole:
                 x           y           z       tot (Debye)
 q only:        1.116       1.406       0.024
   full:        0.962       1.788       0.013       5.160

 projected vibrational frequencies (cm⁻¹)
eigval :       -0.00    -0.00    -0.00     0.00     0.00     0.00
eigval :       10.78    19.10    21.56    25.99    28.25    30.55
eigval :       43.15    47.29    51.46    55.96    64.18    71.66
eigval :       81.25    86.64   104.22   116.34   124.74   131.28
eigval :      134.24   149.20   154.97   175.02   205.12   217.86
eigval :      228.70   229.21   233.35   236.78   246.90   263.35
eigval :      263.90   272.83   281.86   304.09   311.67   330.16
eigval :      363.32   373.13   377.81   381.58   382.79   388.73
eigval :      401.27   407.48   423.17   427.58   435.84   453.58
eigval :      464.48   483.07   485.81   492.87   504.11   518.51
eigval :      527.10   534.49   536.13   544.27   554.59   577.23
eigval :      584.84   586.31   588.66   596.80   608.30   627.48
eigval :      632.66   642.65   653.95   661.38   666.13   676.17
eigval :      679.19   682.85   693.79   702.84   704.92   709.42
eigval :      734.28   760.96   762.79   771.34   775.46   795.10
eigval :      805.74   811.84   821.86   849.43   857.30   862.44
eigval :      863.94   867.69   873.59   877.47   880.36   881.26
eigval :      890.64   898.21   899.36   901.40   904.77   906.73
eigval :      912.07   917.18   920.14   921.41   927.12   928.45
eigval :      929.65   930.40   933.30   934.60   941.98   952.56
eigval :      973.69   977.74   990.30  1009.84  1018.08  1032.99
eigval :     1047.63  1067.04  1071.68  1078.60  1079.97  1081.72
eigval :     1092.35  1108.96  1111.82  1115.65  1116.65  1119.08
eigval :     1131.24  1143.24  1144.56  1163.34  1169.52  1175.34
eigval :     1177.80  1178.20  1179.37  1180.25  1186.14  1188.90
eigval :     1191.71  1193.32  1197.74  1198.93  1214.67  1233.33
eigval :     1235.76  1238.60  1258.14  1262.72  1272.00  1274.85
eigval :     1275.74  1276.59  1280.35  1286.97  1313.28  1315.31
eigval :     1316.34  1319.61  1319.74  1329.76  1332.98  1338.45
eigval :     1345.53  1351.57  1356.61  1361.48  1366.20  1375.64
eigval :     1393.33  1407.22  1415.62  1427.84  1432.74  1433.53
eigval :     1435.20  1451.04  1457.90  1462.52  1465.15  1469.85
eigval :     1479.62  1487.51  1488.75  1488.98  1508.39  1537.26
eigval :     1559.69  1567.76  1576.89  1579.41  1579.58  1583.95
eigval :     1592.08  1593.60  1595.96  1598.38  1601.69  1602.53
eigval :     1616.35  2895.70  2924.92  2956.24  2965.66  2975.47
eigval :     2984.49  2989.74  3016.80  3064.52  3065.13  3067.76
eigval :     3070.27  3070.41  3070.95  3071.63  3078.95  3079.52
eigval :     3079.60  3080.46  3082.40  3082.82  3086.78  3087.90
eigval :     3088.20  3088.90  3091.06  3092.28  3095.59  3097.03
eigval :     3097.99  3098.13  3103.80  3107.93  3111.71  3490.92

   temp. (K)  partition function   enthalpy   heat capacity  entropy
                                   cal/mol     cal/K/mol   cal/K/mol   J/K/mol
 298.15  VIB  0.289E+18            22604.003    142.802    140.326
         ROT  0.505E+08              888.752      2.981     38.230
         INT  0.146E+26            23492.755    145.782    178.556
         TR   0.146E+29             1481.254      4.968     45.086
         TOT                       24974.0091   150.7506   223.6427   935.7209

       T/K    H(0)-H(T)+PV         H(T)/Eh          T*S/Eh         G(T)/Eh
   ------------------------------------------------------------------------
    298.15    0.397986E-01    0.690310E+00    0.106260E+00    0.584050E+00
   ------------------------------------------------------------------------

         :::::::::::::::::::::::::::::::::::::::::::::::::::::
         ::                  THERMODYNAMIC                  ::
         :::::::::::::::::::::::::::::::::::::::::::::::::::::
         :: total free energy        -122.285609269393 Eh   ::
         ::.................................................::
         :: total energy             -122.869658932772 Eh   ::
         :: zero point energy           0.650510894405 Eh   ::
         :: G(RRHO) w/o ZPVE           -0.066461231026 Eh   ::
         :: G(RRHO) contrib.            0.584049663378 Eh   ::
         :::::::::::::::::::::::::::::::::::::::::::::::::::::

           -------------------------------------------------
          | TOTAL ENERGY             -122.869658932772 Eh   |
          | TOTAL ENTHALPY           -122.179349421539 Eh   |
          | TOTAL FREE ENERGY        -122.285609269393 Eh   |
          | GRADIENT NORM               0.000034543837 Eh/α |
          | HOMO-LUMO GAP               2.839285957672 eV   |
           -------------------------------------------------

 * finished run on 2025/09/11 at 12:09:53.992
