   * xtb version 6.7.1 (edcfbbe) compiled by 'albert@albert-system' on 2024-07-22

   ID    Z sym.   atoms
    1    6 C      1-5, 7-11, 13-22, 24-31, 33-47
    2    7 N      6, 23, 32
    3    8 O      12
    4    1 H      48-82

          program call               : xtb data2507/toluene/BIPOCz/BIPOCz_toluene_S0_finalOpt.xtbopt.xyz --gfn 2 --uhf 2 --gbsa toluene --ohess vtight --parallel 40 --molden --ceasefiles --namespace data2507/toluene/BIPOCz/BIPOCz_toluene_T1_preOpt
      * Solvation model:               GBSA
        Solvent                        toluene
        Solvent mass                       9.2140E+01 g/mol
          :  Hamiltonian                  GFN2-xTB          :
 * total energy  :  -122.7621721 Eh     change       -0.9278693E-09 Eh
 * total energy  :  -122.7692602 Eh     change       -0.7088106E-02 Eh
 * total energy  :  -122.7721666 Eh     change       -0.2906388E-02 Eh
 * total energy  :  -122.7729051 Eh     change       -0.7384973E-03 Eh
 * total energy  :  -122.7737313 Eh     change       -0.8262402E-03 Eh
 * total energy  :  -122.7741909 Eh     change       -0.4595763E-03 Eh
 * total energy  :  -122.7745137 Eh     change       -0.3228358E-03 Eh
 * total energy  :  -122.7747817 Eh     change       -0.2679718E-03 Eh
 * total energy  :  -122.7750018 Eh     change       -0.2201081E-03 Eh
 * total energy  :  -122.7751884 Eh     change       -0.1865954E-03 Eh
 * total energy  :  -122.7765940 Eh     change       -0.1141139E-05 Eh
 * total energy  :  -122.7765949 Eh     change       -0.9113908E-06 Eh
 * total energy  :  -122.7765957 Eh     change       -0.7769270E-06 Eh
 * total energy  :  -122.7765965 Eh     change       -0.8381721E-06 Eh
 * total energy  :  -122.7765974 Eh     change       -0.8829554E-06 Eh
 * total energy  :  -122.7765982 Eh     change       -0.8090011E-06 Eh
 * total energy  :  -122.7765988 Eh     change       -0.5776682E-06 Eh
 * total energy  :  -122.7765993 Eh     change       -0.4815105E-06 Eh
 * total energy  :  -122.7765993 Eh     change       -0.4489308E-08 Eh
   *** GEOMETRY OPTIMIZATION CONVERGED AFTER 152 ITERATIONS ***

 final structure:
================
82
 xtb: 6.7.1 (edcfbbe)
C           -3.86435914694486       -4.92704319834001       -0.71998012749554
C           -2.50744993676297       -4.77378182162630       -0.46354775132308
C           -1.94208918177719       -3.51722442091512       -0.45283020614190
C           -2.72638357819021       -2.37791304026491       -0.67981195747861
C           -2.07884742513572       -1.08838350440951       -0.67924189178573
N           -0.81471539070178       -0.98466796826948       -1.04957717631075
C           -0.48356494302221        0.31371886041902       -1.06599908367868
C            0.84496067239916        0.72686410858278       -1.27319083678581
C            1.37634520143585        1.99531650427457       -0.91984401265047
C            2.70673240796288        2.26587846692308       -1.08959747353369
C            3.58904931537600        1.31073239535033       -1.62444709465190
O            4.88382803782873        1.70580162687209       -1.71081096668146
C            5.88513615809898        0.81492196189343       -2.16658753151762
C            6.25813924150891       -0.30298234867587       -1.18585044643314
C            6.60932446179116        0.19761164069116        0.21890156466604
C            5.38629361624968        0.35922488775424        1.12925448783969
C            4.54667613855682       -0.88318288380146        1.29610219363472
C            5.08276705239314       -2.16330773963926        1.28163926154848
C            4.30251130015017       -3.30308279947466        1.46026002800931
C            2.94346078688478       -3.21180968411724        1.67956827321471
C            2.37184340001430       -1.94678819247476        1.71951558056118
C            3.17192099612184       -0.79711711555991        1.52089003411790
N            2.37243138125131        0.31668089700883        1.63792688170351
C            1.08409181869754       -0.07017477985243        1.89187138256402
C           -0.04862934525458        0.70275641172533        2.10240425099322
C           -1.23092456091522        0.04664164487470        2.38616344156094
C           -1.29020686484897       -1.34388596429181        2.45666813260655
C           -0.16594483645771       -2.11775985252852        2.24712523354224
C            1.03408560063836       -1.48200087587739        1.96109545124136
C            3.07855617126714        0.05692520733473       -1.99147743264181
C            1.75359480759115       -0.22737361772076       -1.80455784719625
N           -1.61600646765767        1.10790761856579       -0.77107867740333
C           -1.67537037065178        2.49980702151547       -0.79136037691719
C           -2.21328342514252        3.21282150040665        0.28540139548017
C           -2.27060309445261        4.59086652131466        0.24081490010753
C           -1.80043139747084        5.28100529868084       -0.86804656125333
C           -1.26582301279821        4.57755043335915       -1.93883394129391
C           -1.20195470645149        3.19954460091762       -1.90776433579614
C           -2.64196245550317        0.23077424415793       -0.45278760615395
C           -3.95527482337745        0.58094475028341       -0.05836019685554
C           -4.65761984757456       -0.24241298081457        0.85931801302474
C           -5.92789744122275        0.07813181060471        1.26942559032238
C           -6.56560093963841        1.21676633090900        0.78166509743844
C           -5.90166760354297        2.02908234650040       -0.13429546238692
C           -4.62523829900004        1.73113164606151       -0.54548383369501
C           -4.08659818549927       -2.54683502534700       -0.96946062535645
C           -4.64325036549402       -3.81058893831395       -0.98440525949889
H           -4.30842801192997       -5.91147848482362       -0.72578209895187
H           -1.89399464868446       -5.64214369714311       -0.27123172854513
H           -0.89110188872317       -3.37614812320240       -0.25455690029911
H            0.74414996464694        2.73940286787496       -0.46528199441193
H            3.11425096090112        3.22439431519978       -0.80266185977123
H            6.75090152434400        1.46538267253630       -2.32385917968796
H            5.59602779004437        0.38156393036793       -3.13244089408169
H            7.12026986755580       -0.81345919133156       -1.61919259539019
H            5.44572229645052       -1.02543563910499       -1.10725666791835
H            7.11349224649065        1.16356415240845        0.14546309999009
H            7.31006100817678       -0.49893829837782        0.68069358545678
H            4.75934697828153        1.16204934073937        0.73910732585068
H            5.73539776269343        0.67605547130643        2.11866585174425
H            6.14284243914461       -2.29217078166210        1.12858577470940
H            4.77884915901539       -4.27233867864729        1.43226426812287
H            2.33954813739099       -4.09445322209855        1.82572240238532
H            2.66341139858195        1.26489794426679        1.47436102210370
H           -0.00569631466829        1.78107771554049        2.04945568112183
H           -2.13071941308759        0.61863649380157        2.56352777163295
H           -2.23176719090793       -1.82118361277564        2.68663767837440
H           -0.21837435898412       -3.19409730921866        2.31183603282896
H            3.71875989372436       -0.69415014815965       -2.42480101445199
H            1.35915378546953       -1.19463908047449       -2.07095118252201
H           -2.57244680220390        2.67669376860756        1.15030384627413
H           -2.68212134961721        5.13290880789641        1.07974978237938
H           -1.85162415882964        6.35864703077204       -0.89814388025012
H           -0.90433778879486        5.10750555282606       -2.80787093705955
H           -0.79502945648738        2.64727688753340       -2.74246737077565
H           -4.15664892077867       -1.10754810430722        1.26529914400460
H           -6.43377018340497       -0.55490496278087        1.98460624291990
H           -7.56417101962292        1.46498531053166        1.10719444214780
H           -6.39806982395590        2.90188787458318       -0.53460561739669
H           -4.14717592524920        2.34714641969693       -1.29148482822173
H           -4.69504900927834       -1.68955037782129       -1.21377498725870
H           -5.69318527627414       -3.92679867352405       -1.21157055613506

          :  Hamiltonian                  GFN2-xTB          :
         :: gradient norm              0.000051139160 Eh/a0 ::
         :: HOMO-LUMO gap              0.479433587340 eV    ::
         :: SCC energy              -124.943514806633 Eh    ::
         :: -> dispersion             -0.128965692740 Eh    ::
         :: -> Gsolv                  -0.042758709798 Eh    ::
         :: repulsion energy           2.166915538139 Eh    ::

    * Orbital Energies and Occupations

         #    Occupation            Energy/Eh            Energy/eV
      -------------------------------------------------------------
         1        2.0000           -0.7235455             -19.6887
       ...           ...                  ...                  ...
       103        2.0000           -0.4139070             -11.2630
       104        2.0000           -0.4106075             -11.1732
       105        2.0000           -0.4078315             -11.0977
       106        2.0000           -0.4063904             -11.0584
       107        2.0000           -0.4025799             -10.9548
       108        2.0000           -0.3993268             -10.8662
       109        2.0000           -0.3903832             -10.6229
       110        2.0000           -0.3867491             -10.5240
       111        2.0000           -0.3814129             -10.3788
       112        2.0000           -0.3757996             -10.2260
       113        1.9986           -0.3638050              -9.8996
       114        1.0014           -0.3512765              -9.5587
       115        0.9999           -0.2684440              -7.3047 (HOMO)
       116        0.0001           -0.2508252              -6.8253 (LUMO)
       117                         -0.2421938              -6.5904
       118                         -0.2305766              -6.2743
       119                         -0.2282529              -6.2111
       120                         -0.2254403              -6.1345
       121                         -0.2234132              -6.0794
       122                         -0.2200304              -5.9873
       123                         -0.2168018              -5.8995
       124                         -0.2146583              -5.8412
       125                         -0.1920991              -5.2273
       126                         -0.1841282              -5.0104
       ...                                ...                  ...
       223                          0.7469900              20.3266
      -------------------------------------------------------------
                  HL-Gap            0.0176188 Eh            0.4794 eV

     #   Z          covCN         q      C6AA      α(0)
     1   6 C        2.919    -0.029    28.725     8.789
     2   6 C        2.916    -0.029    28.715     8.787
     3   6 C        2.927    -0.026    28.663     8.780
     4   6 C        2.974     0.006    27.878     8.661
     5   6 C        3.125     0.086    25.912     8.335
     6   7 N        1.888    -0.300    28.628     7.932
     7   6 C        3.110     0.133    24.955     8.184
     8   6 C        2.969    -0.013    28.345     8.733
     9   6 C        2.914    -0.043    29.074     8.842
    10   6 C        2.914    -0.058    29.439     8.897
    11   6 C        2.857     0.141    24.927     8.183
    12   8 O        1.705    -0.270    18.472     5.803
    13   6 C        3.687     0.075    19.516     6.324
    14   6 C        3.799    -0.070    21.838     6.654
    15   6 C        3.800    -0.055    21.568     6.612
    16   6 C        3.805    -0.060    21.643     6.623
    17   6 C        2.957    -0.011    28.296     8.725
    18   6 C        2.929    -0.046    29.134     8.852
    19   6 C        2.919    -0.045    29.121     8.849
    20   6 C        2.912    -0.038    28.954     8.823
    21   6 C        3.075    -0.018    28.370     8.733
    22   6 C        3.071     0.046    26.906     8.505
    23   7 N        2.758    -0.129    23.793     7.245
    24   6 C        3.070     0.058    26.633     8.462
    25   6 C        2.910    -0.056    29.384     8.889
    26   6 C        2.924    -0.033    28.813     8.803
    27   6 C        2.920    -0.041    29.025     8.835
    28   6 C        2.912    -0.033    28.812     8.802
    29   6 C        3.071    -0.014    28.288     8.721
    30   6 C        2.910    -0.061    29.510     8.908
    31   6 C        2.928    -0.034    28.835     8.806
    32   7 N        2.805    -0.070    22.596     7.060
    33   6 C        2.908     0.058    26.691     8.471
    34   6 C        2.920    -0.044    29.103     8.847
    35   6 C        2.918    -0.031    28.765     8.795
    36   6 C        2.918    -0.041    29.018     8.834
    37   6 C        2.918    -0.031    28.774     8.796
    38   6 C        2.921    -0.046    29.140     8.852
    39   6 C        3.015     0.030    27.318     8.574
    40   6 C        2.964    -0.006    28.170     8.706
    41   6 C        2.922    -0.037    28.921     8.819
    42   6 C        2.913    -0.032    28.786     8.798
    43   6 C        2.917    -0.039    28.979     8.828
    44   6 C        2.914    -0.031    28.778     8.797
    45   6 C        2.918    -0.039    28.961     8.825
    46   6 C        2.921    -0.033    28.828     8.805
    47   6 C        2.917    -0.029    28.732     8.790
    48   1 H        0.926     0.039     2.468     2.457
    49   1 H        0.926     0.039     2.463     2.454
    50   1 H        0.926     0.049     2.333     2.389
    51   1 H        0.926     0.035     2.523     2.484
    52   1 H        0.926     0.044     2.393     2.419
    53   1 H        0.924     0.058     2.217     2.328
    54   1 H        0.924     0.037     2.488     2.467
    55   1 H        0.924     0.047     2.358     2.401
    56   1 H        0.925     0.052     2.300     2.372
    57   1 H        0.924     0.042     2.417     2.431
    58   1 H        0.924     0.042     2.422     2.434
    59   1 H        0.924     0.037     2.495     2.470
    60   1 H        0.924     0.042     2.417     2.431
    61   1 H        0.926     0.041     2.442     2.444
    62   1 H        0.926     0.030     2.586     2.515
    63   1 H        0.926     0.031     2.578     2.511
    64   1 H        0.860     0.162     1.325     1.803
    65   1 H        0.926     0.021     2.714     2.576
    66   1 H        0.926     0.022     2.706     2.572
    67   1 H        0.926     0.022     2.699     2.569
    68   1 H        0.926     0.034     2.535     2.490
    69   1 H        0.926     0.047     2.360     2.402
    70   1 H        0.926     0.053     2.281     2.362
    71   1 H        0.926     0.030     2.583     2.514
    72   1 H        0.926     0.034     2.525     2.485
    73   1 H        0.926     0.034     2.530     2.487
    74   1 H        0.926     0.035     2.516     2.480
    75   1 H        0.926     0.028     2.613     2.528
    76   1 H        0.926     0.027     2.623     2.532
    77   1 H        0.926     0.029     2.599     2.521
    78   1 H        0.926     0.028     2.613     2.528
    79   1 H        0.926     0.027     2.626     2.534
    80   1 H        0.926     0.021     2.716     2.577
    81   1 H        0.926     0.032     2.553     2.499
    82   1 H        0.926     0.036     2.499     2.472

molecular dipole:
                 x           y           z       tot (Debye)
 q only:        1.696      -0.093      -0.122
   full:        1.422       0.385      -0.189       3.776

 projected vibrational frequencies (cm⁻¹)
eigval :       -0.00    -0.00    -0.00     0.00     0.00     0.00
eigval :       18.63    23.98    26.07    29.08    31.50    39.79
eigval :       46.73    48.54    56.58    60.77    71.17    73.77
eigval :       82.70    98.04   106.28   119.08   123.00   130.64
eigval :      136.72   147.00   157.99   168.78   205.51   215.97
eigval :      220.44   225.48   233.42   237.16   251.06   253.90
eigval :      264.55   274.86   281.47   301.58   303.55   307.57
eigval :      333.92   361.32   373.64   379.79   383.99   392.42
eigval :      395.39   406.16   417.72   423.45   428.11   439.75
eigval :      446.61   455.96   471.55   483.37   486.17   488.62
eigval :      518.11   531.68   535.93   541.50   552.99   575.17
eigval :      577.22   579.15   585.06   586.90   594.12   604.87
eigval :      621.24   629.74   636.01   640.69   649.17   658.89
eigval :      666.90   670.81   678.25   695.79   702.29   709.32
eigval :      728.39   735.62   753.70   758.43   774.13   781.76
eigval :      791.57   796.51   824.99   826.46   844.25   851.34
eigval :      857.21   860.71   861.80   865.14   866.42   869.09
eigval :      870.96   880.82   885.44   895.95   897.83   902.63
eigval :      906.17   912.85   913.57   915.61   917.98   918.74
eigval :      919.82   920.85   922.07   927.01   928.09   929.87
eigval :      954.03   969.96   979.14   982.84   992.32  1009.07
eigval :     1046.19  1057.28  1066.76  1067.69  1073.33  1074.16
eigval :     1076.57  1088.61  1100.00  1111.30  1115.61  1117.01
eigval :     1121.81  1127.55  1137.07  1143.18  1154.09  1161.87
eigval :     1171.23  1173.07  1175.16  1176.71  1178.36  1181.79
eigval :     1185.06  1189.47  1191.88  1196.52  1199.47  1225.57
eigval :     1229.37  1232.20  1234.39  1246.35  1253.78  1266.13
eigval :     1270.76  1273.42  1274.70  1275.60  1285.15  1312.98
eigval :     1318.01  1319.36  1322.10  1325.03  1328.66  1331.33
eigval :     1332.95  1341.22  1347.47  1353.52  1358.36  1368.46
eigval :     1375.68  1398.85  1402.13  1404.62  1408.23  1421.87
eigval :     1425.61  1429.93  1430.67  1438.97  1457.09  1458.38
eigval :     1465.27  1472.97  1477.41  1481.05  1488.01  1488.41
eigval :     1495.72  1504.87  1534.66  1535.82  1548.13  1554.82
eigval :     1563.66  1573.88  1577.86  1588.66  1595.88  1598.62
eigval :     1612.07  2899.31  2927.06  2958.67  2974.03  2982.04
eigval :     2995.36  3002.15  3008.88  3065.32  3066.78  3068.49
eigval :     3070.73  3071.52  3073.53  3073.93  3074.51  3075.76
eigval :     3079.73  3083.66  3083.85  3085.82  3087.47  3088.25
eigval :     3091.03  3092.86  3094.40  3096.01  3098.79  3100.05
eigval :     3101.56  3103.94  3105.63  3115.67  3122.51  3482.32

   temp. (K)  partition function   enthalpy   heat capacity  entropy
                                   cal/mol     cal/K/mol   cal/K/mol   J/K/mol
 298.15  VIB  0.620E+17            22828.773    145.674    140.571
         ROT  0.513E+08              888.752      2.981     38.260
         INT  0.318E+25            23717.526    148.655    178.831
         TR   0.146E+29             1481.254      4.968     45.086
         TOT                       25198.7797   153.6231   223.9174   936.8702

       T/K    H(0)-H(T)+PV         H(T)/Eh          T*S/Eh         G(T)/Eh
   ------------------------------------------------------------------------
    298.15    0.401568E-01    0.686203E+00    0.106390E+00    0.579812E+00
   ------------------------------------------------------------------------

         :::::::::::::::::::::::::::::::::::::::::::::::::::::
         ::                  THERMODYNAMIC                  ::
         :::::::::::::::::::::::::::::::::::::::::::::::::::::
         :: total free energy        -122.196787015204 Eh   ::
         ::.................................................::
         :: total energy             -122.776599267961 Eh   ::
         :: zero point energy           0.646045805368 Eh   ::
         :: G(RRHO) w/o ZPVE           -0.066233552611 Eh   ::
         :: G(RRHO) contrib.            0.579812252757 Eh   ::
         :::::::::::::::::::::::::::::::::::::::::::::::::::::

           -------------------------------------------------
          | TOTAL ENERGY             -122.776599267961 Eh   |
          | TOTAL ENTHALPY           -122.090396651023 Eh   |
          | TOTAL FREE ENERGY        -122.196787015204 Eh   |
          | GRADIENT NORM               0.000051130803 Eh/α |
          | HOMO-LUMO GAP               0.479431999155 eV   |
           -------------------------------------------------

 * finished run on 2025/09/11 at 12:11:25.942
