   * xtb version 6.7.1 (edcfbbe) compiled by 'albert@albert-system' on 2024-07-22

   ID    Z sym.   atoms
    1    6 C      1-4, 6-23, 25-38
    2   15 P      5, 24
    3    1 H      39-66

          program call               : xtb data2507/toluene/P–Cu–C/P–Cu–C_toluene_S0_finalOpt.xtbopt.xyz --gfn 2 --uhf 2 --gbsa toluene --ohess vtight --parallel 40 --molden --ceasefiles --namespace data2507/toluene/P–Cu–C/P–Cu–C_toluene_T1_preOpt
      * Solvation model:               GBSA
        Solvent                        toluene
        Solvent mass                       9.2140E+01 g/mol
          :  Hamiltonian                  GFN2-xTB          :
 * total energy  :   -96.2714935 Eh     change       -0.3672397E-08 Eh
 * total energy  :   -96.2818495 Eh     change       -0.1035599E-01 Eh
 * total energy  :   -96.2862501 Eh     change       -0.4400690E-02 Eh
 * total energy  :   -96.2885993 Eh     change       -0.2349178E-02 Eh
 * total energy  :   -96.2908956 Eh     change       -0.2296242E-02 Eh
 * total energy  :   -96.2922917 Eh     change       -0.1396178E-02 Eh
 * total energy  :   -96.2933421 Eh     change       -0.1050344E-02 Eh
 * total energy  :   -96.2941663 Eh     change       -0.8242128E-03 Eh
 * total energy  :   -96.2946821 Eh     change       -0.5158331E-03 Eh
 * total energy  :   -96.2949956 Eh     change       -0.3134308E-03 Eh
 * total energy  :   -96.2967723 Eh     change       -0.2773065E-06 Eh
 * total energy  :   -96.2967724 Eh     change       -0.1096302E-06 Eh
 * total energy  :   -96.2967725 Eh     change       -0.1399079E-06 Eh
 * total energy  :   -96.2967728 Eh     change       -0.3220782E-06 Eh
 * total energy  :   -96.2967731 Eh     change       -0.2858385E-06 Eh
 * total energy  :   -96.2967733 Eh     change       -0.1833099E-06 Eh
 * total energy  :   -96.2967734 Eh     change       -0.1271680E-06 Eh
 * total energy  :   -96.2967735 Eh     change       -0.1029267E-06 Eh
 * total energy  :   -96.2967736 Eh     change       -0.9782453E-07 Eh
   *** GEOMETRY OPTIMIZATION CONVERGED AFTER 57 ITERATIONS ***

 final structure:
================
66
 xtb: 6.7.1 (edcfbbe)
C            1.10994488776945       -3.91875776153434        2.77294005452368
C            0.31435585548769       -2.82751840526611        3.08957216762191
C            0.38644948399957       -1.67673109634039        2.32920035581299
C            1.27907159903632       -1.59766618298537        1.26067857302654
P            1.17002601572926       -0.17892903498791        0.15632136079066
C            2.83629771289518        0.01730881666388       -0.59673773977251
C            4.00349686315428       -0.25611979165195        0.11980271098081
C            5.22899501860589        0.06454050362390       -0.42835966730742
C            5.30958896535889        0.66357157072642       -1.67830112513032
C            4.14844488902616        0.95465649066893       -2.38149327095862
C            2.91759798180175        0.64018471071654       -1.84202164835343
C            0.97410308046766        1.29638667238358        1.16335296246818
C            1.68392264766332        1.37484153234599        2.36857299255849
C            1.70757610510407        2.53141298915454        3.10688115462732
C            1.05648235174877        3.66904260033903        2.61600592096358
C            0.40708244968835        3.62535628722139        1.40474635476741
C            0.34601795227645        2.45808429269646        0.62992539692759
C           -0.35983661266029        2.45490238791895       -0.63507250223072
C           -0.42763848803507        3.62044003249404       -1.41193091239962
C           -1.07686093337021        3.65812008098648       -2.62348821235413
C           -1.72088546705574        2.51573076472078       -3.11263999755002
C           -1.69057134599411        1.36059936053270       -2.37231739466413
C           -0.98085906421617        1.28853988692465       -1.16662240145486
P           -1.16844114475185       -0.18603621959422       -0.15689369522416
C           -2.83601643055928        0.00165918658998        0.59554258262159
C           -4.00138101016656       -0.27791356792782       -0.12164383312085
C           -5.22883734119752        0.03658996985575        0.42569846869196
C           -5.31325278550518        0.63547467675617        1.67546373875706
C           -4.15404473770938        0.93257250095672        2.37933324720700
C           -2.92127663614358        0.62429986450978        1.84066688807851
C           -1.26903461649462       -1.60732954408534       -1.25875964106591
C           -2.02974722076410       -2.72381024465206       -0.91705720797959
C           -1.94676111717700       -3.87348067069980       -1.67923204119019
C           -1.08586726933365       -3.93054163920163       -2.76611834305070
C           -0.29571792800840       -2.83573677149238       -3.08405036884377
C           -0.37476208421047       -1.68379720523420       -2.32610702524392
C            2.04520936374205       -2.71083124236722        0.92026309667954
C            1.96918941431347       -3.85936148512291        1.68487859900668
H            1.05032234017733       -4.82011193177136        3.36498474494643
H           -0.36797961014350       -2.87860388618052        3.92588283409752
H           -0.23258463849030       -0.81915518203238        2.56337834324851
H            3.94585589286941       -0.71677326901732        1.09552548626776
H            6.13176655168370       -0.15259628407863        0.12509667845186
H            6.27348226516040        0.90901784003375       -2.09855734268312
H            4.20659463243203        1.42914580234963       -3.35066923267805
H            2.00684139317618        0.87341546686498       -2.37913972354282
H            2.19155917170660        0.48777604802841        2.72807719407003
H            2.22368553796544        2.56736960664817        4.05532951109542
H            1.06477741011746        4.58337916144435        3.19186538913922
H           -0.10208701003618        4.51196111575521        1.05411603528536
H            0.07614810719452        4.51066212645373       -1.06269962796009
H           -1.09042946482389        4.57139321908944       -3.20092789251360
H           -2.23678609649868        2.54695037026884       -4.06137373292981
H           -2.19263252465719        0.46983930067334       -2.73052292629754
H           -3.94076005596246       -0.73833099783572       -1.09729547443608
H           -6.13014745566947       -0.18523646823391       -0.12828024953635
H           -6.27864628645611        0.87605270865054        2.09509185990490
H           -4.21521460543199        1.40687226609254        3.34841789065667
H           -2.01206785415732        0.86223265495573        2.37832940507183
H           -2.68288282629792       -2.68229131328208       -0.05588971817489
H           -2.54752361710863       -4.73345567762460       -1.42046261956778
H           -1.02070096733483       -4.83278541239618       -3.35621861491311
H            0.38789754297258       -2.88494590473612       -3.91942553277756
H            0.24003465580223       -0.82344396549058       -2.56132125484919
H            2.69701762676756       -2.66772704797912        0.05817126959643
H            2.57415605378820       -4.71667915750500        1.42710874236065

          :  Hamiltonian                  GFN2-xTB          :
         :: gradient norm              0.000065885113 Eh/a0 ::
         :: HOMO-LUMO gap              0.530625649460 eV    ::
         :: SCC energy               -98.108998405183 Eh    ::
         :: -> dispersion             -0.105592760735 Eh    ::
         :: -> Gsolv                  -0.038856913848 Eh    ::
         :: repulsion energy           1.812224774107 Eh    ::

    * Orbital Energies and Occupations

         #    Occupation            Energy/Eh            Energy/eV
      -------------------------------------------------------------
         1        2.0000           -0.6836216             -18.6023
       ...           ...                  ...                  ...
        80        2.0000           -0.4114739             -11.1968
        81        2.0000           -0.4110849             -11.1862
        82        2.0000           -0.4101438             -11.1606
        83        2.0000           -0.4101037             -11.1595
        84        2.0000           -0.4091906             -11.1346
        85        2.0000           -0.4091284             -11.1330
        86        2.0000           -0.3998806             -10.8813
        87        2.0000           -0.3956405             -10.7659
        88        2.0000           -0.3946171             -10.7381
        89        2.0000           -0.3840637             -10.4509
        90        2.0000           -0.3699261             -10.0662
        91        1.0000           -0.3337594              -9.0821
        92        1.0000           -0.2656226              -7.2280 (HOMO)
        93        0.0000           -0.2461224              -6.6973 (LUMO)
        94        0.0000           -0.2439992              -6.6396
        95        0.0000           -0.2409238              -6.5559
        96                         -0.2381090              -6.4793
        97                         -0.2300021              -6.2587
        98                         -0.2288021              -6.2260
        99                         -0.2275468              -6.1919
       100                         -0.2264504              -6.1620
       101                         -0.2187210              -5.9517
       102                         -0.2176797              -5.9234
       103                         -0.1878721              -5.1123
       ...                                ...                  ...
       190                          1.3379498              36.4075
      -------------------------------------------------------------
                  HL-Gap            0.0195002 Eh            0.5306 eV

     #   Z          covCN         q      C6AA      α(0)
     1   6 C        2.920    -0.029    28.721     8.788
     2   6 C        2.918    -0.027    28.665     8.780
     3   6 C        3.019    -0.022    28.525     8.761
     4   6 C        2.920     0.025    27.456     8.593
     5  15 P        4.256    -0.101   164.796    23.060
     6   6 C        2.918     0.025    27.448     8.591
     7   6 C        2.968    -0.025    28.618     8.775
     8   6 C        2.919    -0.028    28.690     8.784
     9   6 C        2.919    -0.033    28.826     8.804
    10   6 C        2.918    -0.028    28.705     8.786
    11   6 C        3.000    -0.023    28.576     8.769
    12   6 C        2.941     0.004    27.923     8.667
    13   6 C        3.015    -0.029    28.709     8.789
    14   6 C        2.915    -0.044    29.084     8.843
    15   6 C        2.915    -0.042    29.041     8.837
    16   6 C        2.922    -0.038    28.941     8.822
    17   6 C        3.038    -0.005    28.100     8.695
    18   6 C        3.038    -0.005    28.100     8.695
    19   6 C        2.922    -0.038    28.941     8.822
    20   6 C        2.915    -0.042    29.041     8.837
    21   6 C        2.915    -0.044    29.084     8.843
    22   6 C        3.015    -0.029    28.709     8.789
    23   6 C        2.941     0.004    27.924     8.667
    24  15 P        4.256    -0.101   164.795    23.060
    25   6 C        2.918     0.025    27.449     8.591
    26   6 C        2.968    -0.025    28.618     8.775
    27   6 C        2.919    -0.028    28.690     8.784
    28   6 C        2.919    -0.033    28.826     8.804
    29   6 C        2.918    -0.028    28.705     8.786
    30   6 C        3.000    -0.023    28.576     8.769
    31   6 C        2.920     0.025    27.456     8.593
    32   6 C        2.996    -0.026    28.629     8.777
    33   6 C        2.918    -0.029    28.723     8.789
    34   6 C        2.920    -0.029    28.721     8.788
    35   6 C        2.918    -0.027    28.665     8.780
    36   6 C        3.019    -0.022    28.525     8.761
    37   6 C        2.996    -0.026    28.629     8.777
    38   6 C        2.918    -0.029    28.723     8.789
    39   1 H        0.926     0.038     2.470     2.458
    40   1 H        0.926     0.038     2.475     2.460
    41   1 H        0.925     0.046     2.373     2.409
    42   1 H        0.926     0.039     2.462     2.453
    43   1 H        0.926     0.039     2.466     2.456
    44   1 H        0.926     0.036     2.502     2.473
    45   1 H        0.926     0.036     2.509     2.477
    46   1 H        0.925     0.035     2.511     2.478
    47   1 H        0.925     0.025     2.662     2.551
    48   1 H        0.926     0.021     2.722     2.580
    49   1 H        0.926     0.019     2.746     2.591
    50   1 H        0.926     0.022     2.699     2.569
    51   1 H        0.926     0.022     2.699     2.569
    52   1 H        0.926     0.019     2.746     2.591
    53   1 H        0.926     0.021     2.722     2.580
    54   1 H        0.925     0.025     2.662     2.552
    55   1 H        0.926     0.039     2.462     2.454
    56   1 H        0.926     0.039     2.466     2.456
    57   1 H        0.926     0.036     2.502     2.473
    58   1 H        0.926     0.036     2.509     2.477
    59   1 H        0.925     0.035     2.511     2.478
    60   1 H        0.925     0.041     2.435     2.440
    61   1 H        0.926     0.038     2.475     2.460
    62   1 H        0.926     0.038     2.470     2.458
    63   1 H        0.926     0.038     2.475     2.460
    64   1 H        0.925     0.046     2.372     2.409
    65   1 H        0.925     0.041     2.435     2.440
    66   1 H        0.926     0.038     2.475     2.460

molecular dipole:
                 x           y           z       tot (Debye)
 q only:        0.005      -1.545       0.002
   full:        0.004      -1.374       0.001       3.491

 projected vibrational frequencies (cm⁻¹)
eigval :       -0.00    -0.00     0.00     0.00     0.00     0.00
eigval :       17.24    20.09    26.11    36.67    38.29    39.73
eigval :       45.23    51.56    53.48    57.10    71.94    77.70
eigval :       89.02    94.40   119.06   125.76   153.37   165.62
eigval :      181.65   184.59   189.12   197.01   197.19   203.90
eigval :      238.58   242.19   250.32   293.34   300.29   350.07
eigval :      360.69   362.84   367.82   370.75   372.42   386.57
eigval :      391.79   392.65   399.22   421.38   425.60   425.73
eigval :      453.10   459.13   474.82   486.51   498.26   517.63
eigval :      578.94   580.29   580.40   583.25   583.42   624.51
eigval :      633.60   637.05   641.65   643.50   650.41   662.25
eigval :      665.75   677.18   690.89   706.82   707.92   722.21
eigval :      727.36   730.20   733.25   743.89   756.60   765.23
eigval :      853.64   855.50   859.18   861.00   863.53   863.94
eigval :      880.47   881.53   890.69   890.92   898.87   901.49
eigval :      906.81   911.70   914.47   914.95   919.75   920.02
eigval :      921.99   922.24   928.10   928.52   956.16   957.43
eigval :      965.44   968.33   968.70  1038.88  1052.37  1066.59
eigval :     1066.62  1071.37  1071.88  1072.49  1073.63  1085.33
eigval :     1090.03  1099.31  1099.59  1107.81  1109.62  1112.74
eigval :     1115.04  1148.53  1162.52  1174.29  1174.47  1175.70
eigval :     1175.80  1177.85  1180.16  1184.35  1186.06  1188.66
eigval :     1191.83  1236.18  1236.77  1259.27  1261.75  1265.60
eigval :     1268.19  1272.38  1318.56  1319.04  1322.51  1323.50
eigval :     1330.66  1338.74  1390.06  1393.75  1408.79  1412.24
eigval :     1413.61  1418.22  1419.87  1422.61  1425.02  1430.75
eigval :     1438.18  1439.36  1500.69  1502.15  1531.87  1532.75
eigval :     1534.55  1545.61  1552.39  1554.66  1556.67  1556.72
eigval :     1561.24  1573.14  3032.92  3033.92  3034.48  3035.75
eigval :     3042.65  3043.06  3060.75  3061.00  3061.74  3064.19
eigval :     3064.59  3064.66  3069.48  3071.96  3072.01  3072.16
eigval :     3072.55  3072.96  3075.42  3075.59  3076.00  3076.02
eigval :     3080.32  3082.51  3088.71  3088.98  3089.26  3089.93

   temp. (K)  partition function   enthalpy   heat capacity  entropy
                                   cal/mol     cal/K/mol   cal/K/mol   J/K/mol
 298.15  VIB  0.128E+16            19556.975    120.933    122.297
         ROT  0.138E+08              888.752      2.981     35.649
         INT  0.176E+23            20445.727    123.913    157.946
         TR   0.116E+29             1481.254      4.968     44.627
         TOT                       21926.9814   128.8816   202.5727   847.5643

       T/K    H(0)-H(T)+PV         H(T)/Eh          T*S/Eh         G(T)/Eh
   ------------------------------------------------------------------------
    298.15    0.349429E-01    0.540205E+00    0.962488E-01    0.443957E+00
   ------------------------------------------------------------------------

         :::::::::::::::::::::::::::::::::::::::::::::::::::::
         ::                  THERMODYNAMIC                  ::
         :::::::::::::::::::::::::::::::::::::::::::::::::::::
         :: total free energy         -95.852817095758 Eh   ::
         ::.................................................::
         :: total energy              -96.296773632208 Eh   ::
         :: zero point energy           0.505262502424 Eh   ::
         :: G(RRHO) w/o ZPVE           -0.061305965975 Eh   ::
         :: G(RRHO) contrib.            0.443956536450 Eh   ::
         :::::::::::::::::::::::::::::::::::::::::::::::::::::

           -------------------------------------------------
          | TOTAL ENERGY              -96.296773632208 Eh   |
          | TOTAL ENTHALPY            -95.756568260707 Eh   |
          | TOTAL FREE ENERGY         -95.852817095758 Eh   |
          | GRADIENT NORM               0.000065645010 Eh/α |
          | HOMO-LUMO GAP               0.530626679248 eV   |
           -------------------------------------------------

 * finished run on 2025/09/12 at 12:14:28.564
