   * xtb version 6.7.1 (edcfbbe) compiled by 'albert@albert-system' on 2024-07-22

   ID    Z sym.   atoms
    1    6 C      1-4, 6-23, 25-38
    2   15 P      5, 24
    3    1 H      39-66

          program call               : xtb data2507/toluene/P–Cu–C/P–Cu–C_toluene_S0_crest.xyz --gfn 2 --gbsa toluene --ohess vtight --parallel 40 --molden --ceasefiles --namespace data2507/toluene/P–Cu–C/P–Cu–C_toluene_S0_finalOpt
      * Solvation model:               GBSA
        Solvent                        toluene
        Solvent mass                       9.2140E+01 g/mol
          :  Hamiltonian                  GFN2-xTB          :
 * total energy  :   -96.3874754 Eh     change       -0.4109111E-08 Eh
 * total energy  :   -96.3875373 Eh     change       -0.6196094E-04 Eh
 * total energy  :   -96.3875844 Eh     change       -0.4703232E-04 Eh
 * total energy  :   -96.3876305 Eh     change       -0.4610888E-04 Eh
 * total energy  :   -96.3876951 Eh     change       -0.6469022E-04 Eh
 * total energy  :   -96.3877914 Eh     change       -0.9626823E-04 Eh
 * total energy  :   -96.3878729 Eh     change       -0.8143749E-04 Eh
 * total energy  :   -96.3879065 Eh     change       -0.3361173E-04 Eh
 * total energy  :   -96.3879271 Eh     change       -0.2066147E-04 Eh
 * total energy  :   -96.3879458 Eh     change       -0.1870665E-04 Eh
 * total energy  :   -96.3880077 Eh     change       -0.4758854E-06 Eh
 * total energy  :   -96.3880080 Eh     change       -0.3599932E-06 Eh
 * total energy  :   -96.3880083 Eh     change       -0.2426766E-06 Eh
 * total energy  :   -96.3880085 Eh     change       -0.2269319E-06 Eh
 * total energy  :   -96.3880087 Eh     change       -0.2394623E-06 Eh
 * total energy  :   -96.3880089 Eh     change       -0.2144571E-06 Eh
 * total energy  :   -96.3880091 Eh     change       -0.1766704E-06 Eh
 * total energy  :   -96.3880092 Eh     change       -0.1329808E-06 Eh
 * total energy  :   -96.3880093 Eh     change       -0.7560459E-07 Eh
   *** GEOMETRY OPTIMIZATION CONVERGED AFTER 31 ITERATIONS ***

 final structure:
================
66
 xtb: 6.7.1 (edcfbbe)
C            1.30386141777136       -3.88252470265973        2.55653425471959
C            0.70508155616908       -2.72647019439392        3.02950805921347
C            0.72353148187560       -1.57005030868701        2.26978247945420
C            1.36112719728041       -1.55700347252819        1.03423204280742
P            1.28339951222547       -0.14311506870723       -0.10483634261722
C            3.07202562736414        0.07569903256476       -0.52987186438353
C            4.15256771253692       -0.44923003035169        0.16920601752899
C            5.44494474158774       -0.15955710624119       -0.23206286713391
C            5.67291494082905        0.65549977535355       -1.32882739246929
C            4.60135833401400        1.18237905495549       -2.03161238187902
C            3.31032901840940        0.88930808137209       -1.63426704031861
C            1.18971182654131        1.31052767008243        1.00146573379210
C            1.95332285051432        1.38939961749462        2.15965533845760
C            1.88583810664175        2.50532951080739        2.97296826580413
C            1.05967133875363        3.56173497565075        2.62322372178839
C            0.32230358060880        3.50569126675318        1.45510681470196
C            0.37701916838045        2.38686832838647        0.62642676815489
C           -0.39026237025377        2.38369316248143       -0.63128387359552
C           -0.34198329264443        3.50161835757078       -1.46157093966115
C           -1.07932758879112        3.55155681738120       -2.62997600322519
C           -1.89906045966047        2.48972312066731       -2.97841076312937
C           -1.96022316691143        1.37463566607498       -2.16343610708526
C           -1.19650667814946        1.30201421218757       -1.00490308476097
P           -1.28205938270623       -0.15023040732240        0.10389686576423
C           -3.07200938657922        0.05893326538149        0.52820747696149
C           -4.14927185110187       -0.47373096897098       -0.17007891507966
C           -5.44342627305499       -0.19115536907512        0.23052403533703
C           -5.67644921429487        0.62444823026319        1.32581475162799
C           -4.60818510634015        1.15913825779358        2.02771742082448
C           -3.31535956575508        0.87311071928740        1.63108266334991
C           -1.35145425297766       -1.56676702887338       -1.03240811535535
C           -1.92392244175509       -2.74169729966020       -0.55009989560617
C           -1.89430914260923       -3.89755169977091       -1.30709701063167
C           -1.28010264864792       -3.89518505799890       -2.54966165173353
C           -0.68836104250686       -2.73654546866548       -3.02515594975485
C           -0.71384771925796       -1.57858898009726       -2.26796023039668
C            1.94071060151683       -2.72947543576078        0.55447313962678
C            1.91810452324652       -3.88384187994542        1.31398791504909
H            1.28581933888817       -4.78413184775520        3.15179585623792
H            0.21535713194921       -2.72640269601966        3.99319972008007
H            0.24573686431444       -0.67198193332172        2.63860856886615
H            3.98755843959123       -1.08948148754767        1.02479307541748
H            6.27995152629346       -0.57185993823133        0.31707308409083
H            6.68462310488500        0.87753746948731       -1.63646764503085
H            4.77377034782655        1.81691868106502       -2.88951528535866
H            2.46445843159456        1.29318781335218       -2.17842542418369
H            2.60319675644594        0.56595807749474        2.42188020806080
H            2.47665977030009        2.55203284811458        3.87638403222664
H            0.99636946685754        4.43401618802027        3.25776325255619
H           -0.32082054104686        4.33109175302291        1.18317418161212
H            0.29618549508545        4.33118708739314       -1.19065894993636
H           -1.02103148957241        4.42327367222795       -3.26576837389118
H           -2.48982415317008        2.53158650640675       -3.88210088246861
H           -2.60512919144147        0.54696948674449       -2.42463952876204
H           -3.98028372061395       -1.11444108211993       -1.02455594250813
H           -6.27584347510146       -0.60953350895370       -0.31796110738648
H           -6.68951917896022        0.84085294704425        1.63298794918885
H           -4.78456321697837        1.79421927405058        2.88441494991116
H           -2.47200881876615        1.28308592795217        2.17459959329745
H           -2.39121813368710       -2.73945433086707        0.42688919964382
H           -2.34460371633750       -4.80334055364042       -0.92619706747856
H           -1.25662988780631       -4.79794743096081       -3.14297971691556
H           -0.19870240731600       -2.73561451036594       -3.98888105645857
H           -0.24149230978399       -0.67843120765478       -2.63872420568538
H            2.40808588922503       -2.72651801686362       -0.42247446529474
H            2.37396688885558       -4.78768210667186        0.93507896632357

          :  Hamiltonian                  GFN2-xTB          :
         :: gradient norm              0.000033701103 Eh/a0 ::
         :: HOMO-LUMO gap              2.899393704893 eV    ::
         :: SCC energy               -98.206154700628 Eh    ::
         :: -> dispersion             -0.105729855246 Eh    ::
         :: -> Gsolv                  -0.037947230966 Eh    ::
         :: repulsion energy           1.818145379408 Eh    ::

    * Orbital Energies and Occupations

         #    Occupation            Energy/Eh            Energy/eV
      -------------------------------------------------------------
         1        2.0000           -0.6692901             -18.2123
       ...           ...                  ...                  ...
        79        2.0000           -0.4101509             -11.1608
        80        2.0000           -0.4058506             -11.0438
        81        2.0000           -0.4058307             -11.0432
        82        2.0000           -0.4054231             -11.0321
        83        2.0000           -0.4048724             -11.0171
        84        2.0000           -0.4043272             -11.0023
        85        2.0000           -0.4041749             -10.9982
        86        2.0000           -0.4008604             -10.9080
        87        2.0000           -0.3973896             -10.8135
        88        2.0000           -0.3917509             -10.6601
        89        2.0000           -0.3881978             -10.5634
        90        2.0000           -0.3705253             -10.0825
        91        2.0000           -0.3599583              -9.7950 (HOMO)
        92                         -0.2534075              -6.8956 (LUMO)
        93                         -0.2421601              -6.5895
        94                         -0.2410113              -6.5583
        95                         -0.2341000              -6.3702
        96                         -0.2305901              -6.2747
        97                         -0.2305428              -6.2734
        98                         -0.2257684              -6.1435
        99                         -0.2243674              -6.1053
       100                         -0.2229701              -6.0673
       101                         -0.2218879              -6.0379
       102                         -0.2201463              -5.9905
       ...                                ...                  ...
       190                          1.4329533              38.9926
      -------------------------------------------------------------
                  HL-Gap            0.1065508 Eh            2.8994 eV

     #   Z          covCN         q      C6AA      α(0)
     1   6 C        2.920    -0.030    28.742     8.792
     2   6 C        2.919    -0.029    28.736     8.791
     3   6 C        2.975    -0.021    28.528     8.761
     4   6 C        2.919     0.035    27.223     8.556
     5  15 P        4.121    -0.183   168.632    23.327
     6   6 C        2.916     0.021    27.534     8.605
     7   6 C        2.948    -0.026    28.646     8.778
     8   6 C        2.919    -0.030    28.741     8.791
     9   6 C        2.920    -0.030    28.737     8.791
    10   6 C        2.917    -0.030    28.743     8.792
    11   6 C        3.031    -0.024    28.572     8.768
    12   6 C        2.930     0.033    27.263     8.563
    13   6 C        2.980    -0.025    28.632     8.777
    14   6 C        2.918    -0.031    28.785     8.798
    15   6 C        2.918    -0.029    28.733     8.790
    16   6 C        2.925    -0.035    28.864     8.811
    17   6 C        3.058     0.015    27.622     8.619
    18   6 C        3.058     0.015    27.622     8.619
    19   6 C        2.925    -0.035    28.864     8.811
    20   6 C        2.918    -0.029    28.733     8.790
    21   6 C        2.918    -0.031    28.785     8.798
    22   6 C        2.980    -0.025    28.632     8.777
    23   6 C        2.930     0.033    27.263     8.563
    24  15 P        4.121    -0.183   168.632    23.327
    25   6 C        2.916     0.021    27.534     8.605
    26   6 C        2.948    -0.026    28.646     8.778
    27   6 C        2.919    -0.030    28.741     8.791
    28   6 C        2.920    -0.030    28.737     8.791
    29   6 C        2.917    -0.030    28.743     8.792
    30   6 C        3.031    -0.024    28.572     8.768
    31   6 C        2.919     0.035    27.223     8.556
    32   6 C        3.024    -0.024    28.583     8.770
    33   6 C        2.918    -0.031    28.763     8.795
    34   6 C        2.920    -0.030    28.742     8.792
    35   6 C        2.919    -0.029    28.736     8.791
    36   6 C        2.975    -0.021    28.528     8.761
    37   6 C        3.024    -0.024    28.584     8.770
    38   6 C        2.918    -0.031    28.763     8.795
    39   1 H        0.926     0.033     2.549     2.497
    40   1 H        0.926     0.033     2.550     2.497
    41   1 H        0.925     0.041     2.430     2.438
    42   1 H        0.925     0.031     2.566     2.505
    43   1 H        0.926     0.032     2.552     2.498
    44   1 H        0.926     0.033     2.543     2.494
    45   1 H        0.926     0.032     2.558     2.501
    46   1 H        0.925     0.033     2.551     2.498
    47   1 H        0.925     0.039     2.456     2.451
    48   1 H        0.926     0.035     2.517     2.481
    49   1 H        0.926     0.035     2.514     2.480
    50   1 H        0.926     0.033     2.540     2.492
    51   1 H        0.926     0.033     2.540     2.492
    52   1 H        0.926     0.035     2.514     2.480
    53   1 H        0.926     0.035     2.517     2.481
    54   1 H        0.925     0.039     2.456     2.451
    55   1 H        0.925     0.031     2.566     2.505
    56   1 H        0.926     0.032     2.552     2.498
    57   1 H        0.926     0.033     2.543     2.494
    58   1 H        0.926     0.032     2.558     2.501
    59   1 H        0.925     0.033     2.551     2.498
    60   1 H        0.925     0.032     2.559     2.501
    61   1 H        0.926     0.031     2.570     2.507
    62   1 H        0.926     0.033     2.549     2.497
    63   1 H        0.926     0.033     2.550     2.497
    64   1 H        0.925     0.041     2.430     2.438
    65   1 H        0.925     0.032     2.559     2.501
    66   1 H        0.926     0.031     2.570     2.507

molecular dipole:
                 x           y           z       tot (Debye)
 q only:       -0.000       0.169      -0.000
   full:       -0.000       0.212      -0.000       0.538

 projected vibrational frequencies (cm⁻¹)
eigval :       -0.00    -0.00    -0.00    -0.00     0.00     0.00
eigval :       19.87    21.88    32.62    37.93    38.08    43.70
eigval :       45.12    56.97    57.18    63.65    76.94    80.69
eigval :       90.90    98.54   118.96   127.66   145.75   182.02
eigval :      182.05   194.40   197.12   203.48   205.66   231.35
eigval :      241.33   244.66   251.91   293.93   307.89   351.84
eigval :      364.47   365.07   371.37   372.53   384.75   400.25
eigval :      402.38   404.06   418.31   426.29   447.45   468.71
eigval :      476.84   479.20   484.59   504.25   518.36   534.12
eigval :      584.29   584.90   585.67   585.82   585.91   653.92
eigval :      655.64   658.29   659.49   666.32   670.74   675.08
eigval :      676.22   690.75   693.37   702.64   703.10   735.10
eigval :      735.60   741.82   742.19   753.29   768.54   786.59
eigval :      871.50   872.87   874.89   875.81   881.56   888.36
eigval :      896.50   897.26   900.36   900.84   915.90   919.77
eigval :      923.97   924.92   926.16   926.91   929.57   930.26
eigval :      930.53   931.48   932.39   932.88   966.06   966.10
eigval :      969.45   969.93   971.98  1045.41  1079.06  1079.27
eigval :     1079.36  1079.53  1089.79  1095.10  1105.58  1106.31
eigval :     1113.07  1113.66  1115.06  1116.56  1116.78  1119.07
eigval :     1119.71  1155.73  1159.98  1178.61  1178.71  1178.81
eigval :     1178.97  1180.84  1181.24  1191.54  1192.35  1194.53
eigval :     1195.65  1234.48  1242.43  1270.47  1271.39  1274.34
eigval :     1275.16  1280.04  1306.46  1311.65  1313.91  1314.50
eigval :     1317.98  1318.39  1405.57  1413.86  1418.00  1418.20
eigval :     1422.26  1422.39  1437.56  1450.07  1450.28  1451.45
eigval :     1452.06  1466.14  1557.00  1565.81  1574.09  1574.09
eigval :     1576.59  1576.83  1577.43  1582.68  1584.36  1584.37
eigval :     1585.30  1585.69  3031.01  3031.54  3044.54  3044.74
eigval :     3052.95  3053.09  3059.59  3059.71  3064.64  3064.90
eigval :     3066.15  3066.18  3066.48  3067.20  3067.32  3068.06
eigval :     3070.50  3070.60  3071.01  3071.15  3074.62  3075.05
eigval :     3083.58  3083.77  3084.21  3084.39  3085.18  3086.18

   temp. (K)  partition function   enthalpy   heat capacity  entropy
                                   cal/mol     cal/K/mol   cal/K/mol   J/K/mol
 298.15  VIB  0.316E+15            19135.782    119.399    119.430
         ROT  0.141E+08              888.752      2.981     35.695
         INT  0.446E+22            20024.534    122.380    155.125
         TR   0.116E+29             1481.254      4.968     44.627
         TOT                       21505.7879   127.3478   199.7517   835.7611

       T/K    H(0)-H(T)+PV         H(T)/Eh          T*S/Eh         G(T)/Eh
   ------------------------------------------------------------------------
    298.15    0.342717E-01    0.543767E+00    0.949085E-01    0.448858E+00
   ------------------------------------------------------------------------

         :::::::::::::::::::::::::::::::::::::::::::::::::::::
         ::                  THERMODYNAMIC                  ::
         :::::::::::::::::::::::::::::::::::::::::::::::::::::
         :: total free energy         -95.939151056513 Eh   ::
         ::.................................................::
         :: total energy              -96.388009317574 Eh   ::
         :: zero point energy           0.509495084448 Eh   ::
         :: G(RRHO) w/o ZPVE           -0.060636823386 Eh   ::
         :: G(RRHO) contrib.            0.448858261061 Eh   ::
         :::::::::::::::::::::::::::::::::::::::::::::::::::::

           -------------------------------------------------
          | TOTAL ENERGY              -96.388009317574 Eh   |
          | TOTAL ENTHALPY            -95.844242578687 Eh   |
          | TOTAL FREE ENERGY         -95.939151056513 Eh   |
          | GRADIENT NORM               0.000033704004 Eh/α |
          | HOMO-LUMO GAP               2.899393802159 eV   |
           -------------------------------------------------

 * finished run on 2025/09/12 at 12:14:22.119
