   * xtb version 6.7.1 (edcfbbe) compiled by 'albert@albert-system' on 2024-07-22

   ID    Z sym.   atoms
    1    6 C      1-4, 6-23, 25-38
    2   15 P      5, 24
    3    1 H      39-66

          program call               : xtb data2507/toluene/P–Cu–C/P–Cu–C_toluene_T1_crest.xyz --gfn 2 --uhf 2 --gbsa toluene --ohess vtight --parallel 40 --molden --ceasefiles --namespace data2507/toluene/P–Cu–C/P–Cu–C_toluene_T1_finalOpt
      * Solvation model:               GBSA
        Solvent                        toluene
        Solvent mass                       9.2140E+01 g/mol
          :  Hamiltonian                  GFN2-xTB          :
 * total energy  :   -96.2983908 Eh     change       -0.2530257E-08 Eh
 * total energy  :   -96.2984478 Eh     change       -0.5697310E-04 Eh
 * total energy  :   -96.2984701 Eh     change       -0.2233337E-04 Eh
 * total energy  :   -96.2984775 Eh     change       -0.7410771E-05 Eh
 * total energy  :   -96.2984829 Eh     change       -0.5365972E-05 Eh
 * total energy  :   -96.2984892 Eh     change       -0.6322430E-05 Eh
 * total energy  :   -96.2984967 Eh     change       -0.7548183E-05 Eh
 * total energy  :   -96.2985033 Eh     change       -0.6534676E-05 Eh
 * total energy  :   -96.2985065 Eh     change       -0.3215773E-05 Eh
 * total energy  :   -96.2985084 Eh     change       -0.1899398E-05 Eh
 * total energy  :   -96.2985400 Eh     change       -0.1084859E-05 Eh
 * total energy  :   -96.2985404 Eh     change       -0.4109341E-06 Eh
 * total energy  :   -96.2985407 Eh     change       -0.2586005E-06 Eh
 * total energy  :   -96.2985411 Eh     change       -0.3983221E-06 Eh
 * total energy  :   -96.2985414 Eh     change       -0.3596165E-06 Eh
 * total energy  :   -96.2985417 Eh     change       -0.2162745E-06 Eh
 * total energy  :   -96.2985419 Eh     change       -0.2169856E-06 Eh
 * total energy  :   -96.2985420 Eh     change       -0.1463373E-06 Eh
 * total energy  :   -96.2985420 Eh     change       -0.2515631E-07 Eh
   *** GEOMETRY OPTIMIZATION CONVERGED AFTER 53 ITERATIONS ***

 final structure:
================
66
 xtb: 6.7.1 (edcfbbe)
C            1.95296635021257       -3.13788011029074        3.52526930212237
C            0.66337397193151       -2.90039882644724        3.07454996277418
C            0.44008389504483       -1.94406547724204        2.10235068961974
C            1.50165578329898       -1.22222637522483        1.56755546348825
P            1.13452836444576        0.04061629190587        0.32649698316862
C            2.72383596998919        0.36829301314093       -0.51446506083271
C            3.12643021782630        1.67711189353076       -0.76874344345233
C            4.28005963802026        1.90943708727774       -1.49395136066144
C            5.01869767679587        0.84615489976911       -1.99144143500437
C            4.59715311369633       -0.45806252690369       -1.76985142643901
C            3.44415310594435       -0.70036712224956       -1.05102398830722
C            0.66650534743838        1.52283706353945        1.21527989239894
C            1.17199869497975        1.71344095746576        2.50533820774309
C            0.89199706713182        2.85467685282152        3.21716081417024
C            0.09589523504333        3.84610594083134        2.63140104390417
C           -0.39607090349993        3.67793251225808        1.35950606330309
C           -0.13697606156068        2.52634049220526        0.59880275076569
C           -0.69715509963853        2.38421816637702       -0.72498016742579
C           -0.92030611567542        3.51657580218153       -1.52474465683333
C           -1.45925501125121        3.43180571308527       -2.78469248316653
C           -1.83848806571152        2.18581715926477       -3.30420343979781
C           -1.66110954082924        1.06080952907169       -2.54155608456162
C           -1.04000559078578        1.11522860521470       -1.28468233179411
P           -1.12115072425155       -0.35520842497695       -0.25347813771889
C           -2.83264490757872       -0.45315631412427        0.39856959103397
C           -3.91313411127181       -0.79680877617767       -0.42170403887110
C           -5.19867273158896       -0.68592295450174        0.06424913426336
C           -5.43096516238192       -0.21829143110811        1.35220480968217
C           -4.36004788072428        0.14891435431543        2.15811521352802
C           -3.06978836736766        0.04370377284936        1.68339666351542
C           -0.91558387942548       -1.76283621193001       -1.35493788801019
C           -1.56052485108284       -2.97572380471257       -1.11096027020403
C           -1.24748867002795       -4.08803782879477       -1.86673435847495
C           -0.26876453463787       -4.01376255576318       -2.84914868303189
C            0.40367560127017       -2.81949425852107       -3.06834234404764
C            0.09526747575094       -1.70299554107123       -2.31763595971079
C            2.79622820836687       -1.46342815555322        2.02178162076475
C            3.01416030685128       -2.41767392579416        2.99992349405275
H            2.12977844219444       -3.88233836150599        4.28736975316024
H           -0.16645773222164       -3.45887123892692        3.48188006592703
H           -0.56498434403043       -1.75157043981067        1.73926254255475
H            2.54382548168464        2.50034732899705       -0.37812940204191
H            4.60291360066663        2.92457894679128       -1.67486560624301
H            5.91685711165764        1.03310748572247       -2.56117667643256
H            5.16627866737245       -1.28523287708771       -2.16891456864293
H            3.09511797641492       -1.71150343949955       -0.88664971266997
H            1.78944724825264        0.93942227070851        2.94330896810244
H            1.27940390954050        2.98683127297689        4.21660391548027
H           -0.14107586438525        4.74215598203222        3.18713263906715
H           -1.03667733453533        4.44224755703467        0.94275639979225
H           -0.62801973418233        4.48682122992251       -1.14719554849742
H           -1.59503000286752        4.32503768043482       -3.37775764651861
H           -2.26812903738521        2.11791414902381       -4.29339213226004
H           -1.96584643409726        0.09335358860923       -2.92355163228934
H           -3.73506654684736       -1.15529205992966       -1.42576342044174
H           -6.03182094734647       -0.96248756114696       -0.56686571228210
H           -6.44191540644687       -0.13302442127162        1.72194007331558
H           -4.53771326228607        0.52011129672958        3.15755590017540
H           -2.22756299033712        0.33038187151867        2.30175845209006
H           -2.31222566815084       -3.03399367868114       -0.33508400402434
H           -1.76117258773209       -5.02159482130166       -1.68682534922652
H           -0.02375843069526       -4.88758306149105       -3.43471015653843
H            1.17496764864207       -2.76306421445074       -3.82337565923823
H            0.61352361182718       -0.76512766724096       -2.48044336825489
H            3.62481861367327       -0.89888227990994        1.61824423362942
H            4.01815665677217       -2.59566925956519        3.35672018445332

          :  Hamiltonian                  GFN2-xTB          :
         :: gradient norm              0.000123138571 Eh/a0 ::
         :: HOMO-LUMO gap              0.326720093238 eV    ::
         :: SCC energy               -98.109861596811 Eh    ::
         :: -> dispersion             -0.105182332392 Eh    ::
         :: -> Gsolv                  -0.039482124554 Eh    ::
         :: repulsion energy           1.811319554254 Eh    ::

    * Orbital Energies and Occupations

         #    Occupation            Energy/Eh            Energy/eV
      -------------------------------------------------------------
         1        2.0000           -0.6853272             -18.6487
       ...           ...                  ...                  ...
        80        2.0000           -0.4135139             -11.2523
        81        2.0000           -0.4130821             -11.2405
        82        2.0000           -0.4101422             -11.1605
        83        2.0000           -0.4088621             -11.1257
        84        2.0000           -0.4073327             -11.0841
        85        2.0000           -0.4059477             -11.0464
        86        2.0000           -0.3997190             -10.8769
        87        2.0000           -0.3980734             -10.8321
        88        2.0000           -0.3926481             -10.6845
        89        2.0000           -0.3863262             -10.5125
        90        2.0000           -0.3690438             -10.0422
        91        1.0000           -0.3231225              -8.7926
        92        0.9982           -0.2624961              -7.1429 (HOMO)
        93        0.0018           -0.2504893              -6.8162 (LUMO)
        94        0.0000           -0.2414671              -6.5707
        95                         -0.2404347              -6.5426
        96                         -0.2375692              -6.4646
        97                         -0.2339120              -6.3651
        98                         -0.2315361              -6.3004
        99                         -0.2262188              -6.1557
       100                         -0.2236642              -6.0862
       101                         -0.2230976              -6.0708
       102                         -0.2158358              -5.8732
       103                         -0.1869319              -5.0867
       ...                                ...                  ...
       190                          1.3554428              36.8835
      -------------------------------------------------------------
                  HL-Gap            0.0120068 Eh            0.3267 eV

     #   Z          covCN         q      C6AA      α(0)
     1   6 C        2.920    -0.024    28.600     8.770
     2   6 C        2.918    -0.025    28.623     8.773
     3   6 C        3.021    -0.020    28.476     8.753
     4   6 C        2.919     0.030    27.320     8.571
     5  15 P        4.256    -0.073   163.523    22.971
     6   6 C        2.920     0.027    27.412     8.586
     7   6 C        2.986    -0.022    28.545     8.764
     8   6 C        2.919    -0.025    28.634     8.775
     9   6 C        2.919    -0.027    28.674     8.781
    10   6 C        2.918    -0.026    28.647     8.777
    11   6 C        2.993    -0.023    28.562     8.767
    12   6 C        2.931     0.005    27.908     8.664
    13   6 C        3.018    -0.029    28.709     8.789
    14   6 C        2.915    -0.046    29.144     8.853
    15   6 C        2.915    -0.040    29.003     8.831
    16   6 C        2.923    -0.038    28.955     8.824
    17   6 C        3.035    -0.003    28.075     8.691
    18   6 C        3.033    -0.009    28.222     8.714
    19   6 C        2.921    -0.039    28.973     8.827
    20   6 C        2.915    -0.044    29.090     8.844
    21   6 C        2.914    -0.047    29.155     8.854
    22   6 C        3.021    -0.028    28.676     8.784
    23   6 C        2.941     0.001    28.005     8.679
    24  15 P        4.247    -0.130   166.122    23.153
    25   6 C        2.918     0.021    27.533     8.605
    26   6 C        2.969    -0.027    28.660     8.781
    27   6 C        2.918    -0.029    28.729     8.790
    28   6 C        2.919    -0.037    28.921     8.819
    29   6 C        2.917    -0.030    28.749     8.792
    30   6 C        3.001    -0.026    28.649     8.780
    31   6 C        2.919     0.024    27.459     8.593
    32   6 C        2.992    -0.027    28.671     8.783
    33   6 C        2.918    -0.030    28.755     8.793
    34   6 C        2.919    -0.032    28.802     8.801
    35   6 C        2.917    -0.028    28.704     8.786
    36   6 C        3.021    -0.023    28.566     8.767
    37   6 C        2.982    -0.024    28.591     8.771
    38   6 C        2.919    -0.026    28.660     8.779
    39   1 H        0.926     0.045     2.377     2.411
    40   1 H        0.926     0.045     2.387     2.416
    41   1 H        0.925     0.062     2.176     2.307
    42   1 H        0.925     0.040     2.451     2.448
    43   1 H        0.926     0.040     2.453     2.449
    44   1 H        0.926     0.042     2.428     2.437
    45   1 H        0.926     0.043     2.412     2.429
    46   1 H        0.925     0.044     2.394     2.420
    47   1 H        0.925     0.025     2.663     2.552
    48   1 H        0.926     0.021     2.724     2.581
    49   1 H        0.926     0.019     2.744     2.591
    50   1 H        0.926     0.022     2.710     2.574
    51   1 H        0.925     0.019     2.750     2.593
    52   1 H        0.926     0.015     2.808     2.621
    53   1 H        0.926     0.016     2.800     2.617
    54   1 H        0.925     0.020     2.727     2.583
    55   1 H        0.926     0.033     2.538     2.491
    56   1 H        0.926     0.033     2.540     2.492
    57   1 H        0.926     0.031     2.574     2.509
    58   1 H        0.926     0.031     2.570     2.507
    59   1 H        0.925     0.033     2.541     2.493
    60   1 H        0.925     0.039     2.468     2.457
    61   1 H        0.926     0.035     2.517     2.481
    62   1 H        0.926     0.034     2.523     2.484
    63   1 H        0.926     0.034     2.530     2.487
    64   1 H        0.925     0.039     2.457     2.451
    65   1 H        0.926     0.046     2.371     2.408
    66   1 H        0.926     0.045     2.382     2.414

molecular dipole:
                 x           y           z       tot (Debye)
 q only:        1.303      -1.706       0.420
   full:        1.188      -1.505       0.349       4.953

 projected vibrational frequencies (cm⁻¹)
eigval :       -0.00    -0.00     0.00     0.00     0.00     0.00
eigval :        7.30    14.60    24.03    33.34    34.70    39.45
eigval :       45.82    48.93    53.35    61.56    67.52    75.64
eigval :       87.98    94.29   117.75   121.84   152.68   163.96
eigval :      181.36   189.22   192.72   197.09   204.00   208.92
eigval :      236.84   244.10   247.16   286.05   301.93   354.34
eigval :      356.52   359.60   363.29   368.35   372.94   382.94
eigval :      388.68   397.19   403.75   412.20   423.57   441.20
eigval :      447.83   454.49   476.19   487.09   497.91   511.53
eigval :      577.95   580.26   581.42   583.64   585.07   622.88
eigval :      631.19   637.17   642.43   643.89   648.80   660.00
eigval :      662.30   678.76   695.78   703.05   705.54   723.94
eigval :      731.79   734.18   736.61   744.77   756.36   763.29
eigval :      855.36   857.86   861.22   862.17   864.92   869.12
eigval :      876.50   888.82   892.74   896.10   898.81   902.60
eigval :      907.37   912.12   917.58   917.85   919.64   920.24
eigval :      923.62   925.98   927.98   929.12   956.48   961.94
eigval :      964.70   966.42   967.49  1032.78  1052.85  1062.11
eigval :     1069.21  1072.01  1072.36  1075.60  1077.58  1084.02
eigval :     1089.01  1094.81  1105.05  1111.38  1113.81  1114.07
eigval :     1115.61  1146.91  1163.43  1173.53  1174.34  1176.13
eigval :     1176.67  1179.51  1181.26  1187.06  1187.69  1190.53
eigval :     1191.94  1233.23  1238.41  1259.81  1262.94  1268.57
eigval :     1268.89  1276.60  1315.53  1318.59  1321.46  1324.80
eigval :     1331.19  1340.64  1385.41  1393.60  1409.67  1412.42
eigval :     1413.91  1418.59  1419.16  1422.38  1428.38  1433.54
eigval :     1437.88  1439.61  1493.48  1500.28  1520.67  1524.75
eigval :     1544.02  1545.68  1552.05  1558.31  1559.67  1563.96
eigval :     1568.55  1570.23  2993.90  3027.94  3030.58  3034.72
eigval :     3046.79  3052.90  3056.91  3058.09  3059.92  3062.65
eigval :     3064.16  3065.15  3068.77  3070.12  3070.75  3071.05
eigval :     3072.46  3074.55  3074.63  3077.36  3077.72  3079.22
eigval :     3082.64  3082.91  3088.15  3088.38  3090.94  3092.66

   temp. (K)  partition function   enthalpy   heat capacity  entropy
                                   cal/mol     cal/K/mol   cal/K/mol   J/K/mol
 298.15  VIB  0.555E+16            19597.018    120.671    123.580
         ROT  0.278E+08              888.752      2.981     37.046
         INT  0.155E+24            20485.770    123.652    160.626
         TR   0.116E+29             1481.254      4.968     44.627
         TOT                       21967.0239   128.6199   205.2523   858.7754

       T/K    H(0)-H(T)+PV         H(T)/Eh          T*S/Eh         G(T)/Eh
   ------------------------------------------------------------------------
    298.15    0.350067E-01    0.540244E+00    0.975220E-01    0.442722E+00
   ------------------------------------------------------------------------

         :::::::::::::::::::::::::::::::::::::::::::::::::::::
         ::                  THERMODYNAMIC                  ::
         :::::::::::::::::::::::::::::::::::::::::::::::::::::
         :: total free energy         -95.855819639328 Eh   ::
         ::.................................................::
         :: total energy              -96.298542035333 Eh   ::
         :: zero point energy           0.505237683310 Eh   ::
         :: G(RRHO) w/o ZPVE           -0.062515287305 Eh   ::
         :: G(RRHO) contrib.            0.442722396005 Eh   ::
         :::::::::::::::::::::::::::::::::::::::::::::::::::::

           -------------------------------------------------
          | TOTAL ENERGY              -96.298542035333 Eh   |
          | TOTAL ENTHALPY            -95.758297671245 Eh   |
          | TOTAL FREE ENERGY         -95.855819639328 Eh   |
          | GRADIENT NORM               0.000122785237 Eh/α |
          | HOMO-LUMO GAP               0.326721785507 eV   |
           -------------------------------------------------

 * finished run on 2025/09/12 at 12:17:59.231
