   * xtb version 6.7.1 (edcfbbe) compiled by 'albert@albert-system' on 2024-07-22

   ID    Z sym.   atoms
    1    6 C      1-4, 6-23, 25-38
    2   15 P      5, 24
    3    1 H      39-66

          program call               : xtb data2507/toluene/P–Cu–C/P–Cu–C.xyz --gfn 2 --gbsa toluene --ohess vtight --parallel 40 --molden --ceasefiles --namespace data2507/toluene/P–Cu–C/P–Cu–C_toluene_S0_preOpt
      * Solvation model:               GBSA
        Solvent                        toluene
        Solvent mass                       9.2140E+01 g/mol
          :  Hamiltonian                  GFN2-xTB          :
 * total energy  :   -96.3548562 Eh     change       -0.3228493E-08 Eh
 * total energy  :   -96.3662829 Eh     change       -0.1142670E-01 Eh
 * total energy  :   -96.3695668 Eh     change       -0.3283905E-02 Eh
 * total energy  :   -96.3708593 Eh     change       -0.1292415E-02 Eh
 * total energy  :   -96.3717139 Eh     change       -0.8546544E-03 Eh
 * total energy  :   -96.3722391 Eh     change       -0.5251369E-03 Eh
 * total energy  :   -96.3727250 Eh     change       -0.4859672E-03 Eh
 * total energy  :   -96.3732665 Eh     change       -0.5414703E-03 Eh
 * total energy  :   -96.3738410 Eh     change       -0.5745165E-03 Eh
 * total energy  :   -96.3744380 Eh     change       -0.5970197E-03 Eh
 * total energy  :   -96.3880250 Eh     change       -0.5715574E-06 Eh
 * total energy  :   -96.3880258 Eh     change       -0.8122881E-06 Eh
 * total energy  :   -96.3880257 Eh     change        0.6099893E-07 Eh
 * total energy  :   -96.3880262 Eh     change       -0.5087561E-06 Eh
 * total energy  :   -96.3880265 Eh     change       -0.2580847E-06 Eh
 * total energy  :   -96.3880267 Eh     change       -0.2535228E-06 Eh
 * total energy  :   -96.3880267 Eh     change       -0.4782137E-08 Eh
 * total energy  :   -96.3880269 Eh     change       -0.1577670E-06 Eh
 * total energy  :   -96.3880270 Eh     change       -0.8739666E-07 Eh
   *** GEOMETRY OPTIMIZATION CONVERGED AFTER 152 ITERATIONS ***

 final structure:
================
66
 xtb: 6.7.1 (edcfbbe)
C            1.72495499508296       -3.86232651979856        2.26228383614735
C            1.22878294166821       -2.70733321402071        2.84403600392117
C            1.11568830757937       -1.54500977472028        2.10152523881108
C            1.51870371123207       -1.52534419191928        0.77112607017645
P            1.24611482668794       -0.10451648336789       -0.32830195940636
C            2.93327167569520        0.11404504824775       -1.05771652154911
C            4.11686516081319       -0.42339324581014       -0.56573140994288
C            5.31970700925511       -0.13488415207470       -1.18635659525749
C            5.35543878543244        0.69201540883394       -2.29728573385138
C            4.18009074112890        1.23270828347912       -2.79330688820415
C            2.97773031195196        0.94030585307323       -2.17742794792153
C            1.34918070030139        1.34486256805501        0.78280532452441
C            2.29747624727971        1.41768065558114        1.79568863734841
C            2.36929493857243        2.52976966577352        2.61403355527992
C            1.49872158133585        3.58913700520761        2.41237997198577
C            0.57641027621088        3.54033603450632        1.38348831316803
C            0.48761241269880        2.42432733524247        0.55427886286786
C           -0.48181519229881        2.42505959476483       -0.55511854729094
C           -0.56868312075355        3.54079409389671       -1.38491013699258
C           -1.49212630262478        3.59141232085311       -2.41270858521536
C           -2.36558633473052        2.53412093588959       -2.61282760874678
C           -2.29535402184105        1.42214845223200       -1.79420510116766
C           -1.34613267649327        1.34752044794975       -0.78230864670305
P           -1.24628807563973       -0.10143581653048        0.32968107128240
C           -2.93358976824459        0.12150905973569        1.05739899839646
C           -4.11788009556913       -0.41381538073921        0.56484825290543
C           -5.32088856846019       -0.12040822925859        1.18287329645221
C           -5.35602439523544        0.70912981024818        2.29183782626562
C           -4.17988441042809        1.24729629195802        2.78872752088267
C           -2.97741526198579        0.95013336760300        2.17538517743739
C           -1.52102249830538       -1.52231866696101       -0.76913340629760
C           -1.99834671157231       -2.69265732853811       -0.18314236927759
C           -2.10893235053055       -3.85307611630622       -0.92543041378730
C           -1.73014015227766       -3.85991977359709       -2.25879192829849
C           -1.23320850732451       -2.70572861277233       -2.84147941377636
C           -1.11866768566236       -1.54308222426576       -2.09970509153259
C            1.99506066762722       -2.69654533126485        0.18602476591895
C            2.10430865516726       -3.85660716847847        0.92907483974269
H            1.80993487730829       -4.76835801683467        2.84485694172131
H            0.92200923065874       -2.71286550216487        3.88056622635935
H            0.71798412977432       -0.64759148976808        2.55671671640256
H            4.10128950616584       -1.07276170831594        0.29876882287663
H            6.23615351749066       -0.55719626865350       -0.79829323100803
H            6.29821718850194        0.91283936489366       -2.77682616966689
H            4.20238597708772        1.87715180973547       -3.66084614792389
H            2.05126388639873        1.35424407866188       -2.55847844695560
H            2.98103844906580        0.59252069234711        1.94071678602620
H            3.10263375201414        2.57108195296017        3.40643551154397
H            1.54479003456855        4.45841628911522        3.05253843325986
H           -0.10073760852284        4.36829915755719        1.22603514401190
H            0.11063659044513        4.36720917177556       -1.22864997721735
H           -1.53693811770203        4.46057876172813       -3.05311245569153
H           -3.10000954192398        2.57701706890466       -3.40414697005474
H           -2.98106842346155        0.59855950406809       -1.93803828814699
H           -4.10272488410571       -1.06524674204626       -0.29811663046835
H           -6.23793133266504       -0.54088819251516        0.79422700323390
H           -6.29891385801923        0.93396938474491        2.76928604434143
H           -4.20168863831825        1.89357218931164        3.65490858676789
H           -2.05037411719064        1.36225713057063        2.55699501762798
H           -2.28036726955027       -2.68218892762277        0.86250991072972
H           -2.48473634506314       -4.75528336397861       -0.46384216547437
H           -1.81604712605147       -4.76625013645556       -2.84076244905573
H           -0.92691219647346       -2.71217455203441       -3.87814305955532
H           -0.72028606664134       -0.64630712465233       -2.55556544976316
H            2.27742749425377       -2.68710204783267       -0.85954122987149
H            2.47954407615593       -4.75941448634926        0.46819126766221

          :  Hamiltonian                  GFN2-xTB          :
         :: gradient norm              0.000045559980 Eh/a0 ::
         :: HOMO-LUMO gap              2.906983997670 eV    ::
         :: SCC energy               -98.206216905299 Eh    ::
         :: -> dispersion             -0.105775087684 Eh    ::
         :: -> Gsolv                  -0.037937393196 Eh    ::
         :: repulsion energy           1.818189928989 Eh    ::

    * Orbital Energies and Occupations

         #    Occupation            Energy/Eh            Energy/eV
      -------------------------------------------------------------
         1        2.0000           -0.6692956             -18.2125
       ...           ...                  ...                  ...
        79        2.0000           -0.4101993             -11.1621
        80        2.0000           -0.4058748             -11.0444
        81        2.0000           -0.4058481             -11.0437
        82        2.0000           -0.4054453             -11.0327
        83        2.0000           -0.4049147             -11.0183
        84        2.0000           -0.4043243             -11.0022
        85        2.0000           -0.4041804             -10.9983
        86        2.0000           -0.4009632             -10.9108
        87        2.0000           -0.3973724             -10.8131
        88        2.0000           -0.3916980             -10.6586
        89        2.0000           -0.3882204             -10.5640
        90        2.0000           -0.3704222             -10.0797
        91        2.0000           -0.3600790              -9.7982 (HOMO)
        92                         -0.2532493              -6.8913 (LUMO)
        93                         -0.2420975              -6.5878
        94                         -0.2408826              -6.5548
        95                         -0.2340452              -6.3687
        96                         -0.2306838              -6.2772
        97                         -0.2305893              -6.2747
        98                         -0.2257875              -6.1440
        99                         -0.2243886              -6.1059
       100                         -0.2230113              -6.0684
       101                         -0.2218840              -6.0378
       102                         -0.2201190              -5.9897
       ...                                ...                  ...
       190                          1.4325353              38.9813
      -------------------------------------------------------------
                  HL-Gap            0.1068297 Eh            2.9070 eV

     #   Z          covCN         q      C6AA      α(0)
     1   6 C        2.920    -0.030    28.742     8.792
     2   6 C        2.919    -0.029    28.737     8.791
     3   6 C        2.975    -0.021    28.532     8.762
     4   6 C        2.919     0.035    27.224     8.556
     5  15 P        4.121    -0.183   168.622    23.326
     6   6 C        2.916     0.021    27.532     8.604
     7   6 C        2.948    -0.026    28.648     8.779
     8   6 C        2.919    -0.030    28.740     8.791
     9   6 C        2.920    -0.030    28.738     8.791
    10   6 C        2.917    -0.030    28.743     8.792
    11   6 C        3.032    -0.024    28.572     8.768
    12   6 C        2.930     0.033    27.262     8.563
    13   6 C        2.979    -0.025    28.632     8.777
    14   6 C        2.918    -0.031    28.785     8.798
    15   6 C        2.918    -0.029    28.734     8.790
    16   6 C        2.925    -0.035    28.863     8.810
    17   6 C        3.060     0.015    27.620     8.618
    18   6 C        3.059     0.015    27.620     8.618
    19   6 C        2.925    -0.035    28.864     8.810
    20   6 C        2.918    -0.029    28.734     8.790
    21   6 C        2.918    -0.031    28.785     8.798
    22   6 C        2.979    -0.025    28.633     8.777
    23   6 C        2.930     0.033    27.262     8.563
    24  15 P        4.121    -0.183   168.624    23.326
    25   6 C        2.916     0.021    27.532     8.604
    26   6 C        2.948    -0.026    28.648     8.779
    27   6 C        2.919    -0.030    28.740     8.791
    28   6 C        2.920    -0.030    28.738     8.791
    29   6 C        2.917    -0.030    28.743     8.792
    30   6 C        3.032    -0.024    28.572     8.768
    31   6 C        2.919     0.035    27.224     8.556
    32   6 C        3.026    -0.024    28.581     8.769
    33   6 C        2.918    -0.031    28.762     8.795
    34   6 C        2.920    -0.030    28.742     8.792
    35   6 C        2.919    -0.029    28.737     8.791
    36   6 C        2.975    -0.021    28.532     8.762
    37   6 C        3.026    -0.024    28.581     8.769
    38   6 C        2.918    -0.031    28.762     8.795
    39   1 H        0.926     0.033     2.549     2.497
    40   1 H        0.926     0.033     2.549     2.497
    41   1 H        0.925     0.041     2.431     2.438
    42   1 H        0.925     0.031     2.566     2.505
    43   1 H        0.926     0.032     2.552     2.498
    44   1 H        0.926     0.033     2.543     2.494
    45   1 H        0.926     0.032     2.557     2.501
    46   1 H        0.925     0.033     2.551     2.498
    47   1 H        0.925     0.039     2.456     2.451
    48   1 H        0.926     0.035     2.517     2.481
    49   1 H        0.926     0.035     2.515     2.480
    50   1 H        0.926     0.033     2.541     2.493
    51   1 H        0.926     0.033     2.541     2.493
    52   1 H        0.926     0.035     2.515     2.480
    53   1 H        0.926     0.035     2.518     2.481
    54   1 H        0.925     0.039     2.456     2.451
    55   1 H        0.925     0.031     2.566     2.505
    56   1 H        0.926     0.032     2.552     2.498
    57   1 H        0.926     0.033     2.543     2.494
    58   1 H        0.926     0.032     2.557     2.501
    59   1 H        0.925     0.033     2.551     2.498
    60   1 H        0.925     0.032     2.558     2.501
    61   1 H        0.926     0.031     2.570     2.507
    62   1 H        0.926     0.033     2.549     2.497
    63   1 H        0.926     0.033     2.549     2.497
    64   1 H        0.925     0.041     2.431     2.438
    65   1 H        0.925     0.032     2.558     2.501
    66   1 H        0.926     0.031     2.570     2.507

molecular dipole:
                 x           y           z       tot (Debye)
 q only:        0.001       0.165      -0.000
   full:        0.001       0.207      -0.000       0.527

 projected vibrational frequencies (cm⁻¹)
eigval :       -0.00    -0.00     0.00     0.00     0.00     0.00
eigval :       18.49    23.54    31.78    39.99    41.27    43.69
eigval :       47.35    56.98    57.75    66.32    76.13    80.84
eigval :       90.87    98.06   118.99   127.36   145.09   181.70
eigval :      182.29   193.58   197.88   203.89   206.07   231.79
eigval :      241.95   244.98   252.14   293.78   307.66   351.71
eigval :      364.03   364.44   373.78   375.89   384.51   399.86
eigval :      403.04   403.90   418.72   426.84   447.35   468.43
eigval :      477.46   479.46   484.53   504.18   518.77   534.60
eigval :      584.35   585.01   585.87   586.22   586.39   654.62
eigval :      656.13   658.12   659.34   666.51   671.50   675.15
eigval :      676.27   690.62   693.27   702.93   703.32   738.88
eigval :      739.30   741.36   742.04   753.11   765.93   783.37
eigval :      871.75   872.46   878.53   878.81   881.11   887.69
eigval :      897.13   897.43   901.10   901.66   914.69   917.58
eigval :      925.87   926.17   927.43   929.09   929.38   930.47
eigval :      933.27   933.47   934.54   935.03   966.13   966.17
eigval :      969.88   970.36   972.16  1045.49  1079.66  1079.81
eigval :     1079.98  1080.07  1090.06  1095.21  1105.99  1106.68
eigval :     1113.97  1114.92  1116.04  1117.14  1117.44  1120.11
eigval :     1120.46  1154.44  1159.00  1178.37  1178.43  1178.87
eigval :     1179.31  1179.52  1179.89  1193.85  1194.59  1196.31
eigval :     1197.35  1235.70  1243.77  1271.24  1271.96  1275.84
eigval :     1276.49  1280.85  1306.39  1311.46  1314.04  1314.56
eigval :     1318.18  1318.58  1405.29  1413.63  1418.15  1418.40
eigval :     1422.37  1422.56  1437.81  1450.57  1451.09  1452.39
eigval :     1452.70  1466.25  1557.05  1565.85  1574.10  1574.12
eigval :     1576.70  1576.92  1577.52  1582.63  1584.56  1584.64
eigval :     1585.64  1586.07  3030.85  3031.04  3043.94  3044.18
eigval :     3051.77  3052.51  3060.14  3060.36  3065.10  3065.53
eigval :     3066.38  3066.49  3066.64  3066.68  3066.73  3068.09
eigval :     3070.67  3070.82  3071.51  3071.69  3074.32  3074.86
eigval :     3083.11  3083.20  3083.64  3083.96  3084.69  3085.74

   temp. (K)  partition function   enthalpy   heat capacity  entropy
                                   cal/mol     cal/K/mol   cal/K/mol   J/K/mol
 298.15  VIB  0.264E+15            19114.060    119.507    119.360
         ROT  0.141E+08              888.752      2.981     35.694
         INT  0.372E+22            20002.812    122.488    155.054
         TR   0.116E+29             1481.254      4.968     44.627
         TOT                       21484.0663   127.4561   199.6811   835.4657

       T/K    H(0)-H(T)+PV         H(T)/Eh          T*S/Eh         G(T)/Eh
   ------------------------------------------------------------------------
    298.15    0.342370E-01    0.543878E+00    0.948749E-01    0.449003E+00
   ------------------------------------------------------------------------

         :::::::::::::::::::::::::::::::::::::::::::::::::::::
         ::                  THERMODYNAMIC                  ::
         :::::::::::::::::::::::::::::::::::::::::::::::::::::
         :: total free energy         -95.939024351874 Eh   ::
         ::.................................................::
         :: total energy              -96.388026976165 Eh   ::
         :: zero point energy           0.509640521871 Eh   ::
         :: G(RRHO) w/o ZPVE           -0.060637897581 Eh   ::
         :: G(RRHO) contrib.            0.449002624290 Eh   ::
         :::::::::::::::::::::::::::::::::::::::::::::::::::::

           -------------------------------------------------
          | TOTAL ENERGY              -96.388026976165 Eh   |
          | TOTAL ENTHALPY            -95.844149415348 Eh   |
          | TOTAL FREE ENERGY         -95.939024351874 Eh   |
          | GRADIENT NORM               0.000045549771 Eh/α |
          | HOMO-LUMO GAP               2.906983516849 eV   |
           -------------------------------------------------

 * finished run on 2025/09/12 at 12:11:24.396
