   * xtb version 6.7.1 (edcfbbe) compiled by 'albert@albert-system' on 2024-07-22

   ID    Z sym.   atoms
    1    6 C      1-20, 22-39, 41-71, 73-86
    2    7 N      21, 40, 72
    3    1 H      87-161

          program call               : xtb data2507/toluene/SAF-2CzB/SAF-2CzB_toluene_S0_finalOpt.xtbopt.xyz --gfn 2 --uhf 2 --gbsa toluene --ohess vtight --parallel 40 --molden --ceasefiles --namespace data2507/toluene/SAF-2CzB/SAF-2CzB_toluene_T1_preOpt
      * Solvation model:               GBSA
        Solvent                        toluene
        Solvent mass                       9.2140E+01 g/mol
          :  Hamiltonian                  GFN2-xTB          :
 * total energy  :  -224.9438083 Eh     change       -0.4451579E-07 Eh
 * total energy  :  -224.9486302 Eh     change       -0.4821868E-02 Eh
 * total energy  :  -224.9507380 Eh     change       -0.2107789E-02 Eh
 * total energy  :  -224.9510534 Eh     change       -0.3154102E-03 Eh
 * total energy  :  -224.9515145 Eh     change       -0.4611485E-03 Eh
 * total energy  :  -224.9518125 Eh     change       -0.2979281E-03 Eh
 * total energy  :  -224.9520085 Eh     change       -0.1960272E-03 Eh
 * total energy  :  -224.9521091 Eh     change       -0.1006385E-03 Eh
 * total energy  :  -224.9521501 Eh     change       -0.4092617E-04 Eh
 * total energy  :  -224.9521734 Eh     change       -0.2336424E-04 Eh
 * total energy  :  -224.9531779 Eh     change       -0.2582736E-06 Eh
 * total energy  :  -224.9531782 Eh     change       -0.3105349E-06 Eh
 * total energy  :  -224.9531785 Eh     change       -0.3752076E-06 Eh
 * total energy  :  -224.9531790 Eh     change       -0.4736152E-06 Eh
 * total energy  :  -224.9531795 Eh     change       -0.5122158E-06 Eh
 * total energy  :  -224.9531800 Eh     change       -0.4675418E-06 Eh
 * total energy  :  -224.9531804 Eh     change       -0.3681112E-06 Eh
 * total energy  :  -224.9531807 Eh     change       -0.3511958E-06 Eh
 * total energy  :  -224.9531807 Eh     change       -0.1513428E-08 Eh
   *** GEOMETRY OPTIMIZATION CONVERGED AFTER 122 ITERATIONS ***

 final structure:
================
161
 xtb: 6.7.1 (edcfbbe)
C          -13.03691253051490        1.48125257353020        4.77331154664729
C          -12.94790243598786        0.13209486331463        4.04412988645904
C          -14.35352684607629       -0.24191489851739        3.56336223771276
C          -12.47370215202046       -0.95572415061130        5.01969992303064
C          -11.94904876730981        0.24572318619229        2.90110881888283
C          -10.61826921784543        0.57616534427281        3.19348447004508
C           -9.64332910360680        0.69448104500287        2.22364476990776
C          -10.00462770911390        0.46468027599913        0.90395758624251
C          -11.34399564628672        0.15731892101633        0.57937611708543
C          -12.30400389440882        0.04516841338505        1.57519466117126
C          -11.39853243440295        0.04187422642995       -0.85356893677411
C          -12.42210468654340       -0.26007157230075       -1.74071635437921
C          -12.15899837453325       -0.32395539863036       -3.10120767649782
C          -13.23324053430604       -0.64439948001907       -4.13105671934326
C          -13.35030426297232        0.52674182175818       -5.11825837265383
C          -14.60934057949760       -0.86955024942378       -3.49666098557134
C          -12.84142695960382       -1.92367397839690       -4.88611888991809
C          -10.84691681420791       -0.09583430967388       -3.53917148579360
C           -9.80988809464087        0.20515900930930       -2.67952835439301
C          -10.09129575819972        0.29406918348636       -1.32376511345631
N           -9.25507383744558        0.54644019340860       -0.25349481605965
C           -7.89205956221330        0.84063269392558       -0.33108229952921
C           -6.96944648283403        0.17615285726339        0.48438641477147
C           -5.62948193258852        0.45869425309005        0.39619093534623
C           -5.13346465078054        1.43237183839372       -0.49759533421578
C           -3.72985881851450        1.73084895312939       -0.58427782823919
C           -3.27251126607271        2.99704610680754       -1.03855272006986
C           -1.94687203639328        3.31157005170219       -1.12999019923476
C           -0.97865227928759        2.34521074674374       -0.78378253635702
C           -1.42689735921990        1.06564234378277       -0.32959175998511
C           -2.74828943797027        0.76819544124291       -0.22113303471907
C           -0.24051709348399        0.17173503986113       -0.03803019506390
C            0.92238022953674        1.10934924878290       -0.34450550190858
C            2.25077822016420        0.85763230338607       -0.23456042883233
C            3.19957279186033        1.85224931296123       -0.59620274087490
C            4.60755483678009        1.59317848724876       -0.49176904732096
C            5.11401065912720        0.63938409853240        0.41968443460274
C            6.45476968862249        0.36733414986789        0.51027745812725
C            7.37363138328793        1.03169322785603       -0.31096052827967
N            8.73547921606520        0.73996353141035       -0.23336498663225
C            9.76360768599566        1.66134107642805       -0.17356107849840
C            9.72455692890546        3.04476679737427       -0.10480328282577
C           10.92237610835952        3.73215676193014       -0.02270489729503
C           12.16248056125777        3.08714874928695        0.00388201388150
C           13.47937754002274        3.84794011371314        0.07775093367669
C           14.32245588465744        3.50408566013130       -1.15986543512781
C           14.23218888952095        3.43148239897192        1.35053880528612
C           13.28950269273760        5.36744440963379        0.11531359635880
C           12.18637790357098        1.69683324790444       -0.03181795089743
C           11.00255503075664        0.98348497425382       -0.11309284960967
C           10.69822115877187       -0.42265652662010       -0.13872877417411
C           11.48955992384075       -1.56224913619245       -0.12055591483216
C           10.89683813301733       -2.81508039050783       -0.18153908956929
C           11.70194893826790       -4.10655419170151       -0.15292878559651
C           11.26965989356452       -4.93963326721094        1.06333204911856
C           13.20988971905441       -3.85849632164826       -0.04714476207672
C           11.43919235217808       -4.89622485629588       -1.44419977798448
C            9.50055642100197       -2.88806415229189       -0.28281257874365
C            8.68974825293668       -1.77134739047608       -0.30534659176149
C            9.29194943070272       -0.52486670755129       -0.21081875151967
C            6.89610334323752        1.99120252351443       -1.21203344195967
C            5.55471370467576        2.26554221858686       -1.29526877090272
C            2.69857288079600        3.09734281756696       -1.06372759568096
C            1.36262318285014        3.36484624042586       -1.15310045321363
C            0.42706570611381        2.37032544587268       -0.79350946496221
C           -0.16328608161422       -1.01742794044305       -0.96268792288580
C           -0.64217858005858       -0.93363925800840       -2.26010339085528
C           -0.49246365980052       -1.98454411108714       -3.14845391423677
C            0.15343858972489       -3.13845097261064       -2.73679194238379
C            0.63197416686490       -3.24394181640668       -1.44632216719781
C            0.48018948171661       -2.18854404475966       -0.54349925450861
N            0.93676882109682       -2.31109081706418        0.76020269023248
C            1.76162298914040       -3.42255052320685        1.09581615979360
C            3.11763982965823       -3.37157221232876        0.79873640569989
C            3.93484669377059       -4.44117479253293        1.12066313847098
C            3.40270543517871       -5.56169013070457        1.73681749720723
C            2.04870432191052       -5.61599305821417        2.02599463798559
C            1.22547052616083       -4.55051995731342        1.70626116608482
C            0.51668590544510       -1.43645617559916        1.75076034102056
C            0.74632575116036       -1.71887028699246        3.09985976591984
C            0.29408647806786       -0.86356538579141        4.08455895155247
C           -0.39346993402723        0.29007243833613        3.74592733029529
C           -0.59511714128534        0.59351034115518        2.41077136554719
C           -0.14344293483655       -0.24809141457874        1.40696211397534
C           -6.08377321350765        2.09651159304815       -1.30311948300359
C           -7.42247085177502        1.80531401857961       -1.22920112721172
H          -13.35297966502935        2.26185898558247        4.08378017298443
H          -13.76122191250045        1.42155246401063        5.58321678499420
H          -12.07806835509480        1.76899159100403        5.19565988368155
H          -14.35030876981562       -1.20353273260981        3.05499179266022
H          -15.02079266529101       -0.31709491694142        4.41984846560324
H          -14.75281815780684        0.51607299118177        2.89320807480637
H          -13.18849889872067       -1.06708002750521        5.83256221541701
H          -11.50647843298546       -0.71010403049220        5.44937341886018
H          -12.38526897936930       -1.91022048354023        4.50410636022217
H          -10.33035391683911        0.75410030796469        4.21845958476442
H           -8.63417377862756        0.97088448622930        2.48972227455797
H          -13.31598768110184       -0.19121839338708        1.29205965413367
H          -13.40769597027012       -0.44603901815080       -1.34803556321226
H          -12.41553295921023        0.69762124058147       -5.64507441351802
H          -13.61468594219365        1.44009270953268       -4.58857567086047
H          -14.12330816548324        0.31911306014411       -5.85546479155056
H          -14.59161378167428       -1.71480809885589       -2.81231378929774
H          -15.33656317024857       -1.08511082088027       -4.27711567330905
H          -14.94371718766469        0.01690029392844       -2.96227816771855
H          -13.61701914399508       -2.18811780657444       -5.60203201781824
H          -12.71890695083316       -2.74945970414893       -4.18777809926623
H          -11.90846904247143       -1.79562506778741       -5.42808715785031
H          -10.62203385961429       -0.16110945607589       -4.59285351972691
H           -8.80898965944230        0.35319342299510       -3.05632494983892
H           -7.31994651878202       -0.58086870373416        1.17098967088849
H           -4.94448210152133       -0.06189611590238        1.04808680955503
H           -4.00345340376167        3.75515653606871       -1.27881203812064
H           -1.63452493006174        4.29313426820283       -1.45687926477563
H           -3.05264856459655       -0.21849715278428        0.09634800950067
H            2.59314702351088       -0.11388085123114        0.08747725411068
H            4.43657979187597        0.14600275764853        1.10039919511577
H            6.81674315143690       -0.33806071475771        1.24417744923819
H            8.78734097829702        3.58069669243632       -0.10214291747379
H           10.87465573593431        4.80737083090346        0.02618738771864
H           15.26254796200225        4.05153179549744       -1.13669633192172
H           13.78662102452551        3.77630705306954       -2.06735103101745
H           14.54796376835226        2.44211786970981       -1.20377708492396
H           15.16923041444042        3.97934677533566        1.42707909865764
H           14.45913331661624        2.36900090961166        1.34879116805183
H           13.63138008536176        3.65019328233798        2.23135123261995
H           14.26299348304716        5.85184012417163        0.16325233482333
H           12.72144716813609        5.67031572132103        0.99214319721266
H           12.78282640063049        5.72207337633495       -0.77950522942540
H           13.11988911118149        1.15722429281858        0.00846396803301
H           12.55896943846187       -1.44713500135711       -0.06374103785489
H           11.43254959734045       -4.37753700498129        1.98108577718599
H           11.85058837550676       -5.85836237037675        1.11334698524055
H           10.21753549804593       -5.20516076230286        1.00892308648381
H           13.57505751487614       -3.29495089658635       -0.90289824635824
H           13.73305646171658       -4.81263273398166       -0.02635191367348
H           13.45541609726943       -3.32152985264390        0.86644430289912
H           11.71686114808475       -4.30095395170096       -2.31205723781913
H           10.39144608140959       -5.16749079007992       -1.53923433561656
H           12.02876695471809       -5.81079323553474       -1.44978516552300
H            9.02579015718016       -3.85485830373764       -0.35241583328057
H            7.61992899470746       -1.87167264178889       -0.40852965331140
H            7.59273994222431        2.48873526407277       -1.87107434209652
H            5.21440852236807        2.97853812172725       -2.03064735925048
H            3.40372796107798        3.87603896056215       -1.31574056185734
H            1.01617927538031        4.33221849635063       -1.48802061105356
H           -1.13271068589240       -0.02546378505069       -2.57875170073892
H           -0.87146428886948       -1.89845350348954       -4.15554771602204
H            0.28226977910831       -3.96390320830020       -3.42125801271484
H            1.12325844968880       -4.15129744285308       -1.12934389140643
H            3.52328511723395       -2.49771191965603        0.31026321159882
H            4.98896575158153       -4.39673128902706        0.89089782310604
H            4.04199750252417       -6.39435190552270        1.98909862628596
H            1.63038287047442       -6.49136999684588        2.50018308313057
H            0.16783994250587       -4.58511771794011        1.92365471082664
H            1.28413298559211       -2.61250809172113        3.37650792991122
H            0.48103971716771       -1.10127098006747        5.12142982613560
H           -0.75383334821718        0.95844684934280        4.51324082403627
H           -1.10165317056127        1.50743169925716        2.13627546060288
H           -5.75247320433718        2.83497062937110       -2.01720177247901
H           -8.12851576467300        2.33640578411613       -1.85103998178357

          :  Hamiltonian                  GFN2-xTB          :
         :: gradient norm              0.000036987817 Eh/a0 ::
         :: HOMO-LUMO gap              0.654368827440 eV    ::
         :: SCC energy              -229.027088628882 Eh    ::
         :: -> dispersion             -0.221981062449 Eh    ::
         :: -> Gsolv                  -0.087556331660 Eh    ::
         :: repulsion energy           4.073907917714 Eh    ::

    * Orbital Energies and Occupations

         #    Occupation            Energy/Eh            Energy/eV
      -------------------------------------------------------------
         1        2.0000           -0.6750090             -18.3679
       ...           ...                  ...                  ...
       200        2.0000           -0.3970378             -10.8039
       201        2.0000           -0.3970109             -10.8032
       202        2.0000           -0.3927893             -10.6883
       203        2.0000           -0.3914053             -10.6507
       204        2.0000           -0.3901752             -10.6172
       205        2.0000           -0.3865919             -10.5197
       206        2.0000           -0.3754862             -10.2175
       207        2.0000           -0.3739707             -10.1763
       208        2.0000           -0.3637118              -9.8971
       209        1.9993           -0.3557528              -9.6805
       210        1.8665           -0.3506048              -9.5404
       211        1.1342           -0.3470561              -9.4439
       212        1.0000           -0.2687102              -7.3120 (HOMO)
       213        0.0000           -0.2446628              -6.6576 (LUMO)
       214        0.0000           -0.2417272              -6.5777
       215                         -0.2378562              -6.4724
       216                         -0.2371688              -6.4537
       217                         -0.2360281              -6.4227
       218                         -0.2308637              -6.2821
       219                         -0.2231307              -6.0717
       220                         -0.2226110              -6.0576
       221                         -0.2203449              -5.9959
       222                         -0.2199079              -5.9840
       223                         -0.2197934              -5.9809
       ...                                ...                  ...
       419                          0.7536470              20.5078
      -------------------------------------------------------------
                  HL-Gap            0.0240473 Eh            0.6544 eV

     #   Z          covCN         q      C6AA      α(0)
     1   6 C        3.761    -0.105    22.549     6.769
     2   6 C        3.902     0.025    20.094     6.372
     3   6 C        3.761    -0.107    22.593     6.776
     4   6 C        3.761    -0.105    22.551     6.769
     5   6 C        2.972     0.001    28.009     8.681
     6   6 C        2.930    -0.040    29.001     8.832
     7   6 C        2.908    -0.051    29.262     8.870
     8   6 C        3.079     0.044    26.941     8.509
     9   6 C        3.065    -0.019    28.426     8.743
    10   6 C        2.917    -0.044    29.093     8.845
    11   6 C        3.065    -0.019    28.426     8.743
    12   6 C        2.917    -0.044    29.093     8.845
    13   6 C        2.972     0.001    28.009     8.681
    14   6 C        3.902     0.025    20.095     6.372
    15   6 C        3.761    -0.105    22.550     6.769
    16   6 C        3.761    -0.107    22.593     6.776
    17   6 C        3.761    -0.105    22.550     6.769
    18   6 C        2.930    -0.040    29.001     8.832
    19   6 C        2.908    -0.051    29.262     8.870
    20   6 C        3.079     0.043    26.941     8.509
    21   7 N        2.799    -0.034    21.905     6.951
    22   6 C        2.911     0.051    26.858     8.498
    23   6 C        2.916    -0.045    29.114     8.848
    24   6 C        2.922    -0.039    28.975     8.827
    25   6 C        2.970     0.003    27.953     8.672
    26   6 C        2.972    -0.008    28.210     8.712
    27   6 C        2.918    -0.041    29.007     8.832
    28   6 C        2.906    -0.043    29.077     8.842
    29   6 C        3.031    -0.010    28.241     8.717
    30   6 C        3.044    -0.005    28.107     8.695
    31   6 C        2.912    -0.044    29.088     8.844
    32   6 C        3.945     0.014    20.279     6.399
    33   6 C        3.055    -0.004    28.074     8.690
    34   6 C        2.914    -0.046    29.149     8.853
    35   6 C        2.973    -0.009    28.230     8.715
    36   6 C        2.970     0.002    27.968     8.675
    37   6 C        2.922    -0.040    28.985     8.829
    38   6 C        2.916    -0.045    29.124     8.850
    39   6 C        2.911     0.050    26.874     8.501
    40   7 N        2.799    -0.033    21.874     6.946
    41   6 C        3.076     0.043    26.947     8.511
    42   6 C        2.909    -0.051    29.265     8.870
    43   6 C        2.928    -0.045    29.109     8.848
    44   6 C        2.972     0.001    28.003     8.680
    45   6 C        3.902     0.025    20.093     6.372
    46   6 C        3.761    -0.105    22.549     6.769
    47   6 C        3.761    -0.105    22.551     6.770
    48   6 C        3.761    -0.107    22.591     6.776
    49   6 C        2.919    -0.039    28.981     8.828
    50   6 C        3.064    -0.019    28.414     8.741
    51   6 C        3.064    -0.019    28.417     8.741
    52   6 C        2.917    -0.044    29.082     8.843
    53   6 C        2.972     0.001    28.004     8.680
    54   6 C        3.902     0.025    20.092     6.372
    55   6 C        3.761    -0.105    22.552     6.770
    56   6 C        3.761    -0.107    22.589     6.775
    57   6 C        3.761    -0.105    22.552     6.770
    58   6 C        2.930    -0.040    29.000     8.831
    59   6 C        2.908    -0.051    29.258     8.869
    60   6 C        3.078     0.043    26.943     8.510
    61   6 C        2.916    -0.045    29.119     8.849
    62   6 C        2.921    -0.040    28.986     8.829
    63   6 C        2.918    -0.041    29.012     8.833
    64   6 C        2.906    -0.043    29.061     8.839
    65   6 C        3.028    -0.011    28.256     8.719
    66   6 C        2.983    -0.005    28.142     8.702
    67   6 C        2.924    -0.036    28.892     8.815
    68   6 C        2.918    -0.040    29.006     8.832
    69   6 C        2.919    -0.033    28.830     8.805
    70   6 C        2.922    -0.056    29.386     8.890
    71   6 C        2.929     0.061    26.639     8.464
    72   7 N        2.753    -0.062    22.442     7.036
    73   6 C        2.926     0.066    26.512     8.444
    74   6 C        2.922    -0.036    28.891     8.814
    75   6 C        2.920    -0.026    28.658     8.779
    76   6 C        2.919    -0.029    28.726     8.789
    77   6 C        2.920    -0.027    28.679     8.782
    78   6 C        2.921    -0.037    28.928     8.820
    79   6 C        2.926     0.061    26.636     8.464
    80   6 C        2.922    -0.057    29.419     8.895
    81   6 C        2.919    -0.033    28.832     8.805
    82   6 C        2.917    -0.041    29.016     8.833
    83   6 C        2.924    -0.036    28.894     8.815
    84   6 C        2.984    -0.005    28.149     8.703
    85   6 C        2.922    -0.040    28.991     8.830
    86   6 C        2.916    -0.045    29.116     8.848
    87   1 H        0.925     0.032     2.551     2.498
    88   1 H        0.925     0.039     2.467     2.456
    89   1 H        0.925     0.036     2.505     2.475
    90   1 H        0.925     0.036     2.499     2.472
    91   1 H        0.925     0.037     2.486     2.465
    92   1 H        0.925     0.036     2.501     2.473
    93   1 H        0.925     0.038     2.469     2.457
    94   1 H        0.925     0.036     2.502     2.474
    95   1 H        0.925     0.033     2.549     2.497
    96   1 H        0.926     0.032     2.558     2.501
    97   1 H        0.926     0.029     2.600     2.521
    98   1 H        0.926     0.041     2.434     2.439
    99   1 H        0.926     0.041     2.434     2.440
   100   1 H        0.925     0.036     2.504     2.474
   101   1 H        0.925     0.033     2.549     2.497
   102   1 H        0.925     0.039     2.469     2.457
   103   1 H        0.925     0.036     2.500     2.473
   104   1 H        0.925     0.037     2.486     2.466
   105   1 H        0.925     0.036     2.500     2.473
   106   1 H        0.925     0.039     2.467     2.456
   107   1 H        0.925     0.033     2.551     2.498
   108   1 H        0.925     0.036     2.504     2.474
   109   1 H        0.926     0.032     2.558     2.501
   110   1 H        0.926     0.029     2.599     2.521
   111   1 H        0.926     0.034     2.533     2.489
   112   1 H        0.926     0.032     2.559     2.502
   113   1 H        0.926     0.024     2.674     2.557
   114   1 H        0.926     0.020     2.739     2.588
   115   1 H        0.926     0.019     2.753     2.595
   116   1 H        0.926     0.018     2.768     2.602
   117   1 H        0.926     0.031     2.579     2.511
   118   1 H        0.926     0.035     2.512     2.479
   119   1 H        0.926     0.030     2.592     2.517
   120   1 H        0.926     0.039     2.458     2.452
   121   1 H        0.925     0.039     2.468     2.457
   122   1 H        0.925     0.032     2.555     2.499
   123   1 H        0.925     0.037     2.489     2.467
   124   1 H        0.925     0.039     2.468     2.457
   125   1 H        0.925     0.037     2.490     2.467
   126   1 H        0.925     0.032     2.553     2.499
   127   1 H        0.925     0.037     2.483     2.464
   128   1 H        0.925     0.035     2.511     2.478
   129   1 H        0.925     0.035     2.510     2.477
   130   1 H        0.926     0.034     2.529     2.487
   131   1 H        0.926     0.040     2.447     2.446
   132   1 H        0.925     0.033     2.548     2.496
   133   1 H        0.925     0.039     2.468     2.457
   134   1 H        0.925     0.037     2.493     2.469
   135   1 H        0.925     0.036     2.508     2.476
   136   1 H        0.925     0.037     2.487     2.466
   137   1 H        0.925     0.036     2.504     2.475
   138   1 H        0.925     0.032     2.553     2.499
   139   1 H        0.925     0.036     2.496     2.471
   140   1 H        0.925     0.039     2.467     2.456
   141   1 H        0.926     0.033     2.543     2.494
   142   1 H        0.926     0.030     2.581     2.512
   143   1 H        0.926     0.034     2.527     2.486
   144   1 H        0.926     0.032     2.561     2.502
   145   1 H        0.926     0.024     2.671     2.556
   146   1 H        0.926     0.021     2.722     2.580
   147   1 H        0.926     0.030     2.588     2.516
   148   1 H        0.926     0.031     2.571     2.507
   149   1 H        0.926     0.034     2.528     2.486
   150   1 H        0.926     0.032     2.554     2.499
   151   1 H        0.926     0.040     2.455     2.450
   152   1 H        0.926     0.044     2.391     2.418
   153   1 H        0.926     0.044     2.390     2.417
   154   1 H        0.926     0.045     2.386     2.416
   155   1 H        0.926     0.043     2.403     2.424
   156   1 H        0.926     0.034     2.532     2.488
   157   1 H        0.926     0.034     2.532     2.488
   158   1 H        0.926     0.031     2.577     2.510
   159   1 H        0.926     0.030     2.593     2.518
   160   1 H        0.926     0.032     2.553     2.499
   161   1 H        0.926     0.034     2.530     2.487

molecular dipole:
                 x           y           z       tot (Debye)
 q only:        0.705      -1.813       0.549
   full:        0.709      -1.686       0.510       4.826

 projected vibrational frequencies (cm⁻¹)
eigval :       -0.00    -0.00    -0.00     0.00     0.00     0.00
eigval :        2.83     5.55     8.61     9.22    11.99    15.08
eigval :       19.70    25.75    27.27    33.13    35.81    37.04
eigval :       37.17    38.30    39.25    43.39    47.17    53.20
eigval :       55.84    60.66    61.38    63.83    72.62    74.52
eigval :       76.74    82.20    91.92    94.91    99.97   100.31
eigval :      107.67   118.21   119.19   122.23   133.06   142.30
eigval :      153.45   161.36   165.60   172.89   178.79   180.72
eigval :      182.75   185.30   191.07   197.53   198.89   200.92
eigval :      205.17   217.42   222.18   225.60   227.11   230.47
eigval :      230.83   234.36   239.52   243.39   247.00   251.95
eigval :      259.17   259.96   263.37   269.91   271.43   277.47
eigval :      284.02   296.06   301.45   311.00   312.68   318.51
eigval :      322.35   325.77   326.61   327.66   336.22   339.66
eigval :      350.70   353.90   356.26   359.00   367.49   369.48
eigval :      370.70   374.72   377.56   378.23   382.09   385.08
eigval :      388.79   391.65   397.21   401.20   401.97   406.06
eigval :      409.97   410.34   413.06   421.92   423.57   431.97
eigval :      441.53   442.99   444.05   444.91   445.32   455.63
eigval :      459.94   463.82   464.94   465.61   468.98   471.83
eigval :      478.27   490.80   494.72   505.14   510.85   517.85
eigval :      518.71   527.26   534.67   540.76   566.96   571.81
eigval :      573.77   580.14   584.34   585.28   588.18   589.74
eigval :      592.73   594.19   602.70   603.42   608.70   614.30
eigval :      616.99   627.63   628.53   634.75   640.76   641.74
eigval :      657.77   663.90   669.50   674.63   675.20   679.25
eigval :      684.91   690.30   690.80   702.16   703.28   708.20
eigval :      709.90   713.65   717.79   717.90   724.24   730.05
eigval :      745.34   763.46   774.49   777.28   786.48   797.46
eigval :      803.48   808.93   812.27   821.70   823.16   823.99
eigval :      824.22   830.42   831.64   843.55   847.47   854.56
eigval :      860.64   865.76   869.73   869.87   870.87   871.91
eigval :      872.40   874.15   878.26   881.27   892.59   894.69
eigval :      901.51   902.05   904.48   905.26   908.14   908.31
eigval :      909.70   910.42   910.90   911.94   912.52   920.03
eigval :      920.14   920.37   921.20   922.80   923.40   924.11
eigval :      925.22   927.23   929.74   929.92   933.19   937.43
eigval :      939.88   942.09   959.21   959.22   959.36   959.56
eigval :      961.72   961.75   962.58   962.62   962.87   963.50
eigval :      963.69   964.15   981.04   994.80  1000.49  1007.36
eigval :     1030.14  1031.18  1033.95  1035.08  1035.17  1035.59
eigval :     1036.28  1037.06  1038.69  1040.04  1040.70  1046.67
eigval :     1078.03  1082.56  1101.30  1102.75  1107.83  1112.62
eigval :     1113.50  1122.87  1127.50  1128.22  1130.27  1136.40
eigval :     1137.67  1140.67  1140.92  1152.68  1167.37  1170.16
eigval :     1171.21  1172.71  1174.01  1176.68  1180.23  1181.62
eigval :     1184.90  1192.37  1199.89  1212.10  1216.48  1224.78
eigval :     1224.87  1224.94  1225.15  1225.65  1226.39  1227.87
eigval :     1228.98  1229.87  1230.31  1232.48  1233.92  1236.46
eigval :     1238.11  1242.12  1245.51  1257.80  1258.10  1259.23
eigval :     1265.68  1267.26  1269.08  1272.69  1272.80  1282.27
eigval :     1283.27  1290.24  1295.00  1298.39  1298.95  1299.86
eigval :     1307.27  1311.13  1312.53  1317.72  1321.58  1324.99
eigval :     1326.99  1332.46  1333.15  1345.23  1346.48  1349.03
eigval :     1350.72  1356.88  1364.18  1366.51  1384.32  1399.45
eigval :     1399.75  1400.53  1401.85  1401.98  1402.55  1402.82
eigval :     1403.67  1404.11  1409.73  1410.01  1420.95  1426.12
eigval :     1426.41  1426.95  1427.30  1427.43  1428.45  1429.79
eigval :     1433.14  1436.18  1436.86  1440.87  1458.41  1460.67
eigval :     1465.51  1466.30  1470.03  1472.83  1476.38  1478.07
eigval :     1480.21  1481.51  1484.30  1488.39  1489.72  1490.26
eigval :     1491.30  1491.58  1491.96  1491.98  1492.18  1492.44
eigval :     1493.66  1497.96  1498.50  1499.31  1499.60  1501.95
eigval :     1502.99  1503.67  1504.71  1507.02  1510.66  1511.44
eigval :     1512.69  1513.10  1516.77  1518.00  1518.13  1518.84
eigval :     1533.91  1563.10  1563.15  1563.99  1572.56  1574.87
eigval :     1576.13  1579.83  1580.60  1581.02  1589.21  1589.29
eigval :     1589.43  1594.93  1597.54  1600.25  1602.37  1607.52
eigval :     3018.80  3018.96  3019.29  3019.99  3020.18  3020.23
eigval :     3020.29  3020.36  3023.51  3023.51  3023.59  3023.89
eigval :     3024.86  3024.97  3025.06  3025.16  3027.19  3027.44
eigval :     3027.46  3027.54  3030.17  3030.32  3030.53  3030.86
eigval :     3034.93  3035.27  3035.36  3035.84  3043.90  3044.40
eigval :     3044.71  3045.10  3046.90  3047.58  3048.02  3048.27
eigval :     3063.00  3065.15  3072.54  3074.09  3075.72  3075.92
eigval :     3076.68  3076.94  3077.05  3078.41  3078.79  3079.33
eigval :     3079.52  3079.86  3080.01  3080.70  3081.50  3081.87
eigval :     3084.40  3084.99  3085.78  3089.34  3089.73  3089.86
eigval :     3090.64  3090.85  3090.99  3091.16  3091.42  3092.72
eigval :     3093.02  3093.66  3097.77  3098.13  3100.15  3115.93
eigval :     3117.51  3118.03  3118.54

   temp. (K)  partition function   enthalpy   heat capacity  entropy
                                   cal/mol     cal/K/mol   cal/K/mol   J/K/mol
 298.15  VIB  0.464E+38            46752.302    289.133    293.160
         ROT  0.727E+09              888.752      2.981     43.529
         INT  0.337E+47            47641.055    292.114    336.689
         TR   0.360E+29             1481.254      4.968     46.883
         TOT                       49122.3088   297.0822   383.5725  1604.8671

       T/K    H(0)-H(T)+PV         H(T)/Eh          T*S/Eh         G(T)/Eh
   ------------------------------------------------------------------------
    298.15    0.782814E-01    0.139086E+01    0.182248E+00    0.120861E+01
   ------------------------------------------------------------------------

         :::::::::::::::::::::::::::::::::::::::::::::::::::::
         ::                  THERMODYNAMIC                  ::
         :::::::::::::::::::::::::::::::::::::::::::::::::::::
         :: total free energy        -223.744566612784 Eh   ::
         ::.................................................::
         :: total energy             -224.953180711610 Eh   ::
         :: zero point energy           1.312580365751 Eh   ::
         :: G(RRHO) w/o ZPVE           -0.103966266925 Eh   ::
         :: G(RRHO) contrib.            1.208614098826 Eh   ::
         :::::::::::::::::::::::::::::::::::::::::::::::::::::

           -------------------------------------------------
          | TOTAL ENERGY             -224.953180711610 Eh   |
          | TOTAL ENTHALPY           -223.562318964019 Eh   |
          | TOTAL FREE ENERGY        -223.744566612784 Eh   |
          | GRADIENT NORM               0.000036633258 Eh/α |
          | HOMO-LUMO GAP               0.654360765155 eV   |
           -------------------------------------------------

 * finished run on 2025/08/26 at 08:28:06.187
