   * xtb version 6.7.1 (edcfbbe) compiled by 'albert@albert-system' on 2024-07-22

   ID    Z sym.   atoms
    1    6 C      1-20, 22-39, 41-71, 73-86
    2    7 N      21, 40, 72
    3    1 H      87-161

          program call               : xtb data2507/toluene/SAF-2CzB/SAF-2CzB_toluene_T1_crest.xyz --gfn 2 --uhf 2 --gbsa toluene --ohess vtight --parallel 40 --molden --ceasefiles --namespace data2507/toluene/SAF-2CzB/SAF-2CzB_toluene_T1_finalOpt
      * Solvation model:               GBSA
        Solvent                        toluene
        Solvent mass                       9.2140E+01 g/mol
          :  Hamiltonian                  GFN2-xTB          :
 * total energy  :  -224.9528331 Eh     change       -0.6187491E-08 Eh
 * total energy  :  -224.9528938 Eh     change       -0.6065756E-04 Eh
 * total energy  :  -224.9529380 Eh     change       -0.4426741E-04 Eh
 * total energy  :  -224.9529648 Eh     change       -0.2679497E-04 Eh
 * total energy  :  -224.9529849 Eh     change       -0.2012208E-04 Eh
 * total energy  :  -224.9530145 Eh     change       -0.2955000E-04 Eh
 * total energy  :  -224.9530104 Eh     change        0.4048498E-05 Eh
 * total energy  :  -224.9530285 Eh     change       -0.1802643E-04 Eh
 * total energy  :  -224.9530605 Eh     change       -0.3199081E-04 Eh
 * total energy  :  -224.9530797 Eh     change       -0.1918965E-04 Eh
 * total energy  :  -224.9534258 Eh     change       -0.4956364E-06 Eh
 * total energy  :  -224.9534262 Eh     change       -0.4282263E-06 Eh
 * total energy  :  -224.9534265 Eh     change       -0.3547388E-06 Eh
 * total energy  :  -224.9534269 Eh     change       -0.3268751E-06 Eh
 * total energy  :  -224.9534272 Eh     change       -0.3821909E-06 Eh
 * total energy  :  -224.9534277 Eh     change       -0.4705364E-06 Eh
 * total energy  :  -224.9534283 Eh     change       -0.5997946E-06 Eh
 * total energy  :  -224.9534290 Eh     change       -0.6615315E-06 Eh
 * total energy  :  -224.9534290 Eh     change       -0.3583722E-08 Eh
   *** GEOMETRY OPTIMIZATION CONVERGED AFTER 94 ITERATIONS ***

 final structure:
================
161
 xtb: 6.7.1 (edcfbbe)
C          -13.06863805370617        0.27905000256146        5.00819442626731
C          -12.93524593232027       -0.87149958392690        3.99915823823331
C          -14.32659691967571       -1.17124438641927        3.43247188039762
C          -12.43123900014291       -2.13402271755741        4.71480493374237
C          -11.93607960182559       -0.47788024451210        2.92029213210035
C          -10.61522868756255       -0.19020131818530        3.29187968561032
C           -9.63914251943952        0.16305866271795        2.38225092403266
C           -9.98921020026646        0.22609668705298        1.04118224253861
C          -11.32046398194982       -0.02641974755239        0.64401489849186
C          -12.28144352342569       -0.38108331688298        1.58023949787776
C          -11.36642466046825        0.18195199636247       -0.77867085991905
C          -12.38052836459185        0.07039860702238       -1.71952086077651
C          -12.10978580912528        0.31570233469514       -3.05775771883475
C          -13.17272483789896        0.21395444210065       -4.14254160543198
C          -13.28536494632164        1.56281167225005       -4.86887582123033
C          -14.55418528509112       -0.13939607167241       -3.58265956326390
C          -12.76749275994841       -0.88156716277988       -5.14040757069561
C          -10.79883162986679        0.65280497213963       -3.42282817148874
C           -9.77172646916824        0.77182086447722       -2.50861512793150
C          -10.06153302097826        0.55377540871201       -1.16938312093910
N           -9.23553413876999        0.57658828192357       -0.06214544262669
C           -7.87646435568436        0.89698983761833       -0.06071352534906
C           -6.95034063354404        0.08173280492565        0.59930521131163
C           -5.61387005931313        0.39207825283274        0.58676279498094
C           -5.12370574776121        1.54078985542674       -0.07208741103816
C           -3.72236340284861        1.85974143292900       -0.08871132665323
C           -3.26986544193641        3.19392883447872       -0.27474490270115
C           -1.94557030108912        3.52543943483294       -0.30410300706592
C           -0.97285367951764        2.51259085748036       -0.16429868634328
C           -1.41626973402772        1.16643539317236        0.02471974679724
C           -2.73610032629582        0.84774302445445        0.07155838059017
C           -0.22711368472446        0.23632604372743        0.13236989600923
C            0.93218834982892        1.21796138641299        0.00241315836690
C            2.26114281382952        0.94912928795935        0.03721370285861
C            3.20721564603062        1.99571755366496       -0.13443976916563
C            4.61517198006182        1.71643837088132       -0.11955787963458
C            5.13326866329605        0.59019882471734        0.55876492921720
C            6.47166914589573        0.29333247049250        0.54899622572508
C            7.37667085275623        1.10637101661778       -0.14384520055238
N            8.73470281621145        0.78875474223765       -0.17297224567916
C            9.78243544588645        1.66038829993713        0.05313316328489
C            9.77249349932061        3.00067810556728        0.41162710648638
C           10.98540100755624        3.62917551609501        0.60867883740314
C           12.21624745197600        2.97176082775387        0.47273554795866
C           13.49991529005028        3.75592079362256        0.70622049112212
C           14.75635717497764        2.90290370108387        0.50464997995602
C           13.51019046653097        4.28684455048054        2.14786137483680
C           13.56070864760623        4.93145232544195       -0.28093266405466
C           12.21242442316490        1.62403873709738        0.14414325138015
C           11.00742795972826        0.96704842159595       -0.06061229606663
C           10.67509312762373       -0.39612751595072       -0.37831735372936
C           11.44362287590701       -1.52438353433814       -0.62839411834606
C           10.82438197264208       -2.72475548178284       -0.94452235102342
C           11.60399353546058       -4.00176606706838       -1.22520221785902
C           11.17962070594569       -5.08305075479753       -0.21986400713882
C           13.11831591871601       -3.80662208218662       -1.10166483287121
C           11.30009782737300       -4.47417374936201       -2.65516560054108
C            9.42490015787471       -2.75401304113735       -1.02156266904623
C            8.63638674182998       -1.64757765395995       -0.77897781808086
C            9.26579404068813       -0.46008924610415       -0.43409629133968
C            6.88885768713519        2.23887212687200       -0.80688111811935
C            5.54963398941961        2.53600155991758       -0.79008859010945
C            2.70246728653605        3.30966353906241       -0.33042049345347
C            1.36600382133962        3.58952382733026       -0.34351302236266
C            0.43291888100669        2.54253643159739       -0.17935109521487
C           -0.15371696596766       -0.75792379231772       -0.99890798138546
C           -0.63627639791952       -0.43114782643971       -2.25591727695665
C           -0.48951894393628       -1.29592623890587       -3.32675090112059
C            0.15862405019863       -2.50585488703180       -3.14199410036673
C            0.64153732690743       -2.85214895877373       -1.89609624629719
C            0.49084701474963       -1.98675998053715       -0.80960802223682
N            0.94983277010000       -2.35365732408984        0.44655548525667
C            1.76767263209548       -3.51366786565469        0.56421722477116
C            3.12269846470340       -3.41689863416794        0.27448616459048
C            3.93276905205664       -4.53380506246883        0.38328741326017
C            3.39417552003633       -5.74710678744311        0.77851161252705
C            2.04127049384752       -5.84531399293776        1.06127254077360
C            1.22524396422622       -4.73269565906561        0.95430048361295
C            0.53716245495765       -1.67874202389545        1.58523421590651
C            0.77276979312600       -2.20870733408366        2.85656240906531
C            0.32925484905909       -1.55091236015059        3.98628098817621
C           -0.35610428355206       -0.35266795044352        3.87298606131403
C           -0.56385462276548        0.19514612591700        2.61917797017409
C           -0.12090979242612       -0.44573085647046        1.47322516122188
C           -6.07822816363440        2.35494135185670       -0.71996471490675
C           -7.41352890618186        2.04008729180214       -0.72188161638041
H          -13.40768126258824        1.18306111718033        4.50575058699223
H          -13.79256949820926        0.01942604752292        5.77800336891845
H          -12.12013561612329        0.49469852358326        5.49242872365581
H          -14.29021809304280       -1.99305860233553        2.72078685695477
H          -14.99344769865046       -1.45798993566658        4.24337606626398
H          -14.74877923830023       -0.29473491671173        2.94607616403633
H          -13.14844304903169       -2.44728130709370        5.47084307072121
H          -11.47696970673572       -1.95978358486018        5.20419238170952
H          -12.30506488886238       -2.94571174882247        4.00073573747928
H          -10.33620732687299       -0.23931080892242        4.33340094903965
H           -8.63791667480281        0.39485945495972        2.71293273043104
H          -13.28650073850457       -0.56998888336763        1.24219973596855
H          -13.36483541406550       -0.21308072674049       -1.38642409807152
H          -12.34950452623709        1.83657818898149       -5.34813348784659
H          -13.55006687316612        2.34873327792278       -4.16395123263983
H          -14.05662607238564        1.51170206105791       -5.63479824620326
H          -14.54153304927820       -1.10958672056099       -3.09110677927560
H          -15.27367816207684       -0.18649743985696       -4.39788530782337
H          -14.89475906234435        0.61525245718650       -2.87711950215483
H          -13.52875187661050       -0.98667509678349       -5.91080322716429
H          -12.66016135231900       -1.83576067034534       -4.62787251901873
H          -11.82333188371846       -0.64787173248911       -5.62481741445946
H          -10.56700901750827        0.82482367089642       -4.46285102075938
H           -8.77161533520616        1.01445962883793       -2.83491709736292
H           -7.29500778675918       -0.81064595938743        1.10145804299049
H           -4.92697609585623       -0.25009910866820        1.11666237900619
H           -4.00359259482696        3.98263578183269       -0.35420917039997
H           -1.63741768238087        4.55403635276252       -0.42622754456196
H           -3.03534690565095       -0.18423326392015        0.18206651718768
H            2.60437173527034       -0.06771443099240        0.15063282963427
H            4.46835257634255       -0.02827652951278        1.14268677342787
H            6.84376277092726       -0.55321545299078        1.10770099410082
H            8.84685214886336        3.53915537453845        0.54856812504096
H           10.97077346881713        4.67236337723745        0.88533697946242
H           15.64015318161617        3.51532635810232        0.67295962894914
H           14.80631655664627        2.51336713388258       -0.50975496652617
H           14.78450236667936        2.07413857246562        1.20851523465797
H           14.43301608371192        4.83053220607334        2.33982175347832
H           13.44245283293654        3.46080486876552        2.85338617422518
H           12.67586943833556        4.95873118731263        2.32997927776675
H           14.48420994924199        5.48969800155894       -0.14096156521761
H           12.72710639556386        5.61384881891440       -0.13955300375585
H           13.53100181982812        4.56461075666210       -1.30525993094719
H           13.12814561445460        1.06519140411288        0.04787697602467
H           12.51613340869904       -1.44017505123637       -0.57687577955576
H           11.37910945676394       -4.75049898351766        0.79711999994548
H           11.73775810318912       -5.99985564745024       -0.39876231129435
H           10.12007830206844       -5.30871429811290       -0.30267388588548
H           13.47852159118784       -3.07354942785054       -1.82002080801475
H           13.62235089363264       -4.74973189190089       -1.30411852950277
H           13.39185932711789       -3.48876008208067       -0.09798251379237
H           11.56661420145640       -3.69943323816816       -3.37171531062832
H           10.24643071654271       -4.70681353301163       -2.78201555314519
H           11.87561336665978       -5.36893416275567       -2.88380286984166
H            8.92964245631298       -3.67531317270218       -1.28787552257787
H            7.56258638076650       -1.70702264400768       -0.87278461423799
H            7.57404259262757        2.85862022786631       -1.36680138329831
H            5.19984527353212        3.39120639566162       -1.34796204342428
H            3.40601177130392        4.12332950369866       -0.43131019748555
H            1.01755284491244        4.60451169426192       -0.47146492734865
H           -1.12784264999688        0.52060250607553       -2.39598735233031
H           -0.87194523410484       -1.02228229104367       -4.29839752621408
H            0.28588547096967       -3.18783251216975       -3.96974554102990
H            1.13619928852874       -3.80152645313608       -1.75807207009016
H            3.53319719827709       -2.46916355538263       -0.04190417067689
H            4.98620682301921       -4.45395564951914        0.15997099228250
H            4.02756865167452       -6.61732738495082        0.86360775352426
H            1.61791333074865       -6.79149805442852        1.36399741592172
H            0.16840848529769       -4.80021225738032        1.16759608995716
H            1.30882757184152       -3.13960536386095        2.95844718531698
H            0.52092932159292       -1.97839741918555        4.95945258998109
H           -0.70960161456554        0.16193906556653        4.75362073750188
H           -1.06888408391056        1.14540961689723        2.52311790976266
H           -5.75306355978994        3.23540515853009       -1.25281161610298
H           -8.12255048501617        2.68702661650036       -1.21781345270527

          :  Hamiltonian                  GFN2-xTB          :
         :: gradient norm              0.000049061358 Eh/a0 ::
         :: HOMO-LUMO gap              0.658524102705 eV    ::
         :: SCC energy              -229.027482031040 Eh    ::
         :: -> dispersion             -0.221969730383 Eh    ::
         :: -> Gsolv                  -0.087535744602 Eh    ::
         :: repulsion energy           4.074053044654 Eh    ::

    * Orbital Energies and Occupations

         #    Occupation            Energy/Eh            Energy/eV
      -------------------------------------------------------------
         1        2.0000           -0.6747572             -18.3611
       ...           ...                  ...                  ...
       200        2.0000           -0.3975225             -10.8171
       201        2.0000           -0.3971154             -10.8061
       202        2.0000           -0.3928475             -10.6899
       203        2.0000           -0.3914253             -10.6512
       204        2.0000           -0.3902501             -10.6192
       205        2.0000           -0.3866297             -10.5207
       206        2.0000           -0.3745154             -10.1911
       207        2.0000           -0.3740586             -10.1787
       208        2.0000           -0.3638590              -9.9011
       209        1.9994           -0.3558736              -9.6838
       210        1.8660           -0.3506525              -9.5417
       211        1.1346           -0.3471121              -9.4454
       212        1.0000           -0.2689001              -7.3171 (HOMO)
       213        0.0000           -0.2446996              -6.6586 (LUMO)
       214        0.0000           -0.2416045              -6.5744
       215                         -0.2378736              -6.4729
       216                         -0.2371024              -6.4519
       217                         -0.2360604              -6.4235
       218                         -0.2309471              -6.2844
       219                         -0.2231773              -6.0730
       220                         -0.2226561              -6.0588
       221                         -0.2203255              -5.9954
       222                         -0.2197969              -5.9810
       223                         -0.2192042              -5.9648
       ...                                ...                  ...
       419                          0.7537179              20.5097
      -------------------------------------------------------------
                  HL-Gap            0.0242004 Eh            0.6585 eV

     #   Z          covCN         q      C6AA      α(0)
     1   6 C        3.761    -0.105    22.549     6.769
     2   6 C        3.902     0.025    20.094     6.372
     3   6 C        3.761    -0.107    22.594     6.776
     4   6 C        3.761    -0.105    22.551     6.770
     5   6 C        2.972     0.001    28.008     8.681
     6   6 C        2.930    -0.040    29.001     8.832
     7   6 C        2.908    -0.051    29.260     8.870
     8   6 C        3.079     0.043    26.941     8.510
     9   6 C        3.065    -0.019    28.425     8.743
    10   6 C        2.917    -0.044    29.092     8.845
    11   6 C        3.065    -0.019    28.425     8.743
    12   6 C        2.917    -0.044    29.092     8.845
    13   6 C        2.972     0.001    28.007     8.681
    14   6 C        3.902     0.025    20.094     6.372
    15   6 C        3.761    -0.105    22.551     6.770
    16   6 C        3.761    -0.107    22.594     6.776
    17   6 C        3.761    -0.105    22.549     6.769
    18   6 C        2.930    -0.040    29.001     8.832
    19   6 C        2.908    -0.051    29.260     8.870
    20   6 C        3.079     0.043    26.942     8.510
    21   7 N        2.799    -0.034    21.898     6.950
    22   6 C        2.911     0.051    26.859     8.498
    23   6 C        2.916    -0.045    29.114     8.848
    24   6 C        2.922    -0.039    28.976     8.827
    25   6 C        2.970     0.003    27.953     8.672
    26   6 C        2.972    -0.008    28.208     8.712
    27   6 C        2.918    -0.040    29.006     8.832
    28   6 C        2.906    -0.043    29.076     8.842
    29   6 C        3.031    -0.010    28.240     8.717
    30   6 C        3.044    -0.005    28.106     8.695
    31   6 C        2.913    -0.044    29.090     8.844
    32   6 C        3.945     0.014    20.279     6.399
    33   6 C        3.055    -0.004    28.073     8.689
    34   6 C        2.914    -0.046    29.149     8.853
    35   6 C        2.973    -0.009    28.228     8.715
    36   6 C        2.970     0.002    27.968     8.675
    37   6 C        2.922    -0.040    28.985     8.829
    38   6 C        2.916    -0.045    29.123     8.849
    39   6 C        2.911     0.050    26.871     8.500
    40   7 N        2.799    -0.033    21.877     6.947
    41   6 C        3.078     0.043    26.949     8.511
    42   6 C        2.908    -0.051    29.258     8.869
    43   6 C        2.930    -0.040    29.001     8.832
    44   6 C        2.972     0.001    28.006     8.681
    45   6 C        3.902     0.025    20.094     6.372
    46   6 C        3.761    -0.107    22.593     6.776
    47   6 C        3.761    -0.105    22.548     6.769
    48   6 C        3.761    -0.105    22.550     6.769
    49   6 C        2.917    -0.044    29.090     8.845
    50   6 C        3.065    -0.019    28.425     8.742
    51   6 C        3.065    -0.019    28.422     8.742
    52   6 C        2.917    -0.044    29.088     8.844
    53   6 C        2.972     0.001    28.006     8.681
    54   6 C        3.902     0.025    20.093     6.372
    55   6 C        3.761    -0.105    22.552     6.770
    56   6 C        3.761    -0.107    22.592     6.776
    57   6 C        3.761    -0.105    22.550     6.769
    58   6 C        2.930    -0.040    29.004     8.832
    59   6 C        2.908    -0.051    29.258     8.869
    60   6 C        3.079     0.043    26.950     8.511
    61   6 C        2.916    -0.045    29.119     8.849
    62   6 C        2.921    -0.040    28.986     8.829
    63   6 C        2.918    -0.041    29.011     8.833
    64   6 C        2.906    -0.043    29.059     8.839
    65   6 C        3.028    -0.011    28.254     8.719
    66   6 C        2.983    -0.005    28.143     8.702
    67   6 C        2.924    -0.036    28.890     8.814
    68   6 C        2.918    -0.040    29.005     8.832
    69   6 C        2.919    -0.033    28.829     8.805
    70   6 C        2.922    -0.056    29.387     8.890
    71   6 C        2.929     0.061    26.639     8.464
    72   7 N        2.753    -0.062    22.438     7.035
    73   6 C        2.926     0.066    26.513     8.444
    74   6 C        2.922    -0.036    28.891     8.814
    75   6 C        2.920    -0.026    28.658     8.779
    76   6 C        2.919    -0.029    28.726     8.789
    77   6 C        2.920    -0.027    28.679     8.782
    78   6 C        2.921    -0.037    28.928     8.820
    79   6 C        2.926     0.061    26.636     8.464
    80   6 C        2.922    -0.057    29.418     8.894
    81   6 C        2.919    -0.033    28.831     8.805
    82   6 C        2.917    -0.041    29.015     8.833
    83   6 C        2.924    -0.036    28.894     8.815
    84   6 C        2.984    -0.005    28.147     8.703
    85   6 C        2.922    -0.040    28.991     8.830
    86   6 C        2.916    -0.045    29.117     8.849
    87   1 H        0.925     0.033     2.551     2.498
    88   1 H        0.925     0.039     2.466     2.456
    89   1 H        0.925     0.036     2.505     2.475
    90   1 H        0.925     0.036     2.499     2.472
    91   1 H        0.925     0.037     2.486     2.465
    92   1 H        0.925     0.036     2.501     2.473
    93   1 H        0.925     0.038     2.469     2.457
    94   1 H        0.925     0.036     2.501     2.473
    95   1 H        0.925     0.033     2.549     2.497
    96   1 H        0.926     0.032     2.556     2.500
    97   1 H        0.926     0.029     2.598     2.520
    98   1 H        0.926     0.041     2.433     2.439
    99   1 H        0.926     0.041     2.433     2.439
   100   1 H        0.925     0.036     2.502     2.474
   101   1 H        0.925     0.033     2.549     2.497
   102   1 H        0.925     0.038     2.470     2.458
   103   1 H        0.925     0.036     2.499     2.472
   104   1 H        0.925     0.037     2.486     2.465
   105   1 H        0.925     0.036     2.500     2.473
   106   1 H        0.925     0.039     2.466     2.456
   107   1 H        0.925     0.033     2.550     2.497
   108   1 H        0.925     0.036     2.505     2.475
   109   1 H        0.926     0.032     2.557     2.500
   110   1 H        0.926     0.029     2.597     2.520
   111   1 H        0.926     0.034     2.532     2.488
   112   1 H        0.926     0.032     2.559     2.501
   113   1 H        0.926     0.024     2.673     2.557
   114   1 H        0.926     0.020     2.738     2.588
   115   1 H        0.926     0.019     2.751     2.594
   116   1 H        0.926     0.018     2.767     2.601
   117   1 H        0.926     0.031     2.579     2.511
   118   1 H        0.926     0.035     2.513     2.479
   119   1 H        0.926     0.029     2.597     2.520
   120   1 H        0.926     0.032     2.560     2.502
   121   1 H        0.925     0.037     2.487     2.466
   122   1 H        0.925     0.036     2.500     2.472
   123   1 H        0.925     0.036     2.499     2.472
   124   1 H        0.925     0.039     2.467     2.456
   125   1 H        0.925     0.033     2.550     2.497
   126   1 H        0.925     0.036     2.506     2.475
   127   1 H        0.925     0.038     2.470     2.458
   128   1 H        0.925     0.036     2.504     2.475
   129   1 H        0.925     0.033     2.549     2.497
   130   1 H        0.926     0.041     2.433     2.439
   131   1 H        0.926     0.041     2.437     2.441
   132   1 H        0.925     0.033     2.547     2.496
   133   1 H        0.925     0.038     2.469     2.457
   134   1 H        0.925     0.037     2.495     2.470
   135   1 H        0.925     0.036     2.505     2.475
   136   1 H        0.925     0.037     2.488     2.467
   137   1 H        0.925     0.036     2.502     2.474
   138   1 H        0.925     0.032     2.555     2.499
   139   1 H        0.925     0.036     2.498     2.472
   140   1 H        0.925     0.039     2.468     2.457
   141   1 H        0.926     0.033     2.547     2.496
   142   1 H        0.926     0.030     2.587     2.515
   143   1 H        0.926     0.034     2.527     2.486
   144   1 H        0.926     0.032     2.561     2.503
   145   1 H        0.926     0.024     2.672     2.556
   146   1 H        0.926     0.021     2.721     2.579
   147   1 H        0.926     0.030     2.589     2.516
   148   1 H        0.926     0.031     2.570     2.507
   149   1 H        0.926     0.034     2.527     2.486
   150   1 H        0.926     0.032     2.553     2.499
   151   1 H        0.926     0.039     2.455     2.450
   152   1 H        0.926     0.045     2.389     2.417
   153   1 H        0.926     0.045     2.390     2.417
   154   1 H        0.926     0.045     2.386     2.416
   155   1 H        0.926     0.043     2.404     2.424
   156   1 H        0.926     0.034     2.531     2.488
   157   1 H        0.926     0.034     2.531     2.488
   158   1 H        0.926     0.031     2.576     2.510
   159   1 H        0.926     0.030     2.591     2.517
   160   1 H        0.926     0.032     2.553     2.498
   161   1 H        0.926     0.034     2.529     2.487

molecular dipole:
                 x           y           z       tot (Debye)
 q only:        0.614      -1.916       0.153
   full:        0.608      -1.766       0.144       4.761

 projected vibrational frequencies (cm⁻¹)
eigval :       -0.00    -0.00     0.00     0.00     0.00     0.00
eigval :        3.40     7.18     8.61     9.98    11.29    15.71
eigval :       19.72    25.17    27.57    31.19    34.03    35.50
eigval :       38.16    39.80    41.61    43.72    48.27    52.98
eigval :       56.78    59.20    61.27    64.02    72.59    74.82
eigval :       77.87    83.29    92.23    95.77   100.64   101.21
eigval :      107.73   117.71   118.84   121.27   132.19   144.09
eigval :      153.86   164.01   167.46   173.28   178.52   181.87
eigval :      183.60   184.24   193.29   197.22   201.33   203.74
eigval :      204.91   220.71   223.34   224.06   229.11   231.04
eigval :      231.23   233.21   234.37   243.23   247.04   253.93
eigval :      258.74   259.04   260.03   267.18   270.89   274.35
eigval :      283.83   292.45   304.35   307.01   319.68   319.95
eigval :      323.52   324.81   325.64   333.17   337.00   339.33
eigval :      349.16   353.60   358.67   359.21   366.51   370.03
eigval :      370.77   376.33   377.70   380.02   382.47   385.40
eigval :      389.13   391.27   397.29   401.04   402.18   405.30
eigval :      409.30   409.79   412.67   421.76   423.53   431.19
eigval :      440.61   442.24   442.70   443.00   444.96   455.12
eigval :      460.08   464.53   465.65   466.23   466.55   471.81
eigval :      478.13   490.57   494.85   504.73   509.91   518.02
eigval :      518.91   527.17   534.97   541.18   566.54   572.04
eigval :      573.57   579.34   584.76   584.98   587.63   590.05
eigval :      592.71   594.59   602.77   603.31   608.65   613.72
eigval :      616.98   628.21   628.59   634.54   640.80   641.57
eigval :      657.45   664.23   670.05   675.34   676.17   679.04
eigval :      685.01   689.97   690.15   702.07   702.71   707.72
eigval :      708.45   713.88   717.78   717.85   724.65   730.24
eigval :      745.10   765.47   772.18   776.53   789.96   797.37
eigval :      803.35   808.74   811.32   820.02   822.51   823.80
eigval :      826.53   829.92   830.76   840.29   846.97   848.93
eigval :      857.86   864.71   869.03   869.51   870.82   871.63
eigval :      871.85   872.70   874.70   881.89   893.45   898.14
eigval :      901.34   901.90   905.38   906.91   908.07   908.43
eigval :      909.70   909.84   910.99   912.61   913.76   917.59
eigval :      919.99   921.27   921.61   922.03   923.28   924.64
eigval :      925.36   928.00   930.33   933.19   934.90   937.47
eigval :      940.19   942.40   958.87   958.95   958.98   959.78
eigval :      960.04   961.67   961.69   961.96   962.22   962.41
eigval :      963.63   964.15   980.93   994.69  1000.32  1007.36
eigval :     1030.00  1030.12  1034.19  1034.24  1034.90  1035.71
eigval :     1036.12  1036.18  1040.65  1040.74  1040.81  1047.27
eigval :     1077.95  1082.82  1102.09  1103.52  1107.87  1113.04
eigval :     1114.46  1123.15  1127.48  1127.52  1130.71  1136.72
eigval :     1137.45  1139.79  1141.76  1153.11  1168.24  1170.16
eigval :     1170.72  1171.35  1173.06  1178.24  1179.17  1181.95
eigval :     1184.91  1192.09  1201.28  1211.12  1215.87  1224.72
eigval :     1224.78  1224.80  1224.94  1227.17  1228.07  1228.80
eigval :     1229.37  1229.62  1229.82  1233.33  1233.49  1237.05
eigval :     1240.14  1241.61  1242.03  1256.88  1257.71  1260.32
eigval :     1265.67  1268.46  1269.28  1273.18  1273.79  1282.46
eigval :     1282.70  1290.67  1297.94  1298.51  1299.11  1300.09
eigval :     1307.58  1311.59  1312.43  1317.90  1321.65  1324.95
eigval :     1326.19  1332.45  1333.18  1345.14  1346.47  1348.92
eigval :     1349.02  1356.70  1364.19  1367.86  1385.44  1399.48
eigval :     1399.68  1400.43  1401.90  1402.79  1402.87  1402.96
eigval :     1403.30  1404.26  1409.61  1409.83  1421.12  1425.94
eigval :     1426.64  1427.05  1427.15  1427.74  1429.01  1429.79
eigval :     1433.31  1435.95  1436.99  1440.90  1458.75  1460.64
eigval :     1466.18  1469.59  1469.90  1472.67  1477.86  1480.04
eigval :     1480.33  1482.17  1484.36  1489.21  1489.34  1489.67
eigval :     1490.58  1491.67  1492.25  1492.57  1492.61  1493.07
eigval :     1493.20  1499.10  1499.14  1499.55  1499.93  1502.28
eigval :     1502.95  1503.14  1503.74  1507.12  1511.54  1511.96
eigval :     1512.28  1512.93  1518.11  1518.60  1519.38  1519.59
eigval :     1534.35  1562.94  1563.13  1563.20  1572.13  1574.63
eigval :     1575.20  1579.80  1580.56  1581.52  1589.01  1589.10
eigval :     1589.37  1596.02  1597.75  1600.74  1601.01  1607.05
eigval :     3018.62  3019.01  3019.15  3019.61  3019.74  3020.01
eigval :     3020.03  3020.56  3023.30  3023.33  3023.55  3023.84
eigval :     3024.52  3024.69  3024.74  3024.97  3027.05  3027.23
eigval :     3027.33  3027.78  3030.30  3030.47  3030.60  3030.71
eigval :     3035.09  3035.67  3035.83  3036.03  3043.31  3044.24
eigval :     3044.82  3044.85  3047.19  3047.85  3047.95  3048.16
eigval :     3062.90  3065.06  3073.77  3073.95  3075.67  3075.96
eigval :     3076.36  3076.90  3077.52  3078.73  3078.79  3079.41
eigval :     3079.91  3079.93  3080.14  3080.35  3080.56  3081.21
eigval :     3081.45  3085.60  3086.28  3090.07  3090.44  3090.94
eigval :     3091.49  3091.62  3091.67  3091.78  3092.14  3092.47
eigval :     3092.91  3093.95  3097.71  3098.34  3101.87  3115.17
eigval :     3116.38  3117.90  3119.10

   temp. (K)  partition function   enthalpy   heat capacity  entropy
                                   cal/mol     cal/K/mol   cal/K/mol   J/K/mol
 298.15  VIB  0.268E+38            46735.747    289.187    292.531
         ROT  0.726E+09              888.752      2.981     43.526
         INT  0.195E+47            47624.499    292.167    336.057
         TR   0.360E+29             1481.254      4.968     46.883
         TOT                       49105.7531   297.1356   382.9405  1602.2231

       T/K    H(0)-H(T)+PV         H(T)/Eh          T*S/Eh         G(T)/Eh
   ------------------------------------------------------------------------
    298.15    0.782550E-01    0.139090E+01    0.181947E+00    0.120895E+01
   ------------------------------------------------------------------------

         :::::::::::::::::::::::::::::::::::::::::::::::::::::
         ::                  THERMODYNAMIC                  ::
         :::::::::::::::::::::::::::::::::::::::::::::::::::::
         :: total free energy        -223.744478323550 Eh   ::
         ::.................................................::
         :: total energy             -224.953428984512 Eh   ::
         :: zero point energy           1.312643058347 Eh   ::
         :: G(RRHO) w/o ZPVE           -0.103692397385 Eh   ::
         :: G(RRHO) contrib.            1.208950660963 Eh   ::
         :::::::::::::::::::::::::::::::::::::::::::::::::::::

           -------------------------------------------------
          | TOTAL ENERGY             -224.953428984512 Eh   |
          | TOTAL ENTHALPY           -223.562530927519 Eh   |
          | TOTAL FREE ENERGY        -223.744478323550 Eh   |
          | GRADIENT NORM               0.000048667770 Eh/α |
          | HOMO-LUMO GAP               0.658527298092 eV   |
           -------------------------------------------------

 * finished run on 2025/08/26 at 09:18:06.096
