   * xtb version 6.7.1 (edcfbbe) compiled by 'albert@albert-system' on 2024-07-22

   ID    Z sym.   atoms
    1    6 C      1-20, 22-39, 41-71, 73-86
    2    7 N      21, 40, 72
    3    1 H      87-161

          program call               : xtb data2507/toluene/SAF-2CzB/SAF-2CzB_toluene_S0_crest.xyz --gfn 2 --gbsa toluene --ohess vtight --parallel 40 --molden --ceasefiles --namespace data2507/toluene/SAF-2CzB/SAF-2CzB_toluene_S0_finalOpt
      * Solvation model:               GBSA
        Solvent                        toluene
        Solvent mass                       9.2140E+01 g/mol
          :  Hamiltonian                  GFN2-xTB          :
 * total energy  :  -225.0366400 Eh     change       -0.3891444E-08 Eh
 * total energy  :  -225.0366956 Eh     change       -0.5560630E-04 Eh
 * total energy  :  -225.0367345 Eh     change       -0.3887256E-04 Eh
 * total energy  :  -225.0367557 Eh     change       -0.2121762E-04 Eh
 * total energy  :  -225.0367889 Eh     change       -0.3320013E-04 Eh
 * total energy  :  -225.0368073 Eh     change       -0.1840096E-04 Eh
 * total energy  :  -225.0368342 Eh     change       -0.2683800E-04 Eh
 * total energy  :  -225.0368733 Eh     change       -0.3909522E-04 Eh
 * total energy  :  -225.0369100 Eh     change       -0.3668597E-04 Eh
 * total energy  :  -225.0369495 Eh     change       -0.3950159E-04 Eh
 * total energy  :  -225.0376857 Eh     change       -0.3660170E-06 Eh
 * total energy  :  -225.0376860 Eh     change       -0.3283461E-06 Eh
 * total energy  :  -225.0376863 Eh     change       -0.2941082E-06 Eh
 * total energy  :  -225.0376866 Eh     change       -0.2996964E-06 Eh
 * total energy  :  -225.0376870 Eh     change       -0.4163586E-06 Eh
 * total energy  :  -225.0376875 Eh     change       -0.5444179E-06 Eh
 * total energy  :  -225.0376882 Eh     change       -0.6517074E-06 Eh
 * total energy  :  -225.0376889 Eh     change       -0.7029364E-06 Eh
 * total energy  :  -225.0376889 Eh     change       -0.7935341E-08 Eh
   *** GEOMETRY OPTIMIZATION CONVERGED AFTER 94 ITERATIONS ***

 final structure:
================
161
 xtb: 6.7.1 (edcfbbe)
C          -13.40309925782587        1.84467061344815        4.49416766747147
C          -13.21886011413819        0.44001250011561        3.90044876057555
C          -14.57215738424013       -0.02453744634785        3.35289953568245
C          -12.79170350993526       -0.53909408130122        5.00430269690773
C          -12.13816347340999        0.48645683782934        2.82833412098932
C          -10.84391667239572        0.88828593554925        3.18777717354087
C           -9.80034947955184        0.95425557233033        2.28698411409659
C          -10.05153999810627        0.59679595407964        0.97092510972243
C          -11.35039143356443        0.21092001921410        0.57711022751288
C          -12.38219168788507        0.15458979736924        1.50577257268432
C          -11.28789933413357       -0.04681564549827       -0.83531396001714
C          -12.22904974978947       -0.47541358325626       -1.76317776678640
C          -11.85822233293089       -0.66418508464280       -3.08437189580981
C          -12.83703035190968       -1.12701232214844       -4.15535944170731
C          -12.91287204187558       -0.06409687960812       -5.26177438205332
C          -14.25115634289848       -1.34247282458719       -3.60706476639543
C          -12.34815004431742       -2.45837848000096       -4.74538831460347
C          -10.52390471294524       -0.42702258121180       -3.44346645915142
C           -9.56804642833833       -0.00127004234775       -2.54369110820229
C           -9.95695677277488        0.20660393378680       -1.22897328952984
N           -9.21590231517558        0.59452670786689       -0.12918039047873
C           -7.85387272453426        0.92341280588765       -0.13367011324040
C           -6.98289588243457        0.33903578494436        0.78232756772217
C           -5.64014776465337        0.65871300858388        0.76550526416772
C           -5.13022565721382        1.56469056330308       -0.16338074248997
C           -3.69773315716711        1.89080473653200       -0.18928748096670
C           -3.27418011785113        3.20438643901184       -0.39908204626022
C           -1.93108870963411        3.53394095253567       -0.43864870173202
C           -0.99105153561633        2.52918632735627       -0.27107877350209
C           -1.40900678804912        1.20595482132318       -0.05638643380720
C           -2.74523540974712        0.88316206470962       -0.01234455369560
C           -0.22169549918182        0.28245152007558        0.08853131038677
C            0.93386061593857        1.25867974228051       -0.06744648123013
C            2.27964283632850        0.98927538074827       -0.02276469835570
C            3.19188505633641        2.03251223569385       -0.20137732065933
C            4.63211289892571        1.74662168667637       -0.16372542524147
C            5.15171056998792        0.86216286745611        0.78106859777278
C            6.49788852626840        0.56120567904375        0.80730280561088
C            7.36101767998197        1.12678782444855       -0.12850436531676
N            8.72128667914908        0.79418939471688       -0.12385926214194
C            9.77988384751560        1.68099981909106       -0.17405947572208
C            9.78974027310774        3.06578614485762       -0.18441695828219
C           11.01169903878683        3.71339172356185       -0.21153310426615
C           12.22987521483897        3.02726799190900       -0.21947371496546
C           13.57330278347167        3.74473132679005       -0.25784194543189
C           14.34809617388247        3.29277337656613       -1.50504073638587
C           14.36961138139664        3.38613068102210        1.00592655881393
C           13.43447890279613        5.26920626823713       -0.31493959030890
C           12.20642695605141        1.63910926420153       -0.17944889613200
C           10.99640974590967        0.96354610824812       -0.15293778025025
C           10.64684332093342       -0.42968675469672       -0.09340524477423
C           11.40139801528288       -1.59577620755488       -0.06943480589796
C           10.76730678012968       -2.82720624912058       -0.03777606137312
C           11.53021205323336       -4.14487151283530       -0.00564087463688
C           11.13699126395672       -4.92614715409904        1.25718422492030
C           13.04885755757678       -3.94508051771048        0.01536115630434
C           11.17517598703119       -4.96403288933358       -1.25573014136722
C            9.36593882666368       -2.85595066695815       -0.04920807857322
C            8.59129312255371       -1.71399241583803       -0.07176409637135
C            9.23753792604673       -0.48709685937131       -0.07499665338407
C            6.85273682819039        2.01745336462175       -1.07100883814337
C            5.50760916607019        2.32793057899415       -1.07926973670564
C            2.71658274364588        3.32613620978673       -0.41958445227287
C            1.36062372507970        3.60130130817038       -0.45502037311834
C            0.46105405996567        2.56133929829002       -0.27866381368475
C           -0.15024782825786       -0.75130747300803       -1.01087442819724
C           -0.62463174522250       -0.45959202014106       -2.27961202244241
C           -0.48713930086524       -1.36090481957241       -3.32087188029962
C            0.14338246371436       -2.57152060005294       -3.09176559230738
C            0.61653706692553       -2.88202529336290       -1.83231628817540
C            0.47588469116348       -1.97998183415333       -0.77564489659311
N            0.93084179952584       -2.30754645706789        0.49403544011866
C            1.69763795531147       -3.49597025747732        0.66146031174292
C            3.06113865984366       -3.46331891529528        0.39902274626847
C            3.82225646087111       -4.60867201135464        0.55609929694855
C            3.22630573796998       -5.78701135967263        0.97381422036252
C            1.86502964427580       -5.82189663876856        1.23021221222919
C            1.09820759711529       -4.68067611111159        1.07381257448113
C            0.50627719162298       -1.59640136214142        1.60767964887545
C            0.71684642246604       -2.09028717475541        2.89688926789736
C            0.26767994976007       -1.39415636930978        4.00180711612380
C           -0.40108293141801       -0.19265218290873        3.84575351033798
C           -0.58500021273868        0.31927456090025        2.57308017715502
C           -0.13416091020853       -0.36084088670118        1.45330613173761
C           -6.01103162426070        2.14749745508753       -1.07339029120685
C           -7.35532843910274        1.83531053412702       -1.06058398551826
H          -13.68276329823577        2.54890776816888        3.71273684451468
H          -14.18904110276586        1.83347184590497        5.24684894014013
H          -12.48949365428110        2.20125863401338        4.96198429874690
H          -14.50230766316070       -1.02694514388845        2.93629879432130
H          -15.30155944684427       -0.04628662300011        4.16048118060724
H          -14.93929533549347        0.65583815385192        2.58768290760794
H          -13.56266441036696       -0.60092660299398        5.76984906397634
H          -11.86649923022776       -0.22350937673245        5.47866285360084
H          -12.63876003988800       -1.53255384408675        4.58660665587091
H          -10.64123457778642        1.16541927813984        4.21135776377507
H           -8.82196388374030        1.28483856822393        2.60298876067160
H          -13.36096681630436       -0.14543666773885        1.17022683959744
H          -13.23617886831037       -0.65897220763543       -1.42762553057641
H          -11.94526136231457        0.08927536666851       -5.73178068740178
H          -13.24489842483271        0.88616701191649       -4.84752458794310
H          -13.61944818835857       -0.37178129978858       -6.03015659879208
H          -14.25995803858235       -2.11371177181772       -2.84000465999866
H          -14.90741566045356       -1.66380961005900       -4.41373061981003
H          -14.65468899671171       -0.42132270639537       -3.19258280599690
H          -13.05092886468853       -2.81710976478640       -5.49488737544308
H          -12.26578103964606       -3.20886761517381       -3.96128977807370
H          -11.37478098729413       -2.35080120187246       -5.21615559529273
H          -10.21522152872565       -0.58509182555134       -4.46589801958315
H           -8.54657057821125        0.15195666933278       -2.85906116299569
H           -7.36329867898712       -0.37618923181248        1.49661404577875
H           -4.97742718557690        0.20697443535784        1.48924450724931
H           -4.01489475854937        3.98261791070272       -0.51312303219865
H           -1.62393591234080        4.55712547715698       -0.59771901776536
H           -3.05633080646409       -0.14149739493172        0.13139118328849
H            2.63382692017828       -0.01938624237965        0.12751948924396
H            4.49502060405170        0.42662251155707        1.52050285805535
H            6.89210455191954       -0.10491997931548        1.56043844953215
H            8.87180392120982        3.63433544706932       -0.16136566581069
H           11.00139483672391        4.79089499878726       -0.22288858895224
H           15.30556098634317        3.80717976316303       -1.55914538608893
H           13.78035254767951        3.52424006921875       -2.40442869177522
H           14.53742244911832        2.22298648826244       -1.48878610599441
H           15.32601095017878        3.90533942962583        1.00726923533668
H           14.56204923727833        2.31821939040466        1.06307097454730
H           13.81543169200374        3.68007734353164        1.89548916764460
H           14.42412188401867        5.72096679559507       -0.35186915363979
H           12.92522463128468        5.65067985931713        0.56730202713584
H           12.89071206689967        5.57983888420267       -1.20442511173431
H           13.12245598354035        1.06853803315030       -0.16487989057456
H           12.47554526917002       -1.51428897278857       -0.08174432695078
H           11.36722988242025       -4.34256630505678        2.14670635906697
H           11.68948556968852       -5.86244916033190        1.30589548877571
H           10.07541041237297       -5.15731563807204        1.26744269721713
H           13.38793744162747       -3.42685765085826       -0.87891279132565
H           13.54177900733677       -4.91495588681235        0.04812051475842
H           13.35690754246205       -3.38178464447287        0.89353584541353
H           11.42730412442822       -4.40523434528813       -2.15517832243919
H           10.11498208514189       -5.19978043499568       -1.28834745848923
H           11.73228675717245       -5.89882734349677       -1.26222510916458
H            8.85728146126991       -3.80819075189235       -0.04468741600927
H            7.51389604781324       -1.78145563647967       -0.09843209441877
H            7.51440254837858        2.44613244029458       -1.80902415699025
H            5.12259173663871        3.00355533315258       -1.82890465745180
H            3.42557839030103        4.13247192975544       -0.54072793815043
H            1.01320430574437        4.61130484162743       -0.61589912208226
H           -1.10188345949048        0.49368935513438       -2.45538290348789
H           -0.86169424900458       -1.11453742746738       -4.30289419528107
H            0.26527441722287       -3.28315102647482       -3.89531848964766
H            1.09893709827588       -3.83256975443718       -1.66173003854672
H            3.51662813352983       -2.54244314070120        0.06535674018695
H            4.88240609922347       -4.57946032282439        0.35237534460746
H            3.82150752104665       -6.67941843997849        1.09727599779902
H            1.39739825080333       -6.74135721853667        1.55024577419873
H            0.03535703006741       -4.69907393409340        1.26714214334532
H            1.24011531870128       -3.02418523893316        3.03346183052567
H            0.44202815406181       -1.79644302879709        4.98912998151612
H           -0.75911933574512        0.35254742362065        4.70599306087935
H           -1.07599766177598        1.27322216603313        2.44446468664704
H           -5.63493161377061        2.84279810667337       -1.80944935895015
H           -8.02989418647363        2.30187400203329       -1.76327585315688

          :  Hamiltonian                  GFN2-xTB          :
         :: gradient norm              0.000060112906 Eh/a0 ::
         :: HOMO-LUMO gap              2.266775098253 eV    ::
         :: SCC energy              -229.128808491288 Eh    ::
         :: -> dispersion             -0.221505368764 Eh    ::
         :: -> Gsolv                  -0.086801518787 Eh    ::
         :: repulsion energy           4.091119587909 Eh    ::

    * Orbital Energies and Occupations

         #    Occupation            Energy/Eh            Energy/eV
      -------------------------------------------------------------
         1        2.0000           -0.6703014             -18.2398
       ...           ...                  ...                  ...
       199        2.0000           -0.4035797             -10.9820
       200        2.0000           -0.3970313             -10.8038
       201        2.0000           -0.3962902             -10.7836
       202        2.0000           -0.3949035             -10.7459
       203        2.0000           -0.3932707             -10.7014
       204        2.0000           -0.3930822             -10.6963
       205        2.0000           -0.3924928             -10.6803
       206        2.0000           -0.3732989             -10.1580
       207        2.0000           -0.3711608             -10.0998
       208        2.0000           -0.3698468             -10.0640
       209        2.0000           -0.3535051              -9.6194
       210        2.0000           -0.3523140              -9.5870
       211        2.0000           -0.3480987              -9.4722 (HOMO)
       212                         -0.2647962              -7.2055 (LUMO)
       213                         -0.2425094              -6.5990
       214                         -0.2381287              -6.4798
       215                         -0.2357474              -6.4150
       216                         -0.2350970              -6.3973
       217                         -0.2342900              -6.3754
       218                         -0.2307904              -6.2801
       219                         -0.2281277              -6.2077
       220                         -0.2278354              -6.1997
       221                         -0.2240938              -6.0979
       222                         -0.2219591              -6.0398
       ...                                ...                  ...
       419                          0.7468919              20.3240
      -------------------------------------------------------------
                  HL-Gap            0.0833025 Eh            2.2668 eV

     #   Z          covCN         q      C6AA      α(0)
     1   6 C        3.761    -0.104    22.535     6.767
     2   6 C        3.902     0.025    20.106     6.374
     3   6 C        3.761    -0.106    22.571     6.773
     4   6 C        3.761    -0.104    22.536     6.767
     5   6 C        2.972    -0.004    28.120     8.698
     6   6 C        2.931    -0.041    29.025     8.835
     7   6 C        2.908    -0.055    29.371     8.887
     8   6 C        3.079     0.044    26.930     8.508
     9   6 C        3.067    -0.022    28.490     8.752
    10   6 C        2.918    -0.046    29.141     8.852
    11   6 C        3.067    -0.022    28.491     8.752
    12   6 C        2.918    -0.046    29.142     8.852
    13   6 C        2.972    -0.004    28.119     8.698
    14   6 C        3.902     0.025    20.106     6.374
    15   6 C        3.761    -0.104    22.537     6.767
    16   6 C        3.761    -0.106    22.571     6.773
    17   6 C        3.761    -0.104    22.536     6.767
    18   6 C        2.931    -0.041    29.025     8.835
    19   6 C        2.908    -0.055    29.371     8.887
    20   6 C        3.080     0.044    26.930     8.508
    21   7 N        2.801    -0.052    22.233     7.003
    22   6 C        2.912     0.063    26.583     8.454
    23   6 C        2.920    -0.044    29.091     8.845
    24   6 C        2.924    -0.034    28.835     8.806
    25   6 C        2.976     0.007    27.863     8.659
    26   6 C        2.978     0.007    27.861     8.658
    27   6 C        2.925    -0.039    28.958     8.825
    28   6 C        2.912    -0.036    28.898     8.815
    29   6 C        3.036    -0.001    28.023     8.683
    30   6 C        3.052     0.002    27.938     8.669
    31   6 C        2.919    -0.037    28.928     8.820
    32   6 C        3.949     0.014    20.276     6.398
    33   6 C        3.062     0.001    27.939     8.668
    34   6 C        2.920    -0.040    28.984     8.828
    35   6 C        2.979     0.006    27.873     8.660
    36   6 C        2.976     0.006    27.873     8.660
    37   6 C        2.925    -0.034    28.838     8.807
    38   6 C        2.920    -0.044    29.101     8.846
    39   6 C        2.912     0.063    26.585     8.455
    40   7 N        2.801    -0.051    22.223     7.001
    41   6 C        3.077     0.044    26.932     8.509
    42   6 C        2.909    -0.056    29.386     8.889
    43   6 C        2.928    -0.046    29.133     8.852
    44   6 C        2.971    -0.004    28.116     8.698
    45   6 C        3.902     0.025    20.105     6.374
    46   6 C        3.761    -0.104    22.535     6.767
    47   6 C        3.761    -0.104    22.533     6.767
    48   6 C        3.761    -0.106    22.572     6.773
    49   6 C        2.920    -0.042    29.032     8.836
    50   6 C        3.066    -0.021    28.474     8.750
    51   6 C        3.065    -0.022    28.484     8.752
    52   6 C        2.918    -0.046    29.131     8.851
    53   6 C        2.972    -0.004    28.118     8.698
    54   6 C        3.902     0.025    20.104     6.373
    55   6 C        3.761    -0.104    22.538     6.768
    56   6 C        3.761    -0.106    22.566     6.772
    57   6 C        3.761    -0.104    22.536     6.767
    58   6 C        2.931    -0.041    29.020     8.835
    59   6 C        2.908    -0.055    29.368     8.886
    60   6 C        3.079     0.044    26.927     8.507
    61   6 C        2.920    -0.044    29.101     8.846
    62   6 C        2.924    -0.034    28.844     8.807
    63   6 C        2.925    -0.039    28.962     8.825
    64   6 C        2.913    -0.036    28.886     8.813
    65   6 C        3.033    -0.002    28.036     8.685
    66   6 C        2.984    -0.009    28.234     8.716
    67   6 C        2.924    -0.037    28.932     8.821
    68   6 C        2.918    -0.045    29.108     8.847
    69   6 C        2.919    -0.034    28.849     8.808
    70   6 C        2.923    -0.058    29.447     8.899
    71   6 C        2.929     0.061    26.642     8.465
    72   7 N        2.753    -0.077    22.729     7.081
    73   6 C        2.925     0.068    26.482     8.439
    74   6 C        2.922    -0.037    28.918     8.819
    75   6 C        2.920    -0.027    28.679     8.782
    76   6 C        2.920    -0.030    28.749     8.793
    77   6 C        2.920    -0.028    28.699     8.785
    78   6 C        2.921    -0.038    28.942     8.822
    79   6 C        2.926     0.061    26.643     8.465
    80   6 C        2.923    -0.059    29.473     8.903
    81   6 C        2.919    -0.034    28.855     8.809
    82   6 C        2.917    -0.045    29.119     8.849
    83   6 C        2.924    -0.038    28.937     8.822
    84   6 C        2.984    -0.009    28.243     8.717
    85   6 C        2.924    -0.034    28.849     8.808
    86   6 C        2.920    -0.044    29.095     8.845
    87   1 H        0.925     0.032     2.564     2.504
    88   1 H        0.925     0.037     2.488     2.466
    89   1 H        0.925     0.035     2.516     2.481
    90   1 H        0.925     0.035     2.516     2.480
    91   1 H        0.925     0.036     2.504     2.474
    92   1 H        0.925     0.035     2.517     2.481
    93   1 H        0.925     0.037     2.489     2.467
    94   1 H        0.925     0.035     2.514     2.480
    95   1 H        0.925     0.032     2.563     2.504
    96   1 H        0.926     0.028     2.615     2.529
    97   1 H        0.926     0.024     2.670     2.555
    98   1 H        0.926     0.036     2.502     2.473
    99   1 H        0.926     0.036     2.502     2.473
   100   1 H        0.925     0.035     2.514     2.480
   101   1 H        0.925     0.032     2.562     2.503
   102   1 H        0.925     0.037     2.489     2.467
   103   1 H        0.925     0.035     2.517     2.481
   104   1 H        0.925     0.036     2.503     2.474
   105   1 H        0.925     0.035     2.515     2.480
   106   1 H        0.925     0.037     2.488     2.466
   107   1 H        0.925     0.032     2.565     2.505
   108   1 H        0.925     0.035     2.516     2.480
   109   1 H        0.926     0.028     2.615     2.529
   110   1 H        0.926     0.024     2.669     2.555
   111   1 H        0.926     0.040     2.455     2.450
   112   1 H        0.926     0.039     2.469     2.457
   113   1 H        0.926     0.034     2.529     2.487
   114   1 H        0.926     0.033     2.545     2.495
   115   1 H        0.926     0.029     2.600     2.521
   116   1 H        0.926     0.028     2.619     2.531
   117   1 H        0.926     0.037     2.485     2.465
   118   1 H        0.926     0.040     2.443     2.444
   119   1 H        0.926     0.025     2.663     2.552
   120   1 H        0.926     0.035     2.511     2.478
   121   1 H        0.925     0.037     2.491     2.468
   122   1 H        0.925     0.031     2.566     2.505
   123   1 H        0.925     0.036     2.508     2.477
   124   1 H        0.925     0.037     2.489     2.467
   125   1 H        0.925     0.036     2.509     2.477
   126   1 H        0.925     0.031     2.568     2.506
   127   1 H        0.925     0.036     2.501     2.473
   128   1 H        0.925     0.035     2.522     2.483
   129   1 H        0.925     0.035     2.520     2.482
   130   1 H        0.926     0.029     2.604     2.523
   131   1 H        0.926     0.035     2.515     2.480
   132   1 H        0.925     0.032     2.562     2.503
   133   1 H        0.925     0.037     2.489     2.467
   134   1 H        0.925     0.036     2.507     2.476
   135   1 H        0.925     0.035     2.522     2.484
   136   1 H        0.925     0.036     2.505     2.475
   137   1 H        0.925     0.035     2.520     2.483
   138   1 H        0.925     0.031     2.566     2.505
   139   1 H        0.925     0.035     2.510     2.478
   140   1 H        0.925     0.037     2.487     2.466
   141   1 H        0.926     0.029     2.604     2.524
   142   1 H        0.926     0.025     2.658     2.549
   143   1 H        0.926     0.040     2.446     2.446
   144   1 H        0.926     0.039     2.462     2.454
   145   1 H        0.926     0.034     2.526     2.486
   146   1 H        0.926     0.034     2.532     2.489
   147   1 H        0.926     0.027     2.630     2.536
   148   1 H        0.926     0.027     2.623     2.533
   149   1 H        0.926     0.030     2.586     2.515
   150   1 H        0.926     0.028     2.616     2.529
   151   1 H        0.926     0.038     2.473     2.459
   152   1 H        0.926     0.042     2.424     2.434
   153   1 H        0.926     0.042     2.422     2.434
   154   1 H        0.926     0.042     2.420     2.433
   155   1 H        0.926     0.041     2.432     2.439
   156   1 H        0.926     0.029     2.594     2.519
   157   1 H        0.926     0.030     2.590     2.516
   158   1 H        0.926     0.027     2.629     2.536
   159   1 H        0.926     0.027     2.634     2.538
   160   1 H        0.926     0.039     2.457     2.451
   161   1 H        0.926     0.040     2.448     2.447

molecular dipole:
                 x           y           z       tot (Debye)
 q only:        0.473      -0.619       0.075
   full:        0.478      -0.569       0.067       1.897

 projected vibrational frequencies (cm⁻¹)
eigval :       -0.00    -0.00    -0.00     0.00     0.00     0.00
eigval :        2.86     5.88     7.21     8.68    11.01    14.64
eigval :       17.42    24.49    26.81    31.82    34.24    35.21
eigval :       35.43    36.09    37.68    40.58    45.82    52.11
eigval :       53.23    55.51    59.96    61.92    70.85    73.81
eigval :       75.33    80.89    88.69    90.51    93.70    99.54
eigval :      100.70   115.44   117.90   124.18   134.46   142.50
eigval :      150.14   163.32   164.65   171.37   179.11   180.65
eigval :      183.75   184.94   190.25   198.15   201.00   202.57
eigval :      204.49   222.50   222.98   224.14   228.28   228.58
eigval :      230.34   237.79   239.84   242.05   247.92   250.13
eigval :      259.55   262.19   263.16   268.58   273.67   278.69
eigval :      286.04   294.02   303.01   313.64   315.56   317.32
eigval :      322.48   323.01   326.03   328.01   338.29   343.17
eigval :      352.30   356.76   359.61   360.09   369.64   372.56
eigval :      374.65   378.94   382.07   382.50   383.42   386.30
eigval :      392.75   396.97   399.77   402.79   409.22   411.16
eigval :      411.54   413.23   419.83   420.19   425.56   435.34
eigval :      441.26   442.10   442.87   445.14   454.00   461.14
eigval :      464.55   464.98   465.31   468.08   469.96   475.05
eigval :      483.19   501.04   506.89   508.19   512.69   520.02
eigval :      521.23   530.89   544.40   547.74   573.38   576.46
eigval :      577.46   582.44   583.02   587.70   589.83   593.58
eigval :      594.75   598.46   604.97   612.16   617.17   625.81
eigval :      629.64   630.48   635.80   637.20   638.76   639.87
eigval :      668.11   671.61   673.76   680.56   687.06   687.89
eigval :      689.29   691.22   696.18   705.05   706.05   707.66
eigval :      715.14   719.64   719.99   730.34   731.10   736.01
eigval :      756.53   763.65   774.42   778.67   808.59   812.60
eigval :      817.47   819.96   820.29   821.55   822.35   830.76
eigval :      832.16   834.68   840.09   862.07   867.76   868.79
eigval :      869.40   872.23   872.47   873.32   874.19   875.96
eigval :      877.81   880.71   883.62   887.04   894.29   902.95
eigval :      905.67   907.48   908.28   909.25   910.43   911.76
eigval :      912.34   913.30   915.39   915.55   918.22   918.43
eigval :      921.71   923.26   924.31   926.95   927.06   928.00
eigval :      928.37   931.20   935.85   936.40   938.02   945.83
eigval :      948.61   955.23   958.32   958.47   958.82   959.38
eigval :      961.24   961.75   961.82   962.29   962.76   962.93
eigval :      963.15   963.53   995.33  1007.02  1013.82  1018.14
eigval :     1030.03  1031.78  1034.25  1034.73  1034.75  1035.54
eigval :     1036.04  1036.35  1039.56  1040.73  1077.20  1078.09
eigval :     1079.15  1092.90  1104.69  1106.36  1111.97  1115.54
eigval :     1115.77  1123.21  1128.12  1128.16  1135.34  1137.72
eigval :     1141.21  1141.72  1144.00  1161.83  1171.64  1176.34
eigval :     1176.53  1178.21  1178.29  1182.03  1182.99  1184.41
eigval :     1188.85  1191.13  1201.97  1212.30  1213.60  1222.90
eigval :     1225.39  1225.48  1225.49  1225.89  1227.14  1227.19
eigval :     1229.08  1230.33  1230.67  1235.24  1236.95  1239.90
eigval :     1240.40  1244.17  1247.78  1258.36  1259.29  1263.98
eigval :     1266.36  1268.54  1268.91  1272.95  1275.35  1284.00
eigval :     1284.13  1291.81  1298.48  1302.93  1307.25  1307.99
eigval :     1309.29  1309.66  1313.68  1314.01  1315.05  1324.32
eigval :     1325.34  1331.91  1333.75  1345.61  1345.72  1357.63
eigval :     1359.11  1363.26  1376.10  1379.79  1398.45  1399.15
eigval :     1401.29  1401.44  1402.10  1402.38  1402.67  1403.08
eigval :     1404.05  1404.95  1413.28  1413.44  1418.19  1425.94
eigval :     1426.78  1427.12  1427.56  1430.16  1434.80  1437.66
eigval :     1438.08  1439.01  1440.06  1447.98  1467.03  1469.08
eigval :     1472.71  1474.13  1481.31  1482.38  1484.27  1489.18
eigval :     1489.21  1489.97  1490.76  1491.84  1492.83  1492.88
eigval :     1493.41  1493.90  1498.85  1499.57  1499.88  1500.40
eigval :     1500.50  1501.48  1502.07  1502.60  1503.55  1503.92
eigval :     1511.08  1511.75  1511.89  1512.59  1517.92  1518.25
eigval :     1518.53  1519.52  1556.34  1557.12  1568.38  1569.91
eigval :     1571.05  1571.48  1580.64  1581.82  1582.37  1582.92
eigval :     1585.29  1586.53  1588.34  1592.16  1592.40  1600.42
eigval :     1602.84  1603.31  1603.48  1607.32  1616.42  1617.59
eigval :     3016.45  3017.07  3018.05  3018.27  3018.34  3018.57
eigval :     3018.75  3018.92  3022.25  3022.28  3022.30  3022.48
eigval :     3023.42  3023.55  3023.70  3023.86  3025.98  3026.12
eigval :     3026.15  3026.25  3029.33  3029.64  3029.66  3029.99
eigval :     3034.29  3034.52  3034.59  3035.28  3043.71  3043.73
eigval :     3044.07  3044.42  3047.14  3047.16  3047.38  3047.74
eigval :     3072.15  3073.24  3073.60  3073.78  3074.12  3074.23
eigval :     3074.80  3075.27  3076.01  3076.21  3076.80  3077.19
eigval :     3077.46  3077.99  3078.87  3079.47  3079.56  3083.66
eigval :     3083.93  3085.05  3085.49  3087.35  3087.79  3088.16
eigval :     3088.33  3088.83  3089.34  3089.46  3089.70  3090.32
eigval :     3092.26  3092.37  3096.70  3097.45  3098.87  3112.32
eigval :     3113.90  3114.57  3115.27

   temp. (K)  partition function   enthalpy   heat capacity  entropy
                                   cal/mol     cal/K/mol   cal/K/mol   J/K/mol
 298.15  VIB  0.128E+39            46603.530    286.946    293.063
         ROT  0.722E+09              888.752      2.981     43.517
         INT  0.927E+47            47492.282    289.927    336.580
         TR   0.360E+29             1481.254      4.968     46.883
         TOT                       48973.5362   294.8951   383.4638  1604.4124

       T/K    H(0)-H(T)+PV         H(T)/Eh          T*S/Eh         G(T)/Eh
   ------------------------------------------------------------------------
    298.15    0.780443E-01    0.139409E+01    0.182196E+00    0.121189E+01
   ------------------------------------------------------------------------

         :::::::::::::::::::::::::::::::::::::::::::::::::::::
         ::                  THERMODYNAMIC                  ::
         :::::::::::::::::::::::::::::::::::::::::::::::::::::
         :: total free energy        -223.825798166332 Eh   ::
         ::.................................................::
         :: total energy             -225.037688898817 Eh   ::
         :: zero point energy           1.316042440505 Eh   ::
         :: G(RRHO) w/o ZPVE           -0.104151708020 Eh   ::
         :: G(RRHO) contrib.            1.211890732485 Eh   ::
         :::::::::::::::::::::::::::::::::::::::::::::::::::::

           -------------------------------------------------
          | TOTAL ENERGY             -225.037688898817 Eh   |
          | TOTAL ENTHALPY           -223.643602160713 Eh   |
          | TOTAL FREE ENERGY        -223.825798166332 Eh   |
          | GRADIENT NORM               0.000060110474 Eh/α |
          | HOMO-LUMO GAP               2.266775217404 eV   |
           -------------------------------------------------

 * finished run on 2025/08/26 at 08:27:13.327
