   * xtb version 6.7.1 (edcfbbe) compiled by 'albert@albert-system' on 2024-07-22

   ID    Z sym.   atoms
    1    6 C      1-20, 22-39, 41-71, 73-86
    2    7 N      21, 40, 72
    3    1 H      87-161

          program call               : xtb data2507/toluene/SAF-2CzB/SAF-2CzB.xyz --gfn 2 --gbsa toluene --ohess vtight --parallel 40 --molden --ceasefiles --namespace data2507/toluene/SAF-2CzB/SAF-2CzB_toluene_S0_preOpt
      * Solvation model:               GBSA
        Solvent                        toluene
        Solvent mass                       9.2140E+01 g/mol
          :  Hamiltonian                  GFN2-xTB          :
 * total energy  :  -224.9966077 Eh     change       -0.6142045E-08 Eh
 * total energy  :  -225.0220799 Eh     change       -0.2547227E-01 Eh
 * total energy  :  -225.0306854 Eh     change       -0.8605489E-02 Eh
 * total energy  :  -225.0328825 Eh     change       -0.2197096E-02 Eh
 * total energy  :  -225.0341455 Eh     change       -0.1262970E-02 Eh
 * total energy  :  -225.0348584 Eh     change       -0.7129281E-03 Eh
 * total energy  :  -225.0353609 Eh     change       -0.5024897E-03 Eh
 * total energy  :  -225.0357828 Eh     change       -0.4218638E-03 Eh
 * total energy  :  -225.0360718 Eh     change       -0.2890091E-03 Eh
 * total energy  :  -225.0362306 Eh     change       -0.1588350E-03 Eh
 * total energy  :  -225.0371098 Eh     change       -0.2089597E-06 Eh
 * total energy  :  -225.0371100 Eh     change       -0.2319360E-06 Eh
 * total energy  :  -225.0371103 Eh     change       -0.2895948E-06 Eh
 * total energy  :  -225.0371106 Eh     change       -0.3434411E-06 Eh
 * total energy  :  -225.0371110 Eh     change       -0.3875748E-06 Eh
 * total energy  :  -225.0371114 Eh     change       -0.3971366E-06 Eh
 * total energy  :  -225.0371118 Eh     change       -0.4281625E-06 Eh
 * total energy  :  -225.0371124 Eh     change       -0.6070480E-06 Eh
 * total energy  :  -225.0371124 Eh     change       -0.2790671E-08 Eh
   *** GEOMETRY OPTIMIZATION CONVERGED AFTER 122 ITERATIONS ***

 final structure:
================
161
 xtb: 6.7.1 (edcfbbe)
C          -11.84471099803502        2.27600927753625        5.50296283509050
C          -12.48887078481225        1.74607467720163        4.21808319903055
C          -13.54727278881302        2.76199625219272        3.76253372065099
C          -13.16339606924280        0.40500155200902        4.54449546601940
C          -11.48400569694270        1.53782635825250        3.09201618311575
C          -10.12527932008530        1.83445249666842        3.23344733347978
C           -9.20870354239874        1.64320618715104        2.21521250307839
C           -9.66082926843199        1.12832425325592        1.01172869394256
C          -11.03280304069242        0.84487277600117        0.83335207974829
C          -11.92895918244072        1.04695680670195        1.87113393792467
C          -11.18064834263214        0.38487747369631       -0.52101506528581
C          -12.26805192770411       -0.04549053163201       -1.26470755942681
C          -12.09521968489488       -0.45584362383130       -2.58053325345900
C          -13.30976296654025       -0.90901971871791       -3.38102636037963
C          -12.95910703974755       -1.32713835888541       -4.81240896065397
C          -14.31724428913049        0.24827588870902       -3.45769961622454
C          -13.95569519764931       -2.11327651528371       -2.67940408779248
C          -10.80446359457860       -0.44095987687450       -3.11724902520595
C           -9.70111981309342       -0.01698308213326       -2.39847165610859
C           -9.89174187576592        0.41790716460642       -1.09750507335616
N           -8.97891751495725        0.86698060923561       -0.16210744996195
C           -7.60662991077507        1.05601668084459       -0.37166909338837
C           -6.67964055510448        0.54357379368553        0.53256471101652
C           -5.32938467858401        0.75091302343126        0.33572410843088
C           -4.86649493970107        1.46686341130413       -0.76753654415211
C           -3.42820110711883        1.70698015508785       -0.94916907059659
C           -2.97129882281103        2.95891207189666       -1.36442705756866
C           -1.62103346981335        3.22902462290840       -1.49685108034372
C           -0.70858030993503        2.22535770945258       -1.21284583425443
C           -1.16102921136873        0.95849368672914       -0.81390778204781
C           -2.50313771146342        0.69448088368055       -0.67873835663499
C            0.00682675559879        0.02294446350155       -0.56213593422012
C            1.18400913695336        0.94434083613357       -0.82409216489470
C            2.52382901050265        0.66263277577668       -0.70371736473372
C            3.45911550405883        1.66245604451207       -0.98582862320601
C            4.89547417506440        1.40274072774749       -0.82049645656029
C            5.36043281404111        0.67785638445329        0.27628804138032
C            6.71013649173149        0.45935277994303        0.46297177883420
C            7.63355375479620        0.95026862607143       -0.45693686795357
N            9.00462667973176        0.73729765365878       -0.26485290761473
C            9.98861227665551        1.70699282697674       -0.30526184368129
C            9.89230580299267        3.07322615654312       -0.50977070762595
C           11.05201470209435        3.82607683905041       -0.47090782179004
C           12.30864426149134        3.26464514471953       -0.22515179891215
C           13.58371484723256        4.09781607509008       -0.18621241475849
C           14.56948941316313        3.55874982032375       -1.23393809306134
C           14.20722652237998        3.99360368034985        1.21388120674021
C           13.33835403476019        5.57963092409014       -0.48760575611654
C           12.38788586045608        1.89712564003801        0.00462723702501
C           11.24232452766198        1.11742089612536       -0.03057798563599
C           10.99634226354367       -0.28341366303990        0.17901300809359
C           11.82768374273240       -1.35960730028636        0.46216904837254
C           11.29127393314888       -2.63079592232329        0.58859813659709
C           12.14107814083047       -3.85403856106832        0.90701036396621
C           13.62148201042786       -3.50903122006643        1.09767550555461
C           12.03183618982751       -4.86137119868701       -0.24748395329426
C           11.63299410578782       -4.49698204186524        2.20649619196255
C            9.91087392281313       -2.79339210376564        0.40709993684974
C            9.06099823279497       -1.74259362926148        0.12675248226045
C            9.60607109548127       -0.47130705739411        0.02966404791221
C            7.17770112052373        1.66030326888907       -1.56500954070881
C            5.82729161018304        1.88903765794539       -1.73631469541074
C            3.01409037606919        2.91969596749028       -1.39800827934176
C            1.66610960445075        3.20752554340028       -1.51544814045243
C            0.74373188805541        2.21627798509115       -1.22001294847058
C            0.00073873274452       -1.11548534936527       -1.55609420815417
C           -0.01391669544180       -0.81813004812676       -2.91058544799207
C           -0.00676589066542       -1.81611423851526       -3.86778520482888
C            0.01997121292640       -3.13973739342911       -3.46239671538952
C            0.03410474203217       -3.45528164979890       -2.11898030993482
C            0.01975215357775       -2.45174825875729       -1.14566745434891
N            0.03177745709031       -2.78406801410685        0.19944003173878
C            0.04514247259243       -4.16028080018459        0.57271697650479
C            1.25090317461670       -4.79207423458955        0.84993322942475
C            1.26054746420959       -6.12791769000494        1.21231210296509
C            0.07178042046079       -6.83429781716192        1.29623621593034
C           -1.13029080273615       -6.20416854221989        1.01841004851998
C           -1.14734770300120       -4.86795999030624        0.65789599490362
C            0.01924956839362       -1.81747591806985        1.19161865461952
C            0.00950729209395       -2.19067211177757        2.53907237907673
C           -0.00037095236422       -1.23809378682125        3.53776249489339
C           -0.00266540695000        0.10909586435366        3.21727668653187
C            0.00058693123114        0.48545438132537        1.88651884487711
C            0.00971358663085       -0.45714016078875        0.86911410845808
C           -5.80133238483617        1.96429664562800       -1.67416831246631
C           -7.15358990992476        1.76526054957148       -1.48139531833645
H          -11.38410220464353        3.24779290449768        5.33958615372784
H          -12.60931919168523        2.39256850680522        6.26886032591310
H          -11.09502046888229        1.58375081937553        5.87987946850160
H          -14.08772544840520        2.40620214735709        2.88957780163972
H          -14.26633837006606        2.93888110451810        4.55998735854978
H          -13.07417034609051        3.70846760541523        3.50713880680116
H          -13.87777543017441        0.53162050604319        5.35563688124428
H          -12.41771795496370       -0.32592327624947        4.85189139174632
H          -13.69384187104932        0.00753402710292        3.68355385705218
H           -9.75594953293658        2.23326105636254        4.16388693682798
H           -8.17059109389985        1.90249118737833        2.36121953303688
H          -12.97221057097842        0.82194565351509        1.71004393191073
H          -13.24348773839064       -0.05757013195152       -0.80286006661787
H          -12.27023046884748       -2.16898139278599       -4.81751214683746
H          -12.51800355993958       -0.50079492670533       -5.36544370276802
H          -13.86554613949027       -1.63246823299171       -5.33196348799261
H          -14.65598807605166        0.54528373613254       -2.46884408022952
H          -15.18696102334198       -0.04837886914802       -4.04073705862533
H          -13.86047945136951        1.11366103513774       -3.93451110025568
H          -14.81647541514064       -2.46116716396175       -3.24715370776290
H          -14.29018065178293       -1.85652880067003       -1.67795384070761
H          -13.24071267787127       -2.93010328805000       -2.60027013620896
H          -10.63936986152851       -0.77146512773543       -4.12951924154718
H           -8.71826417609349       -0.03693745573938       -2.84572748168120
H           -7.02460692393245       -0.02225199861056        1.38533971731041
H           -4.62188591020501        0.36588592450831        1.05574106358133
H           -3.68975441696302        3.74235344880680       -1.55728087058577
H           -1.28740867277830        4.20898250653903       -1.80526682190187
H           -2.84251343366624       -0.28637876298481       -0.37825024398224
H            2.85336188873381       -0.32258932889440       -0.40668528381342
H            4.65607307641848        0.31102127480225        1.00881299884895
H            7.05966082185681       -0.07555996483219        1.33370574154666
H            8.93877390746187        3.54911280120746       -0.68451041771362
H           10.96001856342353        4.88717065762288       -0.63482497002339
H           15.48108707812693        4.15314721012364       -1.23242901352026
H           14.12660892035203        3.60789587315189       -2.22702157182648
H           14.83783097556672        2.52539797193167       -1.03234764515356
H           15.11766856827159        4.58760527188518        1.26478392632174
H           14.45687335839936        2.96512477506353        1.46022911885228
H           13.51094341390377        4.36359584117624        1.96431366142962
H           14.28540815979143        6.11547517670173       -0.45973657009186
H           12.67900551295404        6.02728803182179        0.25274509654360
H           12.90696466322407        5.71185714682894       -1.47741780351704
H           13.33412826928259        1.42375107032286        0.21766517326845
H           12.88396981272504       -1.17925776858056        0.57334776025575
H           14.04431453917246       -3.08228781493121        0.19083870992834
H           14.17741568936318       -4.41479942543147        1.33263325418137
H           13.75704363690980       -2.80894814160303        1.91915307855739
H           11.00549620686029       -5.18634097057651       -0.39492379359703
H           12.64031876407942       -5.73891264299836       -0.03769935081829
H           12.38284838023895       -4.41143492339091       -1.17433998221104
H           10.60542985410074       -4.83575613305131        2.10709096298259
H           11.67788198539255       -3.77909040454782        3.02345285154863
H           12.25011520295315       -5.35483432117017        2.46636604771835
H            9.48012084999896       -3.78041823319158        0.48382458521597
H            8.00506517526503       -1.91411315995243       -0.02163353624419
H            7.88761933828324        2.02087630109384       -2.29458411160872
H            5.48669436068075        2.42940439198812       -2.60738488942577
H            3.74066194070759        3.69311093458571       -1.60059401275883
H            1.34203699516885        4.19116781346711       -1.82230905159504
H           -0.02955207073122        0.21851661642146       -3.21546729766365
H           -0.01876045642080       -1.56264988247777       -4.91705002431776
H            0.03090100161642       -3.93414766677964       -4.19439333296915
H            0.05815061478941       -4.49065999859679       -1.81515460347175
H            2.17221783463764       -4.23228796403528        0.78096108482123
H            2.19857286272991       -6.61753752612905        1.42811366258120
H            0.08205114736240       -7.87656147698413        1.57822948939632
H           -2.05796780102736       -6.75322528206741        1.08309132845672
H           -2.07911615020067       -4.36728546708913        0.43847656117475
H            0.00838881119906       -3.23784662173237        2.80071681497794
H           -0.00690874093046       -1.55229333707606        4.57138919310494
H           -0.00904030834169        0.85880261952809        3.99400100692326
H           -0.00472068262219        1.53387488574908        1.62335217831748
H           -5.46344521979361        2.50641759930774       -2.54520174042255
H           -7.86897528623329        2.17287388690113       -2.18033585308850

          :  Hamiltonian                  GFN2-xTB          :
         :: gradient norm              0.000048548247 Eh/a0 ::
         :: HOMO-LUMO gap              2.257891167913 eV    ::
         :: SCC energy              -229.127898665118 Eh    ::
         :: -> dispersion             -0.219631938079 Eh    ::
         :: -> Gsolv                  -0.087492883922 Eh    ::
         :: repulsion energy           4.090786221008 Eh    ::

    * Orbital Energies and Occupations

         #    Occupation            Energy/Eh            Energy/eV
      -------------------------------------------------------------
         1        2.0000           -0.6699903             -18.2314
       ...           ...                  ...                  ...
       199        2.0000           -0.4040215             -10.9940
       200        2.0000           -0.3962058             -10.7813
       201        2.0000           -0.3960178             -10.7762
       202        2.0000           -0.3954463             -10.7606
       203        2.0000           -0.3927952             -10.6885
       204        2.0000           -0.3921368             -10.6706
       205        2.0000           -0.3915619             -10.6549
       206        2.0000           -0.3728783             -10.1465
       207        2.0000           -0.3715400             -10.1101
       208        2.0000           -0.3708569             -10.0915
       209        2.0000           -0.3531260              -9.6090
       210        2.0000           -0.3518964              -9.5756
       211        2.0000           -0.3473657              -9.4523 (HOMO)
       212                         -0.2643897              -7.1944 (LUMO)
       213                         -0.2422507              -6.5920
       214                         -0.2381805              -6.4812
       215                         -0.2356129              -6.4114
       216                         -0.2353095              -6.4031
       217                         -0.2343671              -6.3775
       218                         -0.2300927              -6.2611
       219                         -0.2277683              -6.1979
       220                         -0.2277059              -6.1962
       221                         -0.2246834              -6.1139
       222                         -0.2222328              -6.0473
       ...                                ...                  ...
       419                          0.7493471              20.3908
      -------------------------------------------------------------
                  HL-Gap            0.0829760 Eh            2.2579 eV

     #   Z          covCN         q      C6AA      α(0)
     1   6 C        3.761    -0.106    22.573     6.773
     2   6 C        3.902     0.025    20.105     6.374
     3   6 C        3.761    -0.104    22.531     6.767
     4   6 C        3.761    -0.104    22.534     6.767
     5   6 C        2.971    -0.004    28.118     8.698
     6   6 C        2.928    -0.046    29.131     8.851
     7   6 C        2.909    -0.056    29.389     8.889
     8   6 C        3.077     0.044    26.922     8.507
     9   6 C        3.064    -0.021    28.474     8.750
    10   6 C        2.920    -0.041    29.027     8.835
    11   6 C        3.064    -0.021    28.475     8.750
    12   6 C        2.920    -0.041    29.027     8.835
    13   6 C        2.971    -0.004    28.119     8.698
    14   6 C        3.902     0.025    20.105     6.374
    15   6 C        3.761    -0.106    22.574     6.773
    16   6 C        3.761    -0.104    22.531     6.767
    17   6 C        3.761    -0.104    22.532     6.767
    18   6 C        2.928    -0.046    29.131     8.851
    19   6 C        2.909    -0.056    29.387     8.889
    20   6 C        3.076     0.044    26.923     8.507
    21   7 N        2.800    -0.052    22.242     7.004
    22   6 C        2.912     0.063    26.586     8.455
    23   6 C        2.920    -0.044    29.098     8.846
    24   6 C        2.925    -0.034    28.835     8.806
    25   6 C        2.976     0.007    27.866     8.659
    26   6 C        2.978     0.007    27.859     8.658
    27   6 C        2.926    -0.038    28.956     8.825
    28   6 C        2.913    -0.036    28.899     8.815
    29   6 C        3.034    -0.001    28.025     8.683
    30   6 C        3.055     0.001    27.941     8.669
    31   6 C        2.919    -0.038    28.951     8.823
    32   6 C        3.949     0.013    20.283     6.400
    33   6 C        3.056     0.001    27.941     8.669
    34   6 C        2.919    -0.038    28.954     8.824
    35   6 C        2.979     0.007    27.860     8.658
    36   6 C        2.976     0.007    27.867     8.659
    37   6 C        2.925    -0.034    28.835     8.806
    38   6 C        2.920    -0.044    29.095     8.845
    39   6 C        2.912     0.063    26.585     8.455
    40   7 N        2.800    -0.051    22.233     7.003
    41   6 C        3.077     0.044    26.929     8.508
    42   6 C        2.909    -0.056    29.388     8.889
    43   6 C        2.928    -0.046    29.134     8.852
    44   6 C        2.971    -0.004    28.118     8.698
    45   6 C        3.902     0.025    20.105     6.374
    46   6 C        3.761    -0.104    22.536     6.767
    47   6 C        3.761    -0.104    22.533     6.767
    48   6 C        3.761    -0.106    22.572     6.773
    49   6 C        2.920    -0.042    29.033     8.836
    50   6 C        3.065    -0.021    28.475     8.750
    51   6 C        3.065    -0.022    28.487     8.752
    52   6 C        2.918    -0.046    29.133     8.851
    53   6 C        2.972    -0.004    28.118     8.698
    54   6 C        3.902     0.025    20.105     6.374
    55   6 C        3.761    -0.106    22.567     6.772
    56   6 C        3.761    -0.104    22.537     6.767
    57   6 C        3.761    -0.104    22.538     6.768
    58   6 C        2.931    -0.041    29.022     8.835
    59   6 C        2.908    -0.055    29.369     8.886
    60   6 C        3.079     0.044    26.924     8.507
    61   6 C        2.920    -0.044    29.098     8.846
    62   6 C        2.924    -0.034    28.848     8.808
    63   6 C        2.926    -0.038    28.957     8.825
    64   6 C        2.913    -0.036    28.898     8.815
    65   6 C        3.034    -0.001    28.026     8.683
    66   6 C        2.982    -0.009    28.246     8.718
    67   6 C        2.926    -0.037    28.912     8.818
    68   6 C        2.917    -0.045    29.117     8.849
    69   6 C        2.919    -0.034    28.844     8.807
    70   6 C        2.924    -0.059    29.464     8.902
    71   6 C        2.925     0.060    26.646     8.465
    72   7 N        2.753    -0.074    22.675     7.072
    73   6 C        2.927     0.068    26.478     8.439
    74   6 C        2.921    -0.037    28.929     8.820
    75   6 C        2.920    -0.027    28.687     8.783
    76   6 C        2.920    -0.030    28.742     8.792
    77   6 C        2.920    -0.027    28.686     8.783
    78   6 C        2.921    -0.037    28.929     8.820
    79   6 C        2.925     0.060    26.646     8.465
    80   6 C        2.924    -0.059    29.466     8.902
    81   6 C        2.919    -0.034    28.844     8.807
    82   6 C        2.917    -0.045    29.122     8.849
    83   6 C        2.926    -0.036    28.906     8.817
    84   6 C        2.982    -0.010    28.258     8.720
    85   6 C        2.924    -0.034    28.848     8.808
    86   6 C        2.920    -0.044    29.100     8.846
    87   1 H        0.925     0.035     2.521     2.483
    88   1 H        0.925     0.036     2.499     2.472
    89   1 H        0.925     0.035     2.519     2.482
    90   1 H        0.925     0.035     2.513     2.479
    91   1 H        0.925     0.037     2.488     2.467
    92   1 H        0.925     0.031     2.567     2.506
    93   1 H        0.925     0.037     2.490     2.468
    94   1 H        0.925     0.032     2.564     2.504
    95   1 H        0.925     0.035     2.512     2.478
    96   1 H        0.926     0.036     2.508     2.477
    97   1 H        0.926     0.025     2.662     2.552
    98   1 H        0.926     0.028     2.616     2.529
    99   1 H        0.926     0.028     2.616     2.529
   100   1 H        0.925     0.035     2.520     2.483
   101   1 H        0.925     0.035     2.519     2.482
   102   1 H        0.925     0.036     2.499     2.472
   103   1 H        0.925     0.035     2.513     2.479
   104   1 H        0.925     0.037     2.490     2.468
   105   1 H        0.925     0.031     2.566     2.505
   106   1 H        0.925     0.037     2.489     2.467
   107   1 H        0.925     0.035     2.514     2.479
   108   1 H        0.925     0.031     2.565     2.505
   109   1 H        0.926     0.036     2.507     2.476
   110   1 H        0.926     0.025     2.663     2.552
   111   1 H        0.926     0.040     2.451     2.448
   112   1 H        0.926     0.038     2.480     2.463
   113   1 H        0.926     0.034     2.527     2.486
   114   1 H        0.926     0.033     2.542     2.493
   115   1 H        0.926     0.027     2.630     2.536
   116   1 H        0.926     0.027     2.633     2.537
   117   1 H        0.926     0.038     2.480     2.463
   118   1 H        0.926     0.040     2.454     2.450
   119   1 H        0.926     0.025     2.664     2.552
   120   1 H        0.926     0.035     2.510     2.477
   121   1 H        0.925     0.037     2.492     2.468
   122   1 H        0.925     0.031     2.566     2.505
   123   1 H        0.925     0.036     2.507     2.476
   124   1 H        0.925     0.037     2.488     2.467
   125   1 H        0.925     0.035     2.510     2.478
   126   1 H        0.925     0.031     2.568     2.506
   127   1 H        0.925     0.036     2.500     2.473
   128   1 H        0.925     0.035     2.522     2.484
   129   1 H        0.925     0.035     2.520     2.482
   130   1 H        0.926     0.029     2.604     2.523
   131   1 H        0.926     0.035     2.513     2.479
   132   1 H        0.925     0.035     2.521     2.483
   133   1 H        0.925     0.036     2.503     2.474
   134   1 H        0.925     0.035     2.519     2.482
   135   1 H        0.925     0.035     2.514     2.480
   136   1 H        0.925     0.037     2.485     2.465
   137   1 H        0.925     0.032     2.564     2.504
   138   1 H        0.925     0.035     2.510     2.477
   139   1 H        0.925     0.032     2.563     2.504
   140   1 H        0.925     0.037     2.488     2.467
   141   1 H        0.926     0.028     2.608     2.526
   142   1 H        0.926     0.024     2.668     2.554
   143   1 H        0.926     0.040     2.445     2.445
   144   1 H        0.926     0.039     2.456     2.451
   145   1 H        0.926     0.034     2.528     2.486
   146   1 H        0.926     0.033     2.542     2.493
   147   1 H        0.926     0.026     2.650     2.546
   148   1 H        0.926     0.027     2.630     2.536
   149   1 H        0.926     0.030     2.588     2.516
   150   1 H        0.926     0.028     2.608     2.525
   151   1 H        0.926     0.041     2.438     2.442
   152   1 H        0.926     0.043     2.411     2.428
   153   1 H        0.926     0.043     2.415     2.430
   154   1 H        0.926     0.043     2.412     2.428
   155   1 H        0.926     0.041     2.438     2.442
   156   1 H        0.926     0.028     2.611     2.527
   157   1 H        0.926     0.030     2.589     2.516
   158   1 H        0.926     0.027     2.633     2.538
   159   1 H        0.926     0.025     2.664     2.552
   160   1 H        0.926     0.039     2.457     2.451
   161   1 H        0.926     0.040     2.448     2.447

molecular dipole:
                 x           y           z       tot (Debye)
 q only:        0.026      -0.800       0.172
   full:        0.008      -0.756       0.153       1.961

 projected vibrational frequencies (cm⁻¹)
eigval :       -0.00    -0.00    -0.00     0.00     0.00     0.00
eigval :       -7.30     3.61     6.75     7.37     8.40     9.45
eigval :       16.21    20.56    23.03    30.16    31.71    31.98
eigval :       33.05    33.97    34.34    40.78    46.05    50.70
eigval :       52.81    54.36    58.76    62.34    69.21    70.07
eigval :       74.23    76.62    86.01    87.82    94.30    97.67
eigval :      100.60   115.98   118.87   123.64   135.94   137.92
eigval :      149.05   153.75   155.72   168.84   172.63   176.15
eigval :      177.93   181.01   186.07   194.62   195.11   196.90
eigval :      198.74   212.77   213.23   224.09   226.98   229.44
eigval :      232.55   236.62   239.81   244.03   251.40   253.11
eigval :      257.61   261.65   264.74   270.04   270.92   281.46
eigval :      285.08   300.06   304.43   306.59   312.70   316.21
eigval :      320.12   323.53   326.86   328.22   335.65   342.36
eigval :      350.69   354.50   356.44   357.63   372.28   372.55
eigval :      378.13   380.55   383.89   384.76   385.83   386.89
eigval :      391.35   395.97   398.78   402.31   408.69   410.71
eigval :      411.11   412.45   418.50   420.81   429.60   433.54
eigval :      441.63   444.03   444.15   445.52   445.89   460.26
eigval :      462.41   465.15   466.49   469.02   470.84   474.05
eigval :      483.79   501.48   505.75   508.88   513.56   518.96
eigval :      520.86   530.31   544.07   548.10   572.93   575.66
eigval :      577.62   581.32   581.59   587.58   590.95   593.08
eigval :      597.99   600.22   604.86   605.87   618.05   624.96
eigval :      628.70   629.18   637.41   637.87   638.00   638.73
eigval :      668.05   671.58   675.64   678.69   686.44   687.76
eigval :      688.39   692.99   693.95   703.94   705.38   707.53
eigval :      714.50   719.36   719.61   731.27   731.59   735.47
eigval :      756.33   762.63   779.87   781.73   809.32   811.80
eigval :      815.80   817.80   819.50   820.24   821.61   831.51
eigval :      832.91   836.56   843.32   867.94   868.29   869.93
eigval :      872.63   872.73   873.88   875.12   875.70   880.45
eigval :      880.87   883.43   885.38   886.84   894.88   901.18
eigval :      904.96   905.58   906.47   907.38   910.27   910.72
eigval :      910.97   914.38   915.55   916.13   917.91   921.41
eigval :      922.71   923.43   923.58   926.21   927.65   928.81
eigval :      928.93   929.36   930.90   934.76   936.66   948.30
eigval :      949.55   953.81   957.51   958.59   958.97   959.35
eigval :      960.14   960.67   960.90   961.73   961.96   962.11
eigval :      962.65   963.56   995.73  1005.94  1013.98  1017.42
eigval :     1031.73  1033.11  1033.34  1034.09  1034.99  1035.49
eigval :     1035.65  1036.02  1036.51  1039.38  1076.38  1076.72
eigval :     1078.50  1093.84  1106.35  1107.85  1115.06  1115.68
eigval :     1116.47  1124.67  1128.50  1128.96  1136.10  1137.03
eigval :     1141.76  1142.42  1146.39  1161.10  1173.76  1174.48
eigval :     1176.14  1179.21  1179.72  1182.35  1182.43  1185.68
eigval :     1189.84  1190.82  1199.90  1212.71  1214.09  1220.20
eigval :     1224.82  1225.29  1225.39  1225.50  1225.75  1227.01
eigval :     1230.43  1230.44  1233.21  1234.44  1235.27  1236.42
eigval :     1237.72  1247.62  1250.93  1258.10  1258.43  1266.43
eigval :     1267.44  1268.05  1273.19  1273.77  1274.33  1283.46
eigval :     1284.15  1290.94  1296.84  1301.06  1304.79  1306.00
eigval :     1307.29  1308.99  1313.69  1314.02  1316.29  1323.55
eigval :     1325.55  1333.83  1337.86  1345.24  1345.32  1358.50
eigval :     1362.01  1364.13  1375.98  1379.30  1398.24  1399.23
eigval :     1401.36  1401.76  1402.07  1402.35  1402.95  1403.44
eigval :     1403.54  1404.70  1413.08  1413.57  1417.68  1426.18
eigval :     1426.83  1427.03  1427.24  1430.52  1434.43  1436.42
eigval :     1436.58  1436.82  1439.29  1447.26  1466.73  1469.55
eigval :     1473.32  1473.84  1473.98  1479.88  1481.68  1488.30
eigval :     1488.52  1489.90  1490.16  1491.80  1492.10  1492.43
eigval :     1492.99  1494.66  1498.78  1498.97  1499.66  1500.25
eigval :     1500.60  1501.39  1501.60  1503.29  1503.52  1504.18
eigval :     1509.32  1512.48  1512.61  1512.84  1516.56  1518.13
eigval :     1518.69  1519.78  1556.44  1557.25  1568.83  1570.57
eigval :     1571.43  1572.00  1582.18  1582.54  1583.90  1584.10
eigval :     1585.71  1587.76  1588.78  1592.14  1592.47  1600.61
eigval :     1602.87  1603.42  1603.74  1606.35  1617.58  1618.95
eigval :     3015.59  3016.83  3017.08  3017.26  3018.01  3018.45
eigval :     3018.55  3018.68  3022.33  3022.51  3022.57  3022.62
eigval :     3023.45  3023.55  3023.78  3023.80  3026.09  3026.38
eigval :     3026.40  3026.45  3029.60  3029.71  3029.87  3029.88
eigval :     3033.93  3034.44  3034.70  3034.80  3042.24  3042.65
eigval :     3043.28  3044.22  3045.55  3046.00  3046.77  3047.51
eigval :     3071.59  3071.97  3072.90  3073.16  3074.01  3074.48
eigval :     3074.79  3075.25  3075.64  3076.06  3076.94  3077.59
eigval :     3077.75  3077.92  3078.52  3079.02  3079.58  3079.66
eigval :     3083.30  3083.68  3084.23  3085.81  3085.84  3086.23
eigval :     3087.37  3088.59  3088.72  3089.35  3089.49  3089.95
eigval :     3091.55  3092.38  3097.23  3097.43  3098.49  3113.84
eigval :     3114.77  3115.00  3115.99

   temp. (K)  partition function   enthalpy   heat capacity  entropy
                                   cal/mol     cal/K/mol   cal/K/mol   J/K/mol
 298.15  VIB  0.769E+39            46763.954    286.582    295.137
         ROT  0.758E+09              888.752      2.981     43.612
         INT  0.583E+48            47652.706    289.563    338.749
         TR   0.360E+29             1481.254      4.968     46.883
         TOT                       49133.9604   294.5315   385.6327  1613.4872

       T/K    H(0)-H(T)+PV         H(T)/Eh          T*S/Eh         G(T)/Eh
   ------------------------------------------------------------------------
    298.15    0.782999E-01    0.139396E+01    0.183227E+00    0.121073E+01
   ------------------------------------------------------------------------

         :::::::::::::::::::::::::::::::::::::::::::::::::::::
         ::                  THERMODYNAMIC                  ::
         :::::::::::::::::::::::::::::::::::::::::::::::::::::
         :: total free energy        -223.826380031427 Eh   ::
         ::.................................................::
         :: total energy             -225.037112446148 Eh   ::
         :: zero point energy           1.315658997353 Eh   ::
         :: G(RRHO) w/o ZPVE           -0.104926582632 Eh   ::
         :: G(RRHO) contrib.            1.210732414721 Eh   ::
         :::::::::::::::::::::::::::::::::::::::::::::::::::::

           -------------------------------------------------
          | TOTAL ENERGY             -225.037112446148 Eh   |
          | TOTAL ENTHALPY           -223.643153498942 Eh   |
          | TOTAL FREE ENERGY        -223.826380031427 Eh   |
          | GRADIENT NORM               0.000048547142 Eh/α |
          | HOMO-LUMO GAP               2.257891026190 eV   |
           -------------------------------------------------

 * finished run on 2025/08/26 at 07:51:41.593
