   * xtb version 6.7.1 (edcfbbe) compiled by 'albert@albert-system' on 2024-07-22

   ID    Z sym.   atoms
    1    6 C      1-9, 11-15, 17-30
    2    7 N      10
    3    8 O      16
    4    1 H      31-53

          program call               : xtb data2507/toluene/PhCO-DMAC/PhCO-DMAC_toluene_S0_finalOpt.xtbopt.xyz --gfn 2 --uhf 2 --gbsa toluene --ohess vtight --parallel 40 --molden --ceasefiles --namespace data2507/toluene/PhCO-DMAC/PhCO-DMAC_toluene_T1_preOpt
      * Solvation model:               GBSA
        Solvent                        toluene
        Solvent mass                       9.2140E+01 g/mol
          :  Hamiltonian                  GFN2-xTB          :
 * total energy  :   -78.6258930 Eh     change       -0.2972342E-09 Eh
 * total energy  :   -78.6299521 Eh     change       -0.4059086E-02 Eh
 * total energy  :   -78.6310399 Eh     change       -0.1087805E-02 Eh
 * total energy  :   -78.6312851 Eh     change       -0.2452209E-03 Eh
 * total energy  :   -78.6315290 Eh     change       -0.2438133E-03 Eh
 * total energy  :   -78.6317486 Eh     change       -0.2195913E-03 Eh
 * total energy  :   -78.6319837 Eh     change       -0.2351311E-03 Eh
 * total energy  :   -78.6321348 Eh     change       -0.1511497E-03 Eh
 * total energy  :   -78.6322071 Eh     change       -0.7223624E-04 Eh
 * total energy  :   -78.6322583 Eh     change       -0.5124292E-04 Eh
 * total energy  :   -78.6326584 Eh     change       -0.2301873E-05 Eh
 * total energy  :   -78.6326599 Eh     change       -0.1537608E-05 Eh
 * total energy  :   -78.6326608 Eh     change       -0.8973261E-06 Eh
 * total energy  :   -78.6326614 Eh     change       -0.5595251E-06 Eh
 * total energy  :   -78.6326618 Eh     change       -0.4050121E-06 Eh
 * total energy  :   -78.6326622 Eh     change       -0.3960484E-06 Eh
 * total energy  :   -78.6326627 Eh     change       -0.4927115E-06 Eh
 * total energy  :   -78.6326633 Eh     change       -0.5749660E-06 Eh
 * total energy  :   -78.6326633 Eh     change       -0.3975302E-08 Eh
   *** GEOMETRY OPTIMIZATION CONVERGED AFTER 68 ITERATIONS ***

 final structure:
================
53
 xtb: 6.7.1 (edcfbbe)
C           -5.18093149459072       -0.73088551392222        1.53187441653884
C           -4.45277077028995       -0.42215569492922        0.20755511355928
C           -5.46641751386837       -0.37595160901696       -0.95436050928661
C           -3.78730898758634        0.92936881835193        0.33035997108756
C           -4.55470178712780        2.05453315888568        0.59988269418873
C           -3.98777681057658        3.30673945231406        0.75306179834882
C           -2.61026580078096        3.45425514554052        0.65351617500528
C           -1.82343288248924        2.36006872452133        0.38059132569109
C           -2.39591991296365        1.08992994724739        0.19453088684722
N           -1.58404399764029        0.01890025253264       -0.10287880531330
C           -0.19163295106388        0.23957278979775       -0.28583785236665
C            0.28260401824524        0.85068241667011       -1.45462012532429
C            1.62440950795975        1.04603514712370       -1.63151569237236
C            2.56780264108567        0.61988375478560       -0.66024142406673
C            3.95993781949516        0.86933173974402       -0.90863966162203
O            4.31992986736437        1.69197961784985       -1.81368812837918
C            4.98997608502058        0.18836227296959       -0.11734014980612
C            6.20960989280714        0.83968125382135        0.11406953738409
C            7.21705225341679        0.21734292944389        0.81985726212437
C            7.04523009891387       -1.07554047626103        1.29451575645743
C            5.85734869819536       -1.74535787496121        1.03614534375468
C            4.84108288618006       -1.12904568799513        0.33503166892228
C            2.06232671785111        0.06456463222441        0.53810135578854
C            0.71657865685107       -0.13207813767426        0.71314427975453
C           -2.08191140655776       -1.25776748559038       -0.23791241437044
C           -1.20832572766066       -2.30971100739163       -0.56289420967988
C           -1.67127989584569       -3.59901163698185       -0.68211168695063
C           -3.02007303494187       -3.86890517224398       -0.48987882852862
C           -3.89005238590917       -2.83400191672934       -0.19921656346360
C           -3.45408455976948       -1.52166454992767       -0.07279306922762
H           -5.92438584922997        0.02997568397408        1.74777362909654
H           -4.46609133960682       -0.75767311484268        2.35192541484431
H           -5.68269557336251       -1.69202906397072        1.47978199194086
H           -4.95305169577527       -0.15536280281019       -1.88830559537769
H           -6.21314657449407        0.39290586812861       -0.78156325950017
H           -5.97448865006091       -1.32973649688491       -1.05799178593020
H           -5.62436561986163        1.95760980434219        0.69674567635066
H           -4.61312274778262        4.16120851235497        0.96088464346943
H           -2.15212775641099        4.42157200156434        0.79130079337430
H           -0.75309499443518        2.47089792804398        0.31249284590288
H           -0.42179520955587        1.15291010182112       -2.21631206986166
H            2.00955128858900        1.51224806629016       -2.52683531545495
H            6.33597768739835        1.84387272798545       -0.26562437347404
H            8.14484303715893        0.74203484665365        1.00068698647248
H            7.83602835874008       -1.56301673326545        1.84538370126381
H            5.72874532105066       -2.76427757040835        1.37402568388774
H            3.94201776056590       -1.67923886135336        0.09896189451031
H            2.74102123847706       -0.17570747534736        1.34186786966277
H            0.34205832856943       -0.55502099687129        1.63463785748243
H           -0.16378484085059       -2.09615795221997       -0.72284294071478
H           -0.98455764720975       -4.39408013128798       -0.92894248944404
H           -3.39126993266218       -4.87828131340683       -0.57790400452771
H           -4.93686714726730       -3.06049377257849       -0.07294832804189

          :  Hamiltonian                  GFN2-xTB          :
         :: gradient norm              0.000054100048 Eh/a0 ::
         :: HOMO-LUMO gap              0.798028132875 eV    ::
         :: SCC energy               -80.020311852089 Eh    ::
         :: -> dispersion             -0.067715212636 Eh    ::
         :: -> Gsolv                  -0.047166938685 Eh    ::
         :: repulsion energy           1.387648584993 Eh    ::

    * Orbital Energies and Occupations

         #    Occupation            Energy/Eh            Energy/eV
      -------------------------------------------------------------
         1        2.0000           -0.6924632             -18.8429
       ...           ...                  ...                  ...
        62        2.0000           -0.4257118             -11.5842
        63        2.0000           -0.4239351             -11.5359
        64        2.0000           -0.4212887             -11.4638
        65        2.0000           -0.4195563             -11.4167
        66        2.0000           -0.4159762             -11.3193
        67        2.0000           -0.4133284             -11.2472
        68        2.0000           -0.4077401             -11.0952
        69        2.0000           -0.3990117             -10.8577
        70        2.0000           -0.3980540             -10.8316
        71        2.0000           -0.3948543             -10.7445
        72        1.8016           -0.3713909             -10.1061
        73        1.1984           -0.3687383             -10.0339
        74        1.0000           -0.2786918              -7.5836 (HOMO)
        75        0.0000           -0.2493651              -6.7856 (LUMO)
        76                         -0.2396916              -6.5223
        77                         -0.2390972              -6.5062
        78                         -0.2266273              -6.1668
        79                         -0.2217171              -6.0332
        80                         -0.2155471              -5.8653
        81                         -0.2128919              -5.7931
        82                         -0.1709616              -4.6521
        83                         -0.1145296              -3.1165
        84                         -0.1027815              -2.7968
        85                         -0.0948457              -2.5809
       ...                                ...                  ...
       143                          0.6748846              18.3645
      -------------------------------------------------------------
                  HL-Gap            0.0293268 Eh            0.7980 eV

     #   Z          covCN         q      C6AA      α(0)
     1   6 C        3.761    -0.109    22.637     6.782
     2   6 C        3.909     0.026    20.085     6.370
     3   6 C        3.761    -0.109    22.626     6.781
     4   6 C        2.978     0.004    27.940     8.671
     5   6 C        2.924    -0.031    28.771     8.796
     6   6 C        2.917    -0.026    28.644     8.776
     7   6 C        2.917    -0.025    28.624     8.773
     8   6 C        2.922    -0.042    29.049     8.838
     9   6 C        2.931     0.062    26.612     8.460
    10   7 N        2.754     0.004    21.186     6.836
    11   6 C        2.929     0.027    27.391     8.583
    12   6 C        2.913    -0.041    29.024     8.834
    13   6 C        2.923    -0.034    28.841     8.807
    14   6 C        2.966    -0.021    28.520     8.760
    15   6 C        2.834     0.162    24.499     8.111
    16   8 O        0.857    -0.503    23.852     6.548
    17   6 C        2.970    -0.010    28.260     8.720
    18   6 C        2.924    -0.030    28.757     8.794
    19   6 C        2.917    -0.033    28.822     8.804
    20   6 C        2.918    -0.041    29.014     8.833
    21   6 C        2.917    -0.033    28.823     8.804
    22   6 C        2.920    -0.041    29.019     8.834
    23   6 C        2.917    -0.046    29.138     8.852
    24   6 C        2.914    -0.041    29.017     8.833
    25   6 C        2.930     0.062    26.615     8.461
    26   6 C        2.922    -0.043    29.059     8.840
    27   6 C        2.917    -0.025    28.625     8.773
    28   6 C        2.917    -0.026    28.648     8.777
    29   6 C        2.924    -0.031    28.771     8.796
    30   6 C        2.978     0.003    27.941     8.671
    31   1 H        0.925     0.056     2.251     2.346
    32   1 H        0.925     0.040     2.447     2.446
    33   1 H        0.925     0.056     2.247     2.344
    34   1 H        0.925     0.039     2.457     2.451
    35   1 H        0.925     0.056     2.250     2.346
    36   1 H        0.925     0.056     2.251     2.346
    37   1 H        0.926     0.057     2.235     2.338
    38   1 H        0.926     0.051     2.313     2.378
    39   1 H        0.926     0.047     2.360     2.403
    40   1 H        0.926     0.048     2.348     2.396
    41   1 H        0.926     0.036     2.504     2.475
    42   1 H        0.926     0.032     2.554     2.499
    43   1 H        0.926     0.024     2.677     2.559
    44   1 H        0.926     0.027     2.628     2.535
    45   1 H        0.926     0.029     2.602     2.522
    46   1 H        0.926     0.031     2.573     2.509
    47   1 H        0.926     0.031     2.574     2.509
    48   1 H        0.926     0.036     2.503     2.474
    49   1 H        0.926     0.037     2.493     2.469
    50   1 H        0.926     0.048     2.340     2.392
    51   1 H        0.926     0.047     2.355     2.400
    52   1 H        0.926     0.050     2.314     2.379
    53   1 H        0.926     0.057     2.238     2.339

molecular dipole:
                 x           y           z       tot (Debye)
 q only:       -6.350      -1.606       1.557
   full:       -6.131      -1.573       1.558      16.568

 projected vibrational frequencies (cm⁻¹)
eigval :       -0.00    -0.00    -0.00    -0.00     0.00     0.00
eigval :       16.00    22.30    29.84    46.52    56.50    68.05
eigval :       86.26    98.25   101.16   127.17   132.15   156.06
eigval :      175.73   202.68   204.81   214.50   234.36   237.55
eigval :      293.84   301.41   308.47   323.14   335.05   344.93
eigval :      370.41   375.56   384.09   389.64   399.03   409.13
eigval :      444.32   447.76   457.67   496.53   518.23   531.40
eigval :      540.45   548.62   558.82   579.47   582.92   592.95
eigval :      601.72   609.35   650.92   659.18   664.68   686.43
eigval :      702.82   706.58   745.43   751.36   771.39   773.61
eigval :      795.41   825.29   835.18   862.04   871.11   871.30
eigval :      879.87   884.66   893.28   905.37   909.50   916.86
eigval :      917.18   919.47   923.20   924.65   925.26   932.50
eigval :      936.08   959.54   978.38   996.80  1010.14  1070.65
eigval :     1076.41  1082.30  1102.53  1107.99  1117.11  1127.16
eigval :     1135.20  1139.92  1162.10  1166.02  1168.53  1175.59
eigval :     1178.66  1181.14  1193.00  1208.40  1231.88  1236.21
eigval :     1249.25  1251.79  1254.68  1277.39  1290.70  1299.03
eigval :     1301.55  1323.45  1327.19  1328.86  1336.00  1396.54
eigval :     1404.87  1410.40  1411.49  1414.97  1423.18  1426.26
eigval :     1438.19  1447.45  1449.70  1455.63  1468.19  1478.50
eigval :     1480.88  1489.99  1495.57  1540.52  1541.10  1549.36
eigval :     1555.16  1572.28  1582.70  1583.70  3029.46  3032.29
eigval :     3052.75  3054.62  3059.14  3060.78  3061.63  3063.15
eigval :     3069.46  3071.38  3075.02  3077.56  3083.76  3085.68
eigval :     3087.95  3088.64  3092.40  3095.61  3095.68  3104.76
eigval :     3105.07  3114.42  3114.92

   temp. (K)  partition function   enthalpy   heat capacity  entropy
                                   cal/mol     cal/K/mol   cal/K/mol   J/K/mol
 298.15  VIB  0.151E+11            14269.858     92.962     86.904
         ROT  0.208E+08              888.752      2.981     36.463
         INT  0.314E+18            15158.611     95.943    123.367
         TR   0.744E+28             1481.254      4.968     43.751
         TOT                       16639.8646   100.9113   167.1183   699.2231

       T/K    H(0)-H(T)+PV         H(T)/Eh          T*S/Eh         G(T)/Eh
   ------------------------------------------------------------------------
    298.15    0.265173E-01    0.443043E+00    0.794033E-01    0.363640E+00
   ------------------------------------------------------------------------

         :::::::::::::::::::::::::::::::::::::::::::::::::::::
         ::                  THERMODYNAMIC                  ::
         :::::::::::::::::::::::::::::::::::::::::::::::::::::
         :: total free energy         -78.269023500600 Eh   ::
         ::.................................................::
         :: total energy              -78.632663264920 Eh   ::
         :: zero point energy           0.416525765904 Eh   ::
         :: G(RRHO) w/o ZPVE           -0.052886001583 Eh   ::
         :: G(RRHO) contrib.            0.363639764320 Eh   ::
         :::::::::::::::::::::::::::::::::::::::::::::::::::::

           -------------------------------------------------
          | TOTAL ENERGY              -78.632663264920 Eh   |
          | TOTAL ENTHALPY            -78.189620186941 Eh   |
          | TOTAL FREE ENERGY         -78.269023500600 Eh   |
          | GRADIENT NORM               0.000055053405 Eh/α |
          | HOMO-LUMO GAP               0.798021556865 eV   |
           -------------------------------------------------

 * finished run on 2025/08/29 at 12:25:46.774
