   * xtb version 6.7.1 (edcfbbe) compiled by 'albert@albert-system' on 2024-07-22

   ID    Z sym.   atoms
    1    6 C      1-9, 11-15, 17-30
    2    7 N      10
    3    8 O      16
    4    1 H      31-53

          program call               : xtb data2507/toluene/PhCO-DMAC/PhCO-DMAC_toluene_S0_crest.xyz --gfn 2 --gbsa toluene --ohess vtight --parallel 40 --molden --ceasefiles --namespace data2507/toluene/PhCO-DMAC/PhCO-DMAC_toluene_S0_finalOpt
      * Solvation model:               GBSA
        Solvent                        toluene
        Solvent mass                       9.2140E+01 g/mol
          :  Hamiltonian                  GFN2-xTB          :
 * total energy  :   -78.7129006 Eh     change       -0.7231762E-09 Eh
 * total energy  :   -78.7129568 Eh     change       -0.5624288E-04 Eh
 * total energy  :   -78.7129677 Eh     change       -0.1088594E-04 Eh
 * total energy  :   -78.7129703 Eh     change       -0.2613410E-05 Eh
 * total energy  :   -78.7129732 Eh     change       -0.2836956E-05 Eh
 * total energy  :   -78.7129766 Eh     change       -0.3438359E-05 Eh
 * total energy  :   -78.7129791 Eh     change       -0.2450876E-05 Eh
 * total energy  :   -78.7129788 Eh     change        0.2309104E-06 Eh
 * total energy  :   -78.7129808 Eh     change       -0.1942594E-05 Eh
 * total energy  :   -78.7129819 Eh     change       -0.1130207E-05 Eh
 * total energy  :   -78.7129863 Eh     change       -0.7562576E-06 Eh
 * total energy  :   -78.7129868 Eh     change       -0.5540450E-06 Eh
 * total energy  :   -78.7129875 Eh     change       -0.6262987E-06 Eh
 * total energy  :   -78.7129882 Eh     change       -0.7859946E-06 Eh
 * total energy  :   -78.7129890 Eh     change       -0.7598425E-06 Eh
 * total energy  :   -78.7129896 Eh     change       -0.6248771E-06 Eh
 * total energy  :   -78.7129901 Eh     change       -0.4270242E-06 Eh
 * total energy  :   -78.7129904 Eh     change       -0.3760933E-06 Eh
 * total energy  :   -78.7129904 Eh     change       -0.4635481E-08 Eh
   *** GEOMETRY OPTIMIZATION CONVERGED AFTER 22 ITERATIONS ***

 final structure:
================
53
 xtb: 6.7.1 (edcfbbe)
C           -5.15111264020848       -0.75799670222700        1.48836173241999
C           -4.41285935659234       -0.45970676631317        0.16958912866322
C           -5.39885667956219       -0.49426134557037       -1.01329047793958
C           -3.80485144561288        0.92730127057815        0.26118009553450
C           -4.63372508797196        2.02172218088682        0.47032101134754
C           -4.13872472199919        3.30666469066460        0.59560872297114
C           -2.77229065753006        3.51235757792361        0.53128257556045
C           -1.92616478546507        2.44316449930217        0.32309935670071
C           -2.42666544636273        1.14708868991142        0.16421394071225
N           -1.54985366135010        0.09221445803906       -0.05404125209228
C           -0.16471120225392        0.36371542094304       -0.18704318531943
C            0.31712289488312        0.98887091646613       -1.33449337920485
C            1.66523505475840        1.25480937360334       -1.45922063249802
C            2.55838203906072        0.87842665918997       -0.45599908259547
C            3.99745799266230        1.19548288004057       -0.62482161087412
O            4.35814960132281        2.20238278544027       -1.21629414376158
C            4.97516043394106        0.23971616375998       -0.05429310983954
C            6.21218532749637        0.72018854576140        0.37524714693462
C            7.15839380850507       -0.14602272394704        0.88844784422660
C            6.88783476454813       -1.50410343845773        0.95757435132659
C            5.66999701980720       -1.99296986871687        0.51058905580363
C            4.71372117493328       -1.12880920183011        0.00932887004418
C            2.07032867513372        0.26180712251759        0.69602544561165
C            0.71862746461775        0.01260094709582        0.83073184258263
C           -1.99635083610647       -1.21818578344281       -0.16578771817317
C           -1.08216511887985       -2.24338468629861       -0.42781497103493
C           -1.49371654754175       -3.55573618119918       -0.53167670079608
C           -2.83310493789494       -3.87047762536457       -0.38892928114160
C           -3.74329150086526       -2.85514434831187       -0.16030305759041
C           -3.35633679447424       -1.52585757125980       -0.05068166785842
H           -5.93343050150887       -0.02626372081829        1.66937508162100
H           -4.44994408983770       -0.72455212217910        2.32066041229681
H           -5.60691193947230       -1.74388779857230        1.46323611932476
H           -4.87018481267881       -0.29108709441847       -1.94327100236940
H           -6.17718981180661        0.25376091183866       -0.89091084756824
H           -5.87323922381467       -1.46827505756386       -1.09476397051759
H           -5.70058408855011        1.87268668279518        0.53982840856963
H           -4.81287225605471        4.13510862846796        0.75343071547798
H           -2.35998720307628        4.50414892746142        0.64645640765554
H           -0.86110493458391        2.61371528880362        0.28835671620470
H           -0.37285760805607        1.26734511213888       -2.11724805242096
H            2.05185582275558        1.74350298301555       -2.34155864469714
H            6.40694339488807        1.78084474475138        0.30666884950033
H            8.10909318334736        0.23606985213170        1.22943616782438
H            7.62911879538671       -2.18219475408206        1.35383502127444
H            5.46554300109227       -3.05263458166123        0.55128099326984
H            3.77453921707236       -1.51490328905390       -0.35794583636254
H            2.74684642243623        0.00373256865619        1.49681007706194
H            0.33526073004151       -0.45737841761843        1.72432457493283
H           -0.03738349112636       -2.00708500984671       -0.55648568637458
H           -0.76640778449664       -4.32946355903858       -0.72975719511623
H           -3.16885515417826       -4.89382337563240       -0.46491455088117
H           -4.78767986387538       -3.11201581835861       -0.06832631142598

          :  Hamiltonian                  GFN2-xTB          :
         :: gradient norm              0.000074096906 Eh/a0 ::
         :: HOMO-LUMO gap              1.446293220050 eV    ::
         :: SCC energy               -80.114179901568 Eh    ::
         :: -> dispersion             -0.068095510924 Eh    ::
         :: -> Gsolv                  -0.034339353947 Eh    ::
         :: repulsion energy           1.401189464964 Eh    ::

    * Orbital Energies and Occupations

         #    Occupation            Energy/Eh            Energy/eV
      -------------------------------------------------------------
         1        2.0000           -0.7125256             -19.3888
       ...           ...                  ...                  ...
        61        2.0000           -0.4333696             -11.7926
        62        2.0000           -0.4281309             -11.6500
        63        2.0000           -0.4252773             -11.5724
        64        2.0000           -0.4199575             -11.4276
        65        2.0000           -0.4180081             -11.3746
        66        2.0000           -0.4173948             -11.3579
        67        2.0000           -0.4084712             -11.1151
        68        2.0000           -0.4074069             -11.0861
        69        2.0000           -0.4037843             -10.9875
        70        2.0000           -0.3981368             -10.8339
        71        2.0000           -0.3969777             -10.8023
        72        2.0000           -0.3926724             -10.6852
        73        2.0000           -0.3476411              -9.4598 (HOMO)
        74                         -0.2944908              -8.0135 (LUMO)
        75                         -0.2442848              -6.6473
        76                         -0.2426818              -6.6037
        77                         -0.2351607              -6.3990
        78                         -0.2246861              -6.1140
        79                         -0.2194982              -5.9729
        80                         -0.2184065              -5.9431
        81                         -0.1979442              -5.3863
        82                         -0.1889360              -5.1412
        83                         -0.1140518              -3.1035
        84                         -0.0930393              -2.5317
       ...                                ...                  ...
       143                          0.6776906              18.4409
      -------------------------------------------------------------
                  HL-Gap            0.0531502 Eh            1.4463 eV

     #   Z          covCN         q      C6AA      α(0)
     1   6 C        3.761    -0.104    22.526     6.766
     2   6 C        3.909     0.021    20.163     6.382
     3   6 C        3.761    -0.103    22.523     6.766
     4   6 C        2.979    -0.013    28.338     8.732
     5   6 C        2.928    -0.037    28.931     8.821
     6   6 C        2.917    -0.046    29.135     8.851
     7   6 C        2.919    -0.035    28.859     8.810
     8   6 C        2.924    -0.060    29.482     8.904
     9   6 C        2.927     0.058    26.702     8.474
    10   7 N        2.753    -0.071    22.609     7.062
    11   6 C        2.927     0.077    26.284     8.408
    12   6 C        2.919    -0.036    28.893     8.815
    13   6 C        2.923    -0.017    28.425     8.743
    14   6 C        2.972    -0.014    28.359     8.735
    15   6 C        2.829     0.228    23.224     7.897
    16   8 O        0.858    -0.419    22.058     6.297
    17   6 C        2.972    -0.014    28.349     8.734
    18   6 C        2.924    -0.017    28.424     8.743
    19   6 C        2.917    -0.025    28.639     8.776
    20   6 C        2.920    -0.021    28.521     8.758
    21   6 C        2.918    -0.026    28.644     8.776
    22   6 C        2.921    -0.025    28.633     8.775
    23   6 C        2.920    -0.025    28.622     8.773
    24   6 C        2.920    -0.036    28.906     8.817
    25   6 C        2.927     0.058    26.702     8.474
    26   6 C        2.924    -0.060    29.493     8.906
    27   6 C        2.919    -0.035    28.863     8.810
    28   6 C        2.917    -0.046    29.139     8.852
    29   6 C        2.928    -0.037    28.928     8.820
    30   6 C        2.979    -0.013    28.337     8.732
    31   1 H        0.925     0.042     2.427     2.436
    32   1 H        0.925     0.030     2.582     2.513
    33   1 H        0.925     0.042     2.422     2.434
    34   1 H        0.925     0.030     2.586     2.515
    35   1 H        0.925     0.042     2.426     2.436
    36   1 H        0.925     0.042     2.425     2.435
    37   1 H        0.926     0.033     2.540     2.492
    38   1 H        0.926     0.026     2.641     2.541
    39   1 H        0.926     0.027     2.635     2.538
    40   1 H        0.926     0.024     2.673     2.557
    41   1 H        0.926     0.052     2.296     2.369
    42   1 H        0.926     0.052     2.293     2.368
    43   1 H        0.926     0.045     2.379     2.412
    44   1 H        0.926     0.046     2.371     2.408
    45   1 H        0.926     0.048     2.342     2.393
    46   1 H        0.926     0.048     2.349     2.397
    47   1 H        0.926     0.044     2.401     2.423
    48   1 H        0.926     0.053     2.286     2.364
    49   1 H        0.926     0.054     2.266     2.354
    50   1 H        0.926     0.025     2.662     2.551
    51   1 H        0.926     0.028     2.620     2.531
    52   1 H        0.926     0.026     2.640     2.541
    53   1 H        0.926     0.033     2.543     2.494

molecular dipole:
                 x           y           z       tot (Debye)
 q only:       -0.295      -1.379       0.800
   full:       -0.256      -1.387       0.809       4.133

 projected vibrational frequencies (cm⁻¹)
eigval :       -0.00    -0.00     0.00     0.00     0.00     0.00
eigval :       17.58    24.53    29.20    42.83    50.16    63.73
eigval :       79.16   100.66   103.02   121.16   134.97   157.63
eigval :      172.45   190.11   195.31   219.78   224.63   237.39
eigval :      278.31   304.45   313.94   331.07   344.52   360.30
eigval :      367.84   375.31   379.19   384.26   398.13   410.23
eigval :      451.56   452.52   479.72   492.80   515.14   542.03
eigval :      546.81   559.95   581.35   585.96   593.51   606.51
eigval :      621.80   648.53   664.50   680.07   684.96   696.57
eigval :      706.35   720.01   756.33   775.09   776.78   777.37
eigval :      819.60   829.11   864.43   868.16   872.47   877.61
eigval :      896.62   911.43   912.01   912.78   915.06   919.82
eigval :      920.80   923.45   928.19   932.22   935.94   936.97
eigval :      941.28   957.47   993.46  1012.96  1022.91  1075.89
eigval :     1079.20  1085.07  1113.00  1118.52  1118.85  1127.63
eigval :     1140.08  1158.39  1168.51  1175.23  1178.13  1181.08
eigval :     1185.62  1187.55  1193.48  1208.15  1243.18  1248.37
eigval :     1258.83  1261.58  1266.94  1275.96  1293.52  1309.79
eigval :     1314.22  1321.23  1324.00  1332.86  1333.82  1399.43
eigval :     1400.27  1418.66  1426.79  1434.97  1438.98  1458.50
eigval :     1470.54  1475.86  1486.90  1487.74  1494.41  1497.25
eigval :     1502.36  1554.88  1573.76  1576.65  1577.91  1587.13
eigval :     1589.36  1590.37  1600.40  1651.81  3020.64  3023.18
eigval :     3038.78  3040.84  3047.38  3051.24  3072.37  3073.38
eigval :     3076.84  3078.77  3079.58  3080.02  3083.25  3084.21
eigval :     3085.60  3089.05  3090.51  3091.02  3093.36  3095.66
eigval :     3096.39  3098.32  3101.42

   temp. (K)  partition function   enthalpy   heat capacity  entropy
                                   cal/mol     cal/K/mol   cal/K/mol   J/K/mol
 298.15  VIB  0.167E+11            14169.024     91.526     86.510
         ROT  0.205E+08              888.752      2.981     36.439
         INT  0.343E+18            15057.776     94.507    122.949
         TR   0.744E+28             1481.254      4.968     43.751
         TOT                       16539.0300    99.4747   166.6998   697.4722

       T/K    H(0)-H(T)+PV         H(T)/Eh          T*S/Eh         G(T)/Eh
   ------------------------------------------------------------------------
    298.15    0.263566E-01    0.445763E+00    0.792045E-01    0.366559E+00
   ------------------------------------------------------------------------

         :::::::::::::::::::::::::::::::::::::::::::::::::::::
         ::                  THERMODYNAMIC                  ::
         :::::::::::::::::::::::::::::::::::::::::::::::::::::
         :: total free energy         -78.346431758304 Eh   ::
         ::.................................................::
         :: total energy              -78.712990437851 Eh   ::
         :: zero point energy           0.419406534184 Eh   ::
         :: G(RRHO) w/o ZPVE           -0.052847854637 Eh   ::
         :: G(RRHO) contrib.            0.366558679547 Eh   ::
         :::::::::::::::::::::::::::::::::::::::::::::::::::::

           -------------------------------------------------
          | TOTAL ENERGY              -78.712990437851 Eh   |
          | TOTAL ENTHALPY            -78.267227281637 Eh   |
          | TOTAL FREE ENERGY         -78.346431758304 Eh   |
          | GRADIENT NORM               0.000074029840 Eh/α |
          | HOMO-LUMO GAP               1.446291176320 eV   |
           -------------------------------------------------

 * finished run on 2025/08/29 at 12:25:42.406
