   * xtb version 6.7.1 (edcfbbe) compiled by 'albert@albert-system' on 2024-07-22

   ID    Z sym.   atoms
    1    6 C      1-9, 11-15, 17-30
    2    7 N      10
    3    8 O      16
    4    1 H      31-53

          program call               : xtb data2507/toluene/PhCO-DMAC/PhCO-DMAC.xyz --gfn 2 --gbsa toluene --ohess vtight --parallel 40 --molden --ceasefiles --namespace data2507/toluene/PhCO-DMAC/PhCO-DMAC_toluene_S0_preOpt
      * Solvation model:               GBSA
        Solvent                        toluene
        Solvent mass                       9.2140E+01 g/mol
          :  Hamiltonian                  GFN2-xTB          :
 * total energy  :   -78.6985565 Eh     change       -0.5385346E-09 Eh
 * total energy  :   -78.7090613 Eh     change       -0.1050477E-01 Eh
 * total energy  :   -78.7118273 Eh     change       -0.2765984E-02 Eh
 * total energy  :   -78.7122982 Eh     change       -0.4709107E-03 Eh
 * total energy  :   -78.7126063 Eh     change       -0.3080971E-03 Eh
 * total energy  :   -78.7126769 Eh     change       -0.7061510E-04 Eh
 * total energy  :   -78.7127307 Eh     change       -0.5377583E-04 Eh
 * total energy  :   -78.7127911 Eh     change       -0.6045908E-04 Eh
 * total energy  :   -78.7128160 Eh     change       -0.2483595E-04 Eh
 * total energy  :   -78.7128382 Eh     change       -0.2221636E-04 Eh
 * total energy  :   -78.7128742 Eh     change       -0.1837070E-06 Eh
 * total energy  :   -78.7128744 Eh     change       -0.1653137E-06 Eh
 * total energy  :   -78.7128746 Eh     change       -0.1535802E-06 Eh
 * total energy  :   -78.7128747 Eh     change       -0.1360926E-06 Eh
 * total energy  :   -78.7128748 Eh     change       -0.1442777E-06 Eh
 * total energy  :   -78.7128750 Eh     change       -0.1872421E-06 Eh
 * total energy  :   -78.7128752 Eh     change       -0.1977552E-06 Eh
 * total energy  :   -78.7128754 Eh     change       -0.1439012E-06 Eh
 * total energy  :   -78.7128755 Eh     change       -0.8736878E-07 Eh
   *** GEOMETRY OPTIMIZATION CONVERGED AFTER 37 ITERATIONS ***

 final structure:
================
53
 xtb: 6.7.1 (edcfbbe)
C           -4.68796839228245       -0.52077235265756        1.64592422255814
C           -4.05274484992725       -0.27741306847818        0.26394507209590
C           -5.13695178989444       -0.29583680655310       -0.83010026267384
C           -3.38870440215630        1.08750916222354        0.26678763434681
C           -4.15325160466956        2.22028314970107        0.51128542337950
C           -3.60366229027537        3.48941319789148        0.52820585623344
C           -2.24856669772895        3.64278703737479        0.29617842965568
C           -1.46479071832376        2.53464149268789        0.05036719110669
C           -2.01956772792642        1.25149431410241        0.03053157980983
N           -1.20538552293201        0.15748026419452       -0.21887370966735
C            0.18252469707492        0.36891658219687       -0.44671729121892
C            0.64768664840945        0.62073512472789       -1.73359305082624
C            1.99451400800222        0.83665687116992       -1.94659511290432
C            2.89743415351950        0.78077792587540       -0.88528309893831
C            4.33309651438365        1.04904968126921       -1.15267129926878
O            4.67787883362727        1.82094109243912       -2.03442238392940
C            5.32448730390354        0.34714621143053       -0.30465136945433
C            6.53411117919505        0.98096048796014       -0.02148088771185
C            7.48877403796974        0.34932892742401        0.75245010005200
C            7.25558606286143       -0.93102235080589        1.23053877945194
C            6.06667478459414       -1.57823589641570        0.93134105780773
C            5.10037262263858       -0.94429663779028        0.17189611813077
C            2.42456133428213        0.53463539667735        0.40327741200900
C            1.07474111712101        0.33399855773806        0.62019258677077
C           -1.70231128858650       -1.13608109173374       -0.24793027379409
C           -0.83686391597653       -2.20165536674968       -0.51274166390649
C           -1.29923187369204       -3.50081175000807       -0.54491667074420
C           -2.63819357702046       -3.76001134260404       -0.31329396781512
C           -3.49649758643828       -2.70637963024750       -0.05587311220012
C           -3.05887518863004       -1.38936676868321       -0.01805340914582
H           -5.41031714934308        0.25543509226816        1.88269862468842
H           -3.91655017617922       -0.51811222467540        2.41432908521894
H           -5.19790988431143       -1.47972204345877        1.67483321083816
H           -4.68364680724469       -0.12385842965942       -1.80503533887713
H           -5.87722674551608        0.47990969742325       -0.65503644624769
H           -5.64752062394902       -1.25461475347496       -0.85379855947235
H           -5.21190146545690        2.11625596432238        0.69531212093980
H           -4.22850937516704        4.34840924327784        0.72203245473608
H           -1.79729809512083        4.62425555099976        0.30581151968738
H           -0.40788997149982        2.66193300176768       -0.12904560930312
H           -0.05207473748515        0.65253452935379       -2.55535985782195
H            2.37075715481025        1.04348509625506       -2.93779678736653
H            6.70052055984832        1.97565261137670       -0.40940322086651
H            8.41730698897639        0.85228222645666        0.97813571714733
H            8.00376447441398       -1.42745322242506        1.83059046272580
H            5.89238048573713       -2.58136340812470        1.29132769197218
H            4.18258651713988       -1.45715897849865       -0.07454477326995
H            3.11048910603222        0.52499675473544        1.23672197208269
H            0.70083259305342        0.15096997173779        1.61660458999798
H            0.20823199683448       -2.00452462986135       -0.69728322657799
H           -0.61209254723183       -4.30826211009382       -0.75199830347683
H           -3.01354453107644       -4.77221260670691       -0.33456882236192
H           -4.53926563838886       -2.92370774735299        0.11974959640058

          :  Hamiltonian                  GFN2-xTB          :
         :: gradient norm              0.000041057471 Eh/a0 ::
         :: HOMO-LUMO gap              1.382166501186 eV    ::
         :: SCC energy               -80.114482323939 Eh    ::
         :: -> dispersion             -0.067987072586 Eh    ::
         :: -> Gsolv                  -0.034342738166 Eh    ::
         :: repulsion energy           1.401606864482 Eh    ::

    * Orbital Energies and Occupations

         #    Occupation            Energy/Eh            Energy/eV
      -------------------------------------------------------------
         1        2.0000           -0.7139749             -19.4282
       ...           ...                  ...                  ...
        61        2.0000           -0.4338595             -11.8059
        62        2.0000           -0.4280612             -11.6481
        63        2.0000           -0.4267955             -11.6137
        64        2.0000           -0.4209212             -11.4538
        65        2.0000           -0.4183160             -11.3830
        66        2.0000           -0.4178139             -11.3693
        67        2.0000           -0.4081226             -11.1056
        68        2.0000           -0.4071211             -11.0783
        69        2.0000           -0.4030570             -10.9677
        70        2.0000           -0.3981378             -10.8339
        71        2.0000           -0.3975882             -10.8189
        72        2.0000           -0.3922392             -10.6734
        73        2.0000           -0.3464545              -9.4275 (HOMO)
        74                         -0.2956608              -8.0453 (LUMO)
        75                         -0.2451516              -6.6709
        76                         -0.2438851              -6.6365
        77                         -0.2355723              -6.4102
        78                         -0.2238671              -6.0917
        79                         -0.2188306              -5.9547
        80                         -0.2178247              -5.9273
        81                         -0.1975763              -5.3763
        82                         -0.1897583              -5.1636
        83                         -0.1148286              -3.1246
        84                         -0.0938588              -2.5540
       ...                                ...                  ...
       143                          0.6783623              18.4592
      -------------------------------------------------------------
                  HL-Gap            0.0507937 Eh            1.3822 eV

     #   Z          covCN         q      C6AA      α(0)
     1   6 C        3.761    -0.103    22.523     6.765
     2   6 C        3.908     0.021    20.165     6.383
     3   6 C        3.761    -0.103    22.519     6.765
     4   6 C        2.978    -0.014    28.356     8.735
     5   6 C        2.928    -0.038    28.933     8.821
     6   6 C        2.917    -0.046    29.155     8.854
     7   6 C        2.919    -0.035    28.863     8.810
     8   6 C        2.924    -0.060    29.497     8.906
     9   6 C        2.928     0.058    26.690     8.472
    10   7 N        2.754    -0.074    22.678     7.073
    11   6 C        2.927     0.079    26.247     8.402
    12   6 C        2.919    -0.035    28.864     8.810
    13   6 C        2.924    -0.016    28.408     8.741
    14   6 C        2.972    -0.013    28.326     8.730
    15   6 C        2.829     0.229    23.208     7.894
    16   8 O        0.858    -0.416    21.994     6.288
    17   6 C        2.972    -0.013    28.343     8.733
    18   6 C        2.924    -0.017    28.424     8.743
    19   6 C        2.917    -0.025    28.635     8.775
    20   6 C        2.920    -0.021    28.520     8.758
    21   6 C        2.918    -0.026    28.641     8.776
    22   6 C        2.921    -0.025    28.632     8.775
    23   6 C        2.920    -0.024    28.606     8.771
    24   6 C        2.920    -0.035    28.877     8.812
    25   6 C        2.928     0.058    26.691     8.473
    26   6 C        2.924    -0.060    29.501     8.907
    27   6 C        2.919    -0.035    28.866     8.810
    28   6 C        2.917    -0.047    29.157     8.855
    29   6 C        2.928    -0.037    28.930     8.821
    30   6 C        2.978    -0.014    28.356     8.735
    31   1 H        0.925     0.041     2.431     2.438
    32   1 H        0.925     0.030     2.584     2.514
    33   1 H        0.925     0.042     2.428     2.437
    34   1 H        0.925     0.030     2.591     2.517
    35   1 H        0.925     0.041     2.431     2.438
    36   1 H        0.925     0.041     2.430     2.438
    37   1 H        0.926     0.032     2.551     2.498
    38   1 H        0.926     0.025     2.653     2.547
    39   1 H        0.926     0.026     2.645     2.543
    40   1 H        0.926     0.022     2.703     2.571
    41   1 H        0.926     0.053     2.282     2.362
    42   1 H        0.926     0.054     2.269     2.355
    43   1 H        0.926     0.045     2.380     2.412
    44   1 H        0.926     0.046     2.368     2.406
    45   1 H        0.926     0.048     2.339     2.392
    46   1 H        0.926     0.048     2.345     2.395
    47   1 H        0.926     0.044     2.397     2.421
    48   1 H        0.926     0.054     2.265     2.354
    49   1 H        0.926     0.055     2.259     2.350
    50   1 H        0.926     0.022     2.696     2.567
    51   1 H        0.926     0.027     2.633     2.538
    52   1 H        0.926     0.025     2.652     2.547
    53   1 H        0.926     0.032     2.555     2.499

molecular dipole:
                 x           y           z       tot (Debye)
 q only:       -0.109      -1.021       1.182
   full:       -0.071      -1.027       1.195       4.008

 projected vibrational frequencies (cm⁻¹)
eigval :       -0.00    -0.00    -0.00     0.00     0.00     0.00
eigval :      -18.15    16.37    17.30    32.60    43.66    56.92
eigval :       72.29    98.08   102.54   119.01   124.19   154.62
eigval :      170.62   186.62   189.50   220.96   221.62   233.89
eigval :      277.30   301.64   311.92   330.47   343.71   357.35
eigval :      362.18   373.73   375.80   380.91   397.61   409.34
eigval :      449.75   452.96   480.24   489.02   515.94   540.75
eigval :      547.60   558.46   580.83   585.82   592.34   606.78
eigval :      621.29   647.64   664.04   678.42   682.65   693.73
eigval :      706.20   721.74   756.51   774.61   776.09   777.67
eigval :      816.90   827.86   862.83   865.20   870.76   877.68
eigval :      896.14   911.19   911.89   912.82   915.77   920.72
eigval :      921.02   921.66   927.19   931.55   932.20   936.04
eigval :      940.87   954.94   993.37  1012.37  1022.94  1075.76
eigval :     1078.26  1084.51  1110.76  1117.40  1117.47  1126.76
eigval :     1138.45  1158.01  1166.75  1173.61  1177.47  1179.88
eigval :     1183.72  1186.46  1191.56  1207.64  1242.20  1246.90
eigval :     1256.64  1261.06  1265.64  1275.00  1292.56  1308.24
eigval :     1316.94  1320.85  1323.91  1333.62  1338.35  1397.12
eigval :     1399.01  1417.44  1426.24  1435.31  1440.23  1458.21
eigval :     1470.35  1476.99  1485.99  1487.40  1495.61  1497.18
eigval :     1502.01  1557.59  1573.73  1576.53  1581.68  1587.12
eigval :     1589.79  1590.29  1600.66  1655.64  3020.17  3022.67
eigval :     3037.89  3039.84  3046.47  3050.30  3070.96  3071.33
eigval :     3077.16  3077.99  3078.17  3078.97  3083.94  3084.99
eigval :     3086.82  3088.22  3088.55  3089.63  3094.71  3095.16
eigval :     3095.91  3096.23  3097.74

   temp. (K)  partition function   enthalpy   heat capacity  entropy
                                   cal/mol     cal/K/mol   cal/K/mol   J/K/mol
 298.15  VIB  0.820E+11            14300.218     91.083     88.005
         ROT  0.206E+08              888.752      2.981     36.448
         INT  0.169E+19            15188.970     94.064    124.453
         TR   0.744E+28             1481.254      4.968     43.751
         TOT                       16670.2239    99.0319   168.2036   703.7638

       T/K    H(0)-H(T)+PV         H(T)/Eh          T*S/Eh         G(T)/Eh
   ------------------------------------------------------------------------
    298.15    0.265657E-01    0.445562E+00    0.799189E-01    0.365643E+00
   ------------------------------------------------------------------------

         :::::::::::::::::::::::::::::::::::::::::::::::::::::
         ::                  THERMODYNAMIC                  ::
         :::::::::::::::::::::::::::::::::::::::::::::::::::::
         :: total free energy         -78.347232187813 Eh   ::
         ::.................................................::
         :: total energy              -78.712875457207 Eh   ::
         :: zero point energy           0.418996524846 Eh   ::
         :: G(RRHO) w/o ZPVE           -0.053353255451 Eh   ::
         :: G(RRHO) contrib.            0.365643269395 Eh   ::
         :::::::::::::::::::::::::::::::::::::::::::::::::::::

           -------------------------------------------------
          | TOTAL ENERGY              -78.712875457207 Eh   |
          | TOTAL ENTHALPY            -78.267313239593 Eh   |
          | TOTAL FREE ENERGY         -78.347232187813 Eh   |
          | GRADIENT NORM               0.000041039907 Eh/α |
          | HOMO-LUMO GAP               1.382166973697 eV   |
           -------------------------------------------------

 * finished run on 2025/08/29 at 12:24:18.742
