   * xtb version 6.7.1 (edcfbbe) compiled by 'albert@albert-system' on 2024-07-22

   ID    Z sym.   atoms
    1    6 C      1-9, 11-15, 17-30
    2    7 N      10
    3    8 O      16
    4    1 H      31-53

          program call               : xtb data2507/toluene/PhCO-DMAC/PhCO-DMAC_toluene_T1_crest.xyz --gfn 2 --uhf 2 --gbsa toluene --ohess vtight --parallel 40 --molden --ceasefiles --namespace data2507/toluene/PhCO-DMAC/PhCO-DMAC_toluene_T1_finalOpt
      * Solvation model:               GBSA
        Solvent                        toluene
        Solvent mass                       9.2140E+01 g/mol
          :  Hamiltonian                  GFN2-xTB          :
 * total energy  :   -78.6324706 Eh     change       -0.1355431E-08 Eh
 * total energy  :   -78.6326256 Eh     change       -0.1550048E-03 Eh
 * total energy  :   -78.6326689 Eh     change       -0.4327264E-04 Eh
 * total energy  :   -78.6326777 Eh     change       -0.8780573E-05 Eh
 * total energy  :   -78.6326829 Eh     change       -0.5283535E-05 Eh
 * total energy  :   -78.6326883 Eh     change       -0.5316928E-05 Eh
 * total energy  :   -78.6326914 Eh     change       -0.3175099E-05 Eh
 * total energy  :   -78.6326932 Eh     change       -0.1794569E-05 Eh
 * total energy  :   -78.6326942 Eh     change       -0.9338566E-06 Eh
 * total energy  :   -78.6326947 Eh     change       -0.5459254E-06 Eh
 * total energy  :   -78.6326950 Eh     change       -0.3189826E-06 Eh
 * total energy  :   -78.6326952 Eh     change       -0.2081259E-06 Eh
 * total energy  :   -78.6326954 Eh     change       -0.1948017E-06 Eh
 * total energy  :   -78.6326956 Eh     change       -0.1844199E-06 Eh
 * total energy  :   -78.6326957 Eh     change       -0.1294542E-06 Eh
 * total energy  :   -78.6326958 Eh     change       -0.9058790E-07 Eh
   *** GEOMETRY OPTIMIZATION CONVERGED AFTER 16 ITERATIONS ***

 final structure:
================
53
 xtb: 6.7.1 (edcfbbe)
C           -5.10321674282916       -0.53464216842734        1.67886113544480
C           -4.44628966577576       -0.27453741139644        0.30768322290847
C           -5.52515266821554       -0.22257316085085       -0.79368510729866
C           -3.73831115435138        1.06009940535528        0.35784368036863
C           -4.46014869228565        2.21441775118064        0.63013188470505
C           -3.85412682507582        3.45544871494657        0.70410815523560
C           -2.48244386526215        3.56306051947794        0.51441450092538
C           -1.73937366591093        2.43823032569586        0.24336494414238
C           -2.35181153701770        1.17682630281843        0.14777244530122
N           -1.58288196159353        0.07156880700987       -0.13688854264130
C           -0.18300894839849        0.23520953689675       -0.33110040330561
C            0.31812095811103        0.73922494057924       -1.53830510192380
C            1.66651781783511        0.88824887743129       -1.71269991315280
C            2.58878623178226        0.52272282416552       -0.69729109203361
C            3.98732960420229        0.73670260347293       -0.93957488173349
O            4.37563675060680        1.47391246324435       -1.90450380955785
C            4.99385407477150        0.12429915267744       -0.06495655860820
C            6.20282026767241        0.79869856453217        0.15427751602264
C            7.18202358622484        0.24563975814958        0.95172348431730
C            6.99350051248535       -1.00184470128221        1.53013982364089
C            5.81907459672507       -1.69882534937525        1.28262167753330
C            4.83051367159102       -1.15111875521468        0.49059626756708
C            2.05686289337095        0.06772703942717        0.53120867374141
C            0.70481773517895       -0.08312073909211        0.70343095515734
C           -2.12414141497111       -1.19074717173641       -0.22444806859932
C           -1.29369276571610       -2.27513690604843       -0.55546564054258
C           -1.79974140017054       -3.55118888384052       -0.63464934556299
C           -3.14886098467929       -3.77496636027908       -0.39113308347025
C           -3.97579819516961       -2.70900122055393       -0.08689231179832
C           -3.49612656833766       -1.40872573073238       -0.00195173444833
H           -5.80476632854425        0.25641884710114        1.92484096164238
H           -4.34132982018683       -0.57389986409763        2.45496135094858
H           -5.64036328640127       -1.47801206820020        1.67439550345176
H           -5.06224489462436       -0.03179791405431       -1.75994910005693
H           -6.24075671036407        0.56856463171908       -0.59250683082757
H           -6.06297964919070       -1.16390240289463       -0.84921675166712
H           -5.52453146221097        2.15017975847719        0.79122751772654
H           -4.44474549510277        4.33326791549401        0.91623165789037
H           -1.99439297054201        4.52326537007660        0.58147390833631
H           -0.67310066054702        2.51822296794940        0.10500379292723
H           -0.37002615186463        0.99944197030842       -2.32986359658572
H            2.07250470659246        1.27513255611579       -2.63619346901495
H            6.34196881453287        1.76730715621413       -0.30501209841584
H            8.10054995523222        0.78937567831735        1.12342593446720
H            7.76180733137662       -1.43439158118654        2.15386353990622
H            5.67931611674987       -2.68546393660507        1.70199683822452
H            3.94236617428506       -1.72420473242213        0.26784838126170
H            2.72027357282983       -0.12867237630015        1.35919671164818
H            0.31037960950312       -0.42811212224881        1.64874282277779
H           -0.24892720401792       -2.09551503280282       -0.75259775618508
H           -1.14645725613233       -4.37169873398195       -0.88882855157309
H           -3.55368421982078       -4.77366575451128       -0.44719922725394
H           -5.02287272554869       -2.90137417459895        0.08554895613709

          :  Hamiltonian                  GFN2-xTB          :
         :: gradient norm              0.000066557200 Eh/a0 ::
         :: HOMO-LUMO gap              0.798771408599 eV    ::
         :: SCC energy               -80.020544398101 Eh    ::
         :: -> dispersion             -0.067680442704 Eh    ::
         :: -> Gsolv                  -0.047134640943 Eh    ::
         :: repulsion energy           1.387848559327 Eh    ::

    * Orbital Energies and Occupations

         #    Occupation            Energy/Eh            Energy/eV
      -------------------------------------------------------------
         1        2.0000           -0.6923725             -18.8404
       ...           ...                  ...                  ...
        62        2.0000           -0.4257243             -11.5845
        63        2.0000           -0.4237739             -11.5315
        64        2.0000           -0.4210837             -11.4583
        65        2.0000           -0.4196059             -11.4181
        66        2.0000           -0.4161884             -11.3251
        67        2.0000           -0.4133627             -11.2482
        68        2.0000           -0.4076905             -11.0938
        69        2.0000           -0.3987551             -10.8507
        70        2.0000           -0.3981254             -10.8335
        71        2.0000           -0.3950241             -10.7492
        72        1.7998           -0.3714864             -10.1087
        73        1.2002           -0.3688545             -10.0370
        74        1.0000           -0.2786575              -7.5827 (HOMO)
        75        0.0000           -0.2493031              -6.7839 (LUMO)
        76                         -0.2396740              -6.5219
        77                         -0.2390759              -6.5056
        78                         -0.2261543              -6.1540
        79                         -0.2215012              -6.0274
        80                         -0.2157928              -5.8720
        81                         -0.2130710              -5.7980
        82                         -0.1711772              -4.6580
        83                         -0.1144344              -3.1139
        84                         -0.1024261              -2.7872
        85                         -0.0948814              -2.5819
       ...                                ...                  ...
       143                          0.6747293              18.3603
      -------------------------------------------------------------
                  HL-Gap            0.0293545 Eh            0.7988 eV

     #   Z          covCN         q      C6AA      α(0)
     1   6 C        3.761    -0.109    22.632     6.782
     2   6 C        3.909     0.026    20.085     6.370
     3   6 C        3.761    -0.109    22.631     6.781
     4   6 C        2.978     0.004    27.941     8.671
     5   6 C        2.924    -0.031    28.771     8.796
     6   6 C        2.917    -0.026    28.644     8.776
     7   6 C        2.917    -0.025    28.622     8.773
     8   6 C        2.922    -0.042    29.052     8.839
     9   6 C        2.931     0.062    26.607     8.459
    10   7 N        2.754     0.004    21.196     6.838
    11   6 C        2.930     0.027    27.397     8.584
    12   6 C        2.913    -0.042    29.031     8.835
    13   6 C        2.924    -0.034    28.847     8.808
    14   6 C        2.966    -0.021    28.538     8.762
    15   6 C        2.834     0.162    24.499     8.111
    16   8 O        0.857    -0.502    23.835     6.546
    17   6 C        2.970    -0.009    28.245     8.717
    18   6 C        2.924    -0.030    28.755     8.794
    19   6 C        2.917    -0.033    28.821     8.803
    20   6 C        2.918    -0.041    29.012     8.833
    21   6 C        2.917    -0.033    28.821     8.803
    22   6 C        2.920    -0.041    29.014     8.833
    23   6 C        2.917    -0.046    29.142     8.852
    24   6 C        2.914    -0.041    29.018     8.833
    25   6 C        2.931     0.062    26.609     8.460
    26   6 C        2.922    -0.042    29.053     8.839
    27   6 C        2.917    -0.025    28.623     8.773
    28   6 C        2.917    -0.026    28.647     8.777
    29   6 C        2.924    -0.031    28.769     8.796
    30   6 C        2.978     0.003    27.942     8.671
    31   1 H        0.925     0.056     2.251     2.346
    32   1 H        0.925     0.040     2.450     2.448
    33   1 H        0.925     0.056     2.247     2.344
    34   1 H        0.925     0.040     2.455     2.450
    35   1 H        0.925     0.056     2.249     2.345
    36   1 H        0.925     0.056     2.250     2.346
    37   1 H        0.926     0.057     2.235     2.338
    38   1 H        0.926     0.051     2.313     2.378
    39   1 H        0.926     0.047     2.361     2.403
    40   1 H        0.926     0.048     2.349     2.397
    41   1 H        0.926     0.036     2.504     2.475
    42   1 H        0.926     0.032     2.559     2.502
    43   1 H        0.926     0.024     2.675     2.558
    44   1 H        0.926     0.027     2.624     2.533
    45   1 H        0.926     0.029     2.598     2.520
    46   1 H        0.926     0.031     2.570     2.507
    47   1 H        0.926     0.031     2.571     2.507
    48   1 H        0.926     0.036     2.503     2.474
    49   1 H        0.926     0.036     2.506     2.475
    50   1 H        0.926     0.048     2.345     2.394
    51   1 H        0.926     0.047     2.354     2.399
    52   1 H        0.926     0.051     2.313     2.378
    53   1 H        0.926     0.057     2.238     2.339

molecular dipole:
                 x           y           z       tot (Debye)
 q only:       -6.370      -1.341       1.667
   full:       -6.151      -1.311       1.666      16.536

 projected vibrational frequencies (cm⁻¹)
eigval :       -0.00    -0.00    -0.00     0.00     0.00     0.00
eigval :      -10.59    15.58    27.15    40.06    52.36    67.49
eigval :       85.90    94.59   102.30   119.38   123.80   155.09
eigval :      175.68   194.82   204.17   214.37   231.89   235.80
eigval :      292.22   299.34   306.45   322.91   336.78   343.97
eigval :      368.18   371.50   382.70   386.01   398.31   408.48
eigval :      446.50   448.50   458.07   499.32   518.29   530.79
eigval :      541.59   548.34   558.40   579.39   582.90   592.64
eigval :      601.81   608.91   649.84   659.38   663.35   691.00
eigval :      706.34   706.43   745.44   751.65   771.47   774.53
eigval :      793.44   825.21   832.56   862.86   871.39   873.93
eigval :      878.22   884.27   889.76   905.05   909.62   916.35
eigval :      917.23   919.29   922.95   923.95   925.98   933.58
eigval :      934.26   955.81   978.55   996.44  1010.06  1070.73
eigval :     1077.04  1081.61  1102.56  1108.27  1116.44  1126.18
eigval :     1136.18  1139.17  1161.93  1166.36  1168.55  1175.17
eigval :     1180.40  1182.60  1194.07  1208.99  1231.14  1236.28
eigval :     1248.62  1251.91  1254.64  1277.54  1290.94  1299.60
eigval :     1303.57  1322.59  1326.78  1329.05  1336.49  1394.42
eigval :     1405.85  1410.47  1411.93  1413.19  1424.03  1425.87
eigval :     1438.79  1448.07  1450.24  1456.32  1468.85  1477.06
eigval :     1479.34  1487.98  1494.43  1540.76  1541.26  1550.31
eigval :     1555.77  1572.98  1582.80  1584.31  3029.24  3030.86
eigval :     3052.01  3053.78  3058.46  3061.32  3062.07  3062.19
eigval :     3068.34  3071.22  3074.89  3077.25  3082.65  3085.96
eigval :     3088.43  3089.24  3092.72  3095.50  3095.81  3104.53
eigval :     3104.87  3112.91  3115.44

   temp. (K)  partition function   enthalpy   heat capacity  entropy
                                   cal/mol     cal/K/mol   cal/K/mol   J/K/mol
 298.15  VIB  0.509E+11            14349.784     92.725     88.164
         ROT  0.208E+08              888.752      2.981     36.467
         INT  0.106E+19            15238.536     95.706    124.631
         TR   0.744E+28             1481.254      4.968     43.751
         TOT                       16719.7904   100.6739   168.3824   704.5120

       T/K    H(0)-H(T)+PV         H(T)/Eh          T*S/Eh         G(T)/Eh
   ------------------------------------------------------------------------
    298.15    0.266447E-01    0.442988E+00    0.800039E-01    0.362984E+00
   ------------------------------------------------------------------------

         :::::::::::::::::::::::::::::::::::::::::::::::::::::
         ::                  THERMODYNAMIC                  ::
         :::::::::::::::::::::::::::::::::::::::::::::::::::::
         :: total free energy         -78.269711587286 Eh   ::
         ::.................................................::
         :: total energy              -78.632695840348 Eh   ::
         :: zero point energy           0.416343487184 Eh   ::
         :: G(RRHO) w/o ZPVE           -0.053359234122 Eh   ::
         :: G(RRHO) contrib.            0.362984253062 Eh   ::
         :::::::::::::::::::::::::::::::::::::::::::::::::::::

           -------------------------------------------------
          | TOTAL ENERGY              -78.632695840348 Eh   |
          | TOTAL ENTHALPY            -78.189707671150 Eh   |
          | TOTAL FREE ENERGY         -78.269711587286 Eh   |
          | GRADIENT NORM               0.000067566422 Eh/α |
          | HOMO-LUMO GAP               0.798775324683 eV   |
           -------------------------------------------------

 * finished run on 2025/08/29 at 12:27:21.573
