   * xtb version 6.7.1 (edcfbbe) compiled by 'albert@albert-system' on 2024-07-22

   ID    Z sym.   atoms
    1    6 C      1-4, 6, 7, 9-11, 13-18, 20, 21, 23-28, 30
    2    7 N      5, 8, 12, 19, 22, 29
    3    1 H      31-42

          program call               : xtb data2507/toluene/DQP/DQP.xyz --gfn 2 --gbsa toluene --ohess vtight --parallel 40 --molden --ceasefiles --namespace data2507/toluene/DQP/DQP_toluene_S0_preOpt
      * Solvation model:               GBSA
        Solvent                        toluene
        Solvent mass                       9.2140E+01 g/mol
          :  Hamiltonian                  GFN2-xTB          :
 * total energy  :   -75.0744808 Eh     change       -0.1479350E-10 Eh
 * total energy  :   -75.0966748 Eh     change       -0.2219400E-01 Eh
 * total energy  :   -75.1013056 Eh     change       -0.4630779E-02 Eh
 * total energy  :   -75.1014338 Eh     change       -0.1282214E-03 Eh
 * total energy  :   -75.1014847 Eh     change       -0.5092613E-04 Eh
 * total energy  :   -75.1014863 Eh     change       -0.1542343E-05 Eh
 * total energy  :   -75.1014864 Eh     change       -0.1496637E-06 Eh
 * total energy  :   -75.1014863 Eh     change        0.1468596E-06 Eh
 * total energy  :   -75.1014864 Eh     change       -0.1533645E-06 Eh
 * total energy  :   -75.1014863 Eh     change        0.1540732E-06 Eh
 * total energy  :   -75.1014863 Eh     change        0.1638098E-06 Eh
 * total energy  :   -75.1014864 Eh     change       -0.1616321E-06 Eh
 * total energy  :   -75.1014863 Eh     change        0.1575438E-06 Eh
 * total energy  :   -75.1014864 Eh     change       -0.1603551E-06 Eh
 * total energy  :   -75.1014863 Eh     change        0.1588431E-06 Eh
 * total energy  :   -75.1014864 Eh     change       -0.1560480E-06 Eh
 * total energy  :   -75.1014863 Eh     change        0.1495645E-06 Eh
 * total energy  :   -75.1014864 Eh     change       -0.1526824E-06 Eh
 * total energy  :   -75.1014864 Eh     change       -0.3057934E-08 Eh
   *** GEOMETRY OPTIMIZATION CONVERGED AFTER 22 ITERATIONS ***

 final structure:
================
42
 xtb: 6.7.1 (edcfbbe)
C           -5.80775702878936       -1.40140935774791       -0.00000056070523
C           -5.31794204212737       -2.72269130152080        0.00000135306350
C           -3.97493513138175       -2.97457336796465        0.00000194556332
C           -3.06284520968465       -1.89727844276391        0.00000064723320
N           -1.74249333857720       -2.13647771605419        0.00000099288672
C           -0.92590951777178       -1.10473731707599       -0.00000006683027
C           -1.42250704889890        0.23470582453557       -0.00000139254880
N           -2.71434723016910        0.48463361578867       -0.00000202847577
C           -3.55956609585868       -0.55754741397926       -0.00000114550320
C           -4.95344314696583       -0.33501711061473       -0.00000180833015
C           -0.49437860848612        1.35416812311603       -0.00000148725340
N           -0.97914893089941        2.57740056086050       -0.00000147505022
C           -0.11147989296022        3.60101644588740       -0.00000066266518
C           -0.58792146468011        4.92975673161459       -0.00000037947164
C            0.30210235061210        5.96659894800794        0.00000082967588
C            1.69118824580661        5.72960159346584        0.00000173749166
C            2.18699698742520        4.45634754325613        0.00000153904888
C            1.29700237342343        3.36078761819186        0.00000026452219
N            1.77655573167668        2.10758642994788       -0.00000004426612
C            0.91378750416059        1.11415928654949       -0.00000095488349
C            1.41923810594109       -0.24921843597532       -0.00000101653676
N            2.72107179116088       -0.44031241704659       -0.00000141231267
C            3.17407867846332       -1.70339676780915       -0.00000086286876
C            4.56309575795234       -1.95469578090032       -0.00000125889222
C            5.01655877999629       -3.24367956555097       -0.00000062970739
C            4.11720754375913       -4.32853550359878        0.00000049417961
C            2.76655673831369       -4.12173903716555        0.00000108538138
C            2.26216078966899       -2.80342015741496        0.00000030244182
N            0.93693541415085       -2.59268841733370        0.00000061192017
C            0.50757317272259       -1.34892070120242       -0.00000019748224
H           -6.87489593634194       -1.23809200868720       -0.00000073556798
H           -6.02096616229730       -3.54197975738347        0.00000245064870
H           -3.57559894937621       -3.97665213153035        0.00000339806668
H           -5.30362655815061        0.68528431489901       -0.00000315225107
H           -1.65535992959541        5.08541557094238       -0.00000116319743
H           -0.05546552798414        6.98522117638660        0.00000120930365
H            2.36661651346401        6.57177072462955        0.00000301090057
H            3.24558153980462        4.24884840340950        0.00000227402543
H            5.23128353085865       -1.10782316316205       -0.00000202260420
H            6.07761247999090       -3.44282179018018       -0.00000086713339
H            4.50926294444316       -5.33439623251080        0.00000109504264
H            2.05812177720100       -4.93519801631574        0.00000208314161

          :  Hamiltonian                  GFN2-xTB          :
         :: gradient norm              0.000015476133 Eh/a0 ::
         :: HOMO-LUMO gap              1.128290918770 eV    ::
         :: SCC energy               -76.376843029784 Eh    ::
         :: -> dispersion             -0.057210623832 Eh    ::
         :: -> Gsolv                  -0.041833686809 Eh    ::
         :: repulsion energy           1.275356588816 Eh    ::

    * Orbital Energies and Occupations

         #    Occupation            Energy/Eh            Energy/eV
      -------------------------------------------------------------
         1        2.0000           -0.6967480             -18.9595
       ...           ...                  ...                  ...
        57        2.0000           -0.4489561             -12.2167
        58        2.0000           -0.4477424             -12.1837
        59        2.0000           -0.4318525             -11.7513
        60        2.0000           -0.4318371             -11.7509
        61        2.0000           -0.4318357             -11.7508
        62        2.0000           -0.4318337             -11.7508
        63        2.0000           -0.4268011             -11.6138
        64        2.0000           -0.4156090             -11.3093
        65        2.0000           -0.4134877             -11.2516
        66        2.0000           -0.4134851             -11.2515
        67        2.0000           -0.3688544             -10.0370
        68        2.0000           -0.3688503             -10.0369
        69        2.0000           -0.3668180              -9.9816 (HOMO)
        70                         -0.3253541              -8.8533 (LUMO)
        71                         -0.3185622              -8.6685
        72                         -0.3185560              -8.6683
        73                         -0.2590164              -7.0482
        74                         -0.2590107              -7.0480
        75                         -0.2401392              -6.5345
        76                         -0.2304158              -6.2699
        77                         -0.2257305              -6.1424
        78                         -0.2257304              -6.1424
        79                         -0.1860915              -5.0638
        80                         -0.1860890              -5.0637
       ...                                ...                  ...
       132                          0.7106328              19.3373
      -------------------------------------------------------------
                  HL-Gap            0.0414639 Eh            1.1283 eV

     #   Z          covCN         q      C6AA      α(0)
     1   6 C        2.916    -0.021    28.534     8.759
     2   6 C        2.916    -0.021    28.534     8.759
     3   6 C        2.916    -0.039    28.968     8.826
     4   6 C        2.968     0.084    26.126     8.384
     5   7 N        1.848    -0.236    27.015     7.703
     6   6 C        2.960     0.080    26.207     8.397
     7   6 C        2.960     0.080    26.207     8.397
     8   7 N        1.848    -0.236    27.015     7.703
     9   6 C        2.968     0.084    26.126     8.384
    10   6 C        2.916    -0.039    28.969     8.826
    11   6 C        2.960     0.080    26.207     8.397
    12   7 N        1.848    -0.236    27.015     7.703
    13   6 C        2.968     0.084    26.126     8.384
    14   6 C        2.916    -0.039    28.968     8.826
    15   6 C        2.916    -0.021    28.534     8.759
    16   6 C        2.916    -0.021    28.534     8.759
    17   6 C        2.916    -0.039    28.969     8.826
    18   6 C        2.968     0.084    26.126     8.384
    19   7 N        1.848    -0.236    27.014     7.703
    20   6 C        2.960     0.080    26.207     8.397
    21   6 C        2.960     0.080    26.207     8.397
    22   7 N        1.848    -0.236    27.014     7.703
    23   6 C        2.968     0.084    26.126     8.384
    24   6 C        2.916    -0.039    28.968     8.826
    25   6 C        2.916    -0.021    28.534     8.759
    26   6 C        2.916    -0.021    28.534     8.759
    27   6 C        2.916    -0.039    28.969     8.826
    28   6 C        2.968     0.084    26.126     8.384
    29   7 N        1.848    -0.236    27.015     7.703
    30   6 C        2.960     0.080    26.207     8.397
    31   1 H        0.926     0.065     2.139     2.287
    32   1 H        0.926     0.065     2.139     2.287
    33   1 H        0.926     0.066     2.128     2.281
    34   1 H        0.926     0.066     2.128     2.281
    35   1 H        0.926     0.066     2.128     2.281
    36   1 H        0.926     0.065     2.139     2.287
    37   1 H        0.926     0.065     2.139     2.287
    38   1 H        0.926     0.066     2.128     2.281
    39   1 H        0.926     0.066     2.128     2.281
    40   1 H        0.926     0.065     2.139     2.287
    41   1 H        0.926     0.065     2.139     2.287
    42   1 H        0.926     0.066     2.128     2.281

molecular dipole:
                 x           y           z       tot (Debye)
 q only:        0.000      -0.000       0.000
   full:        0.000      -0.000       0.000       0.001

 projected vibrational frequencies (cm⁻¹)
eigval :       -0.00    -0.00    -0.00     0.00     0.00     0.00
eigval :       20.03    27.27    38.97    50.62    95.86    96.15
eigval :       97.62    99.75   182.30   183.82   201.64   268.18
eigval :      270.14   272.98   280.20   280.46   307.72   308.08
eigval :      357.54   399.58   400.71   436.56   438.04   442.10
eigval :      445.58   445.89   507.50   516.11   517.13   520.15
eigval :      520.35   521.40   569.88   581.09   581.37   622.50
eigval :      623.14   623.72   664.56   666.14   706.61   725.58
eigval :      756.57   757.85   764.95   771.62   772.69   778.59
eigval :      807.81   807.92   825.61   836.37   866.21   866.33
eigval :      878.67   879.22   880.76   917.14   917.19   917.57
eigval :      926.58   929.51   929.93   930.27  1050.51  1050.89
eigval :     1052.50  1085.63  1085.75  1139.70  1140.66  1141.45
eigval :     1162.02  1164.53  1165.78  1217.33  1217.82  1222.86
eigval :     1246.99  1250.33  1250.70  1290.59  1290.98  1318.88
eigval :     1329.05  1336.29  1336.86  1344.60  1345.25  1372.13
eigval :     1395.36  1400.36  1400.61  1436.39  1461.94  1462.23
eigval :     1480.23  1485.79  1486.01  1488.59  1488.82  1535.65
eigval :     1537.69  1543.23  1543.36  1599.24  1600.68  1600.95
eigval :     3087.10  3087.70  3087.72  3093.81  3094.16  3094.32
eigval :     3103.74  3104.25  3104.36  3106.84  3107.06  3107.22

   temp. (K)  partition function   enthalpy   heat capacity  entropy
                                   cal/mol     cal/K/mol   cal/K/mol   J/K/mol
 298.15  VIB  0.609E+08            11472.033     77.496     68.369
         ROT  0.337E+07              888.752      2.981     32.848
         INT  0.205E+15            12360.785     80.476    101.218
         TR   0.729E+28             1481.254      4.968     43.712
         TOT                       13842.0389    85.4446   144.9296   606.3853

       T/K    H(0)-H(T)+PV         H(T)/Eh          T*S/Eh         G(T)/Eh
   ------------------------------------------------------------------------
    298.15    0.220587E-01    0.319063E+00    0.688607E-01    0.250202E+00
   ------------------------------------------------------------------------

         :::::::::::::::::::::::::::::::::::::::::::::::::::::
         ::                  THERMODYNAMIC                  ::
         :::::::::::::::::::::::::::::::::::::::::::::::::::::
         :: total free energy         -74.851284033756 Eh   ::
         ::.................................................::
         :: total energy              -75.101486445338 Eh   ::
         :: zero point energy           0.297004430953 Eh   ::
         :: G(RRHO) w/o ZPVE           -0.046802019370 Eh   ::
         :: G(RRHO) contrib.            0.250202411583 Eh   ::
         :::::::::::::::::::::::::::::::::::::::::::::::::::::

           -------------------------------------------------
          | TOTAL ENERGY              -75.101486445338 Eh   |
          | TOTAL ENTHALPY            -74.782423321309 Eh   |
          | TOTAL FREE ENERGY         -74.851284033756 Eh   |
          | GRADIENT NORM               0.000015491572 Eh/α |
          | HOMO-LUMO GAP               1.128291145221 eV   |
           -------------------------------------------------

 * finished run on 2025/07/17 at 00:46:10.575
