   * xtb version 6.7.1 (edcfbbe) compiled by 'albert@albert-system' on 2024-07-22

   ID    Z sym.   atoms
    1    6 C      1-4, 6, 7, 9-11, 13-18, 20, 21, 23-28, 30
    2    7 N      5, 8, 12, 19, 22, 29
    3    1 H      31-42

          program call               : xtb data2507/toluene/DQP/DQP_toluene_S0_crest.xyz --gfn 2 --gbsa toluene --ohess vtight --parallel 40 --molden --ceasefiles --namespace data2507/toluene/DQP/DQP_toluene_S0_finalOpt
      * Solvation model:               GBSA
        Solvent                        toluene
        Solvent mass                       9.2140E+01 g/mol
          :  Hamiltonian                  GFN2-xTB          :
 * total energy  :   -75.1014492 Eh     change       -0.2449951E-10 Eh
 * total energy  :   -75.1014877 Eh     change       -0.3849027E-04 Eh
 * total energy  :   -75.1014918 Eh     change       -0.4056719E-05 Eh
 * total energy  :   -75.1014932 Eh     change       -0.1433181E-05 Eh
 * total energy  :   -75.1014939 Eh     change       -0.6982859E-06 Eh
 * total energy  :   -75.1014945 Eh     change       -0.5530480E-06 Eh
 * total energy  :   -75.1014950 Eh     change       -0.5387163E-06 Eh
 * total energy  :   -75.1014955 Eh     change       -0.5109617E-06 Eh
 * total energy  :   -75.1014960 Eh     change       -0.4486303E-06 Eh
 * total energy  :   -75.1014963 Eh     change       -0.3799711E-06 Eh
 * total energy  :   -75.1014973 Eh     change       -0.1773860E-06 Eh
 * total energy  :   -75.1014975 Eh     change       -0.1511305E-06 Eh
 * total energy  :   -75.1014976 Eh     change       -0.1344973E-06 Eh
 * total energy  :   -75.1014977 Eh     change       -0.1324653E-06 Eh
 * total energy  :   -75.1014979 Eh     change       -0.1310250E-06 Eh
 * total energy  :   -75.1014980 Eh     change       -0.1352305E-06 Eh
 * total energy  :   -75.1014981 Eh     change       -0.1248305E-06 Eh
 * total energy  :   -75.1014983 Eh     change       -0.1201862E-06 Eh
 * total energy  :   -75.1014983 Eh     change       -0.2990248E-09 Eh
   *** GEOMETRY OPTIMIZATION CONVERGED AFTER 22 ITERATIONS ***

 final structure:
================
42
 xtb: 6.7.1 (edcfbbe)
C           -5.95992112623439        0.41410680120710       -0.00541603767821
C           -5.69694400421964        1.79848244526995       -0.00861139213857
C           -4.41465155019811        2.27046111416405       -0.00843641450490
C           -3.33578535143442        1.36025722152176       -0.00526731647408
N           -2.07371378302962        1.81610640951619       -0.00498904595466
C           -1.09672239873323        0.93476688841906       -0.00304145250938
C           -1.36322412800956       -0.46864536864428       -0.00154058696144
N           -2.59536153038845       -0.93027068262713       -0.00077427070563
C           -3.60244676171883       -0.04347948061384       -0.00247074343941
C           -4.93983664422547       -0.49505745297781       -0.00223981089445
C           -0.26150509136728       -1.41774775551725       -0.00181519622031
N           -0.53573678038175       -2.70464655481141       -0.00298170608162
C            0.49031963535596       -3.56937956078538       -0.00460805503525
C            0.24161503110933       -4.95882198541330       -0.00689715807021
C            1.29172882875596       -5.83308114605390       -0.00928680723852
C            2.62198880878359       -5.36818626219074       -0.00924305103913
C            2.89912183790324       -4.03014587993796       -0.00684667767313
C            1.83915559361035       -3.09799121138461       -0.00460717714934
N            2.10316334818759       -1.78240844828803       -0.00307566029332
C            1.08703851561855       -0.94649099082345       -0.00191269945112
C            1.35825153737399        0.48212116216588       -0.00176633606315
N            2.60992989674805        0.88786430249946       -0.00136430369830
C            2.84572287724805        2.20885460826557       -0.00278372105793
C            4.17330408957304        2.68832604356264       -0.00287491922984
C            4.40548136290022        4.03485726928786       -0.00521494204451
C            3.33782467719223        4.95455507014864       -0.00738232122576
C            2.04053178403478        4.52543264587769       -0.00704021633277
C            1.76313508296198        3.14139705916446       -0.00473303710598
N            0.49169938862801        2.71239477848525       -0.00445165266573
C            0.27597068193832        1.41440843216368       -0.00297727833625
H           -6.98505488817361        0.07561006452938       -0.00553577116656
H           -6.52626551214274        2.48961237405046       -0.01121541587796
H           -4.18797427052150        3.32508232204956       -0.01072877329556
H           -5.11531568802278       -1.55941737727022        0.00012524652474
H           -0.78509837109579       -5.28970884615757       -0.00692403081942
H            1.10830039241929       -6.89695313312217       -0.01130939883424
H            3.42808382931853       -6.08631767971648       -0.01116401617542
H            3.90855618043730       -3.64971813017534       -0.00678013112241
H            4.97345330965394        1.96484750072200       -0.00131612940628
H            5.41856376523311        4.40784733278770       -0.00552085657821
H            3.55693019734292        6.01167013894693       -0.00929964029598
H            1.20626388726879        5.20929440630567       -0.00859270017985

          :  Hamiltonian                  GFN2-xTB          :
         :: gradient norm              0.000012778585 Eh/a0 ::
         :: HOMO-LUMO gap              1.128218385895 eV    ::
         :: SCC energy               -76.376833521300 Eh    ::
         :: -> dispersion             -0.057210316891 Eh    ::
         :: -> Gsolv                  -0.041846005578 Eh    ::
         :: repulsion energy           1.275335261389 Eh    ::

    * Orbital Energies and Occupations

         #    Occupation            Energy/Eh            Energy/eV
      -------------------------------------------------------------
         1        2.0000           -0.6967475             -18.9595
       ...           ...                  ...                  ...
        57        2.0000           -0.4489558             -12.2167
        58        2.0000           -0.4477424             -12.1837
        59        2.0000           -0.4318508             -11.7513
        60        2.0000           -0.4318419             -11.7510
        61        2.0000           -0.4318330             -11.7508
        62        2.0000           -0.4318281             -11.7506
        63        2.0000           -0.4267993             -11.6138
        64        2.0000           -0.4156078             -11.3093
        65        2.0000           -0.4134868             -11.2515
        66        2.0000           -0.4134852             -11.2515
        67        2.0000           -0.3688530             -10.0370
        68        2.0000           -0.3688485             -10.0369
        69        2.0000           -0.3668156              -9.9816 (HOMO)
        70                         -0.3253543              -8.8533 (LUMO)
        71                         -0.3185619              -8.6685
        72                         -0.3185562              -8.6684
        73                         -0.2590159              -7.0482
        74                         -0.2590120              -7.0481
        75                         -0.2401392              -6.5345
        76                         -0.2304166              -6.2700
        77                         -0.2257311              -6.1425
        78                         -0.2257305              -6.1424
        79                         -0.1860917              -5.0638
        80                         -0.1860890              -5.0637
       ...                                ...                  ...
       132                          0.7106233              19.3370
      -------------------------------------------------------------
                  HL-Gap            0.0414613 Eh            1.1282 eV

     #   Z          covCN         q      C6AA      α(0)
     1   6 C        2.916    -0.021    28.533     8.759
     2   6 C        2.916    -0.021    28.534     8.759
     3   6 C        2.916    -0.039    28.969     8.826
     4   6 C        2.968     0.084    26.126     8.384
     5   7 N        1.848    -0.236    27.014     7.703
     6   6 C        2.960     0.080    26.207     8.397
     7   6 C        2.960     0.080    26.207     8.397
     8   7 N        1.848    -0.236    27.015     7.703
     9   6 C        2.968     0.084    26.126     8.384
    10   6 C        2.916    -0.039    28.968     8.826
    11   6 C        2.960     0.080    26.207     8.397
    12   7 N        1.848    -0.236    27.015     7.703
    13   6 C        2.968     0.084    26.126     8.384
    14   6 C        2.916    -0.039    28.969     8.826
    15   6 C        2.916    -0.021    28.533     8.759
    16   6 C        2.916    -0.021    28.534     8.759
    17   6 C        2.916    -0.039    28.969     8.826
    18   6 C        2.968     0.084    26.125     8.384
    19   7 N        1.848    -0.236    27.015     7.703
    20   6 C        2.960     0.080    26.207     8.397
    21   6 C        2.960     0.080    26.207     8.397
    22   7 N        1.848    -0.236    27.015     7.703
    23   6 C        2.968     0.084    26.126     8.384
    24   6 C        2.916    -0.039    28.969     8.826
    25   6 C        2.916    -0.021    28.534     8.759
    26   6 C        2.916    -0.021    28.533     8.759
    27   6 C        2.916    -0.039    28.968     8.826
    28   6 C        2.968     0.084    26.126     8.384
    29   7 N        1.848    -0.236    27.014     7.703
    30   6 C        2.960     0.080    26.207     8.397
    31   1 H        0.926     0.065     2.139     2.287
    32   1 H        0.926     0.065     2.139     2.287
    33   1 H        0.926     0.066     2.128     2.281
    34   1 H        0.926     0.066     2.128     2.281
    35   1 H        0.926     0.066     2.128     2.281
    36   1 H        0.926     0.065     2.139     2.287
    37   1 H        0.926     0.065     2.139     2.287
    38   1 H        0.926     0.066     2.128     2.281
    39   1 H        0.926     0.066     2.128     2.281
    40   1 H        0.926     0.065     2.139     2.287
    41   1 H        0.926     0.065     2.139     2.287
    42   1 H        0.926     0.066     2.128     2.281

molecular dipole:
                 x           y           z       tot (Debye)
 q only:        0.000       0.000      -0.005
   full:        0.000       0.000      -0.004       0.011

 projected vibrational frequencies (cm⁻¹)
eigval :       -0.00    -0.00    -0.00     0.00     0.00     0.00
eigval :       20.67    28.70    39.94    50.21    96.29    96.95
eigval :       97.77   102.32   182.36   184.40   201.65   268.48
eigval :      270.94   273.21   280.54   281.07   307.56   308.25
eigval :      357.44   399.29   400.86   436.93   438.31   442.47
eigval :      445.92   446.39   507.64   516.25   517.23   520.32
eigval :      520.66   521.43   570.16   581.31   581.73   622.81
eigval :      623.80   623.97   664.83   666.29   706.65   725.79
eigval :      756.92   757.96   765.84   772.61   773.18   778.73
eigval :      807.94   808.15   825.82   836.71   866.40   866.62
eigval :      879.29   879.82   880.82   917.77   917.89   918.20
eigval :      926.72   930.51   930.59   930.66  1050.79  1051.52
eigval :     1052.49  1085.66  1085.78  1140.44  1140.81  1141.22
eigval :     1161.79  1164.18  1165.63  1217.49  1218.23  1222.96
eigval :     1247.09  1250.40  1250.70  1290.79  1291.08  1319.00
eigval :     1329.12  1336.58  1336.78  1344.82  1345.25  1372.10
eigval :     1395.40  1400.38  1400.56  1436.47  1462.05  1462.21
eigval :     1480.30  1485.90  1486.06  1488.76  1488.91  1535.68
eigval :     1537.80  1543.30  1543.40  1599.26  1600.74  1600.85
eigval :     3087.36  3087.67  3087.71  3093.76  3094.33  3094.39
eigval :     3103.97  3104.29  3104.46  3106.85  3107.36  3107.70

   temp. (K)  partition function   enthalpy   heat capacity  entropy
                                   cal/mol     cal/K/mol   cal/K/mol   J/K/mol
 298.15  VIB  0.534E+08            11457.363     77.500     68.212
         ROT  0.337E+07              888.752      2.981     32.848
         INT  0.180E+15            12346.116     80.481    101.060
         TR   0.729E+28             1481.254      4.968     43.712
         TOT                       13827.3697    85.4492   144.7718   605.7251

       T/K    H(0)-H(T)+PV         H(T)/Eh          T*S/Eh         G(T)/Eh
   ------------------------------------------------------------------------
    298.15    0.220353E-01    0.319107E+00    0.687857E-01    0.250321E+00
   ------------------------------------------------------------------------

         :::::::::::::::::::::::::::::::::::::::::::::::::::::
         ::                  THERMODYNAMIC                  ::
         :::::::::::::::::::::::::::::::::::::::::::::::::::::
         :: total free energy         -74.851176799567 Eh   ::
         ::.................................................::
         :: total energy              -75.101498261299 Eh   ::
         :: zero point energy           0.297071886894 Eh   ::
         :: G(RRHO) w/o ZPVE           -0.046750425163 Eh   ::
         :: G(RRHO) contrib.            0.250321461732 Eh   ::
         :::::::::::::::::::::::::::::::::::::::::::::::::::::

           -------------------------------------------------
          | TOTAL ENERGY              -75.101498261299 Eh   |
          | TOTAL ENTHALPY            -74.782391058247 Eh   |
          | TOTAL FREE ENERGY         -74.851176799567 Eh   |
          | GRADIENT NORM               0.000012777114 Eh/α |
          | HOMO-LUMO GAP               1.128218394461 eV   |
           -------------------------------------------------

 * finished run on 2025/07/17 at 00:46:59.398
