   * xtb version 6.7.1 (edcfbbe) compiled by 'albert@albert-system' on 2024-07-22

   ID    Z sym.   atoms
    1    6 C      1-4, 6, 7, 9-11, 13-18, 20, 21, 23-28, 30
    2    7 N      5, 8, 12, 19, 22, 29
    3    1 H      31-42

          program call               : xtb data2507/toluene/DQP/DQP_toluene_S0_finalOpt.xtbopt.xyz --gfn 2 --uhf 2 --gbsa toluene --ohess vtight --parallel 40 --molden --ceasefiles --namespace data2507/toluene/DQP/DQP_toluene_T1_preOpt
      * Solvation model:               GBSA
        Solvent                        toluene
        Solvent mass                       9.2140E+01 g/mol
          :  Hamiltonian                  GFN2-xTB          :
 * total energy  :   -75.0571217 Eh     change       -0.2039400E-09 Eh
 * total energy  :   -75.0585613 Eh     change       -0.1439677E-02 Eh
 * total energy  :   -75.0590191 Eh     change       -0.4577957E-03 Eh
 * total energy  :   -75.0590614 Eh     change       -0.4230049E-04 Eh
 * total energy  :   -75.0590734 Eh     change       -0.1199362E-04 Eh
 * total energy  :   -75.0590739 Eh     change       -0.4414728E-06 Eh
 * total energy  :   -75.0590739 Eh     change       -0.7805777E-07 Eh
   *** GEOMETRY OPTIMIZATION CONVERGED AFTER 7 ITERATIONS ***

 final structure:
================
42
 xtb: 6.7.1 (edcfbbe)
C           -5.97840296290724        0.42239507992818       -0.00505288963515
C           -5.71722579092082        1.79744604703053       -0.00776954988640
C           -4.42577752496249        2.26734636178957       -0.00789208935760
C           -3.35079050039192        1.36621609995430       -0.00547135187142
N           -2.08144350519326        1.79967435570083       -0.00542697194660
C           -1.09235092004887        0.93247723105605       -0.00385744996123
C           -1.35829363204637       -0.46804854192820       -0.00245647444744
N           -2.59647116047451       -0.91217586144740       -0.00174129667438
C           -3.61858098155070       -0.04359249181447       -0.00307478226060
C           -4.94902059332176       -0.48817671470124       -0.00265591633659
C           -0.26160003869061       -1.41275941206944       -0.00263657026661
N           -0.51761002685539       -2.70302061099653       -0.00341615664954
C            0.49261219727958       -3.58534405656865       -0.00479552334372
C            0.24972268412178       -4.96686658117703       -0.00652900304226
C            1.30255302591757       -5.85017393358513       -0.00852310193027
C            2.62386983581570       -5.38848706534747       -0.00865552720131
C            2.89765385439174       -4.04170662451272       -0.00681859359504
C            1.84729447340953       -3.11198288595790       -0.00493797845005
N            2.08809928413884       -1.79251696584845       -0.00368554499243
C            1.08418882563695       -0.94251505296529       -0.00277159433907
C            1.35414171806849        0.47955006293281       -0.00264411116083
N            2.59962155903241        0.90283058534092       -0.00215712675855
C            2.85847073675376        2.21893889483600       -0.00323641069396
C            4.17626172537355        2.69957150057240       -0.00298827228621
C            4.41482245011679        4.05299447833346       -0.00475206060093
C            3.35435450561180        4.96647853387980       -0.00675139849945
C            2.05119194827966        4.53000957572906       -0.00681692818348
C            1.77120620994119        3.15548863939711       -0.00504539279240
N            0.50802911190523        2.70437084169069       -0.00504972886777
C            0.27406612182186        1.40991069325006       -0.00381672920715
H           -7.00057339854871        0.07608330181613       -0.00488743470875
H           -6.54099971443778        2.49467924304473       -0.00976567121891
H           -4.20374581948585        3.32296634967138       -0.00983717805072
H           -5.12922477420138       -1.55175304503216       -0.00065542226272
H           -0.77553675697852       -5.30224783405550       -0.00642627620936
H            1.11091093841566       -6.91226580562260       -0.01004627894330
H            3.43513818337527       -6.10026363224592       -0.01026776646152
H            3.90877790646018       -3.66580607575218       -0.00691970174603
H            4.97960035673590        1.97962742668704       -0.00153659001381
H            5.43044396446786        4.41804215355422       -0.00467666820195
H            3.56523159747649        6.02492804771288       -0.00821867787479
H            1.21996076747391        5.21756574025082       -0.00824741538625

          :  Hamiltonian                  GFN2-xTB          :
         :: gradient norm              0.000068736180 Eh/a0 ::
         :: HOMO-LUMO gap              0.179669741070 eV    ::
         :: SCC energy               -76.341482368427 Eh    ::
         :: -> dispersion             -0.057068974522 Eh    ::
         :: -> Gsolv                  -0.039903946592 Eh    ::
         :: repulsion energy           1.282408417136 Eh    ::

    * Orbital Energies and Occupations

         #    Occupation            Energy/Eh            Energy/eV
      -------------------------------------------------------------
         1        2.0000           -0.7005126             -19.0619
       ...           ...                  ...                  ...
        58        2.0000           -0.4468362             -12.1590
        59        2.0000           -0.4390922             -11.9483
        60        2.0000           -0.4390862             -11.9481
        61        2.0000           -0.4341677             -11.8143
        62        2.0000           -0.4316064             -11.7446
        63        2.0000           -0.4316040             -11.7445
        64        2.0000           -0.4129893             -11.2380
        65        2.0000           -0.4121532             -11.2153
        66        2.0000           -0.4121525             -11.2152
        67        1.8327           -0.3739249             -10.1750
        68        1.8324           -0.3739228             -10.1750
        69        1.3348           -0.3717479             -10.1158
        70        0.9577           -0.3268469              -8.8940 (HOMO)
        71        0.0212           -0.3202441              -8.7143 (LUMO)
        72        0.0211           -0.3202399              -8.7142
        73                         -0.2589909              -7.0475
        74                         -0.2589896              -7.0475
        75                         -0.2395196              -6.5177
        76                         -0.2279196              -6.2020
        77                         -0.2235806              -6.0839
        78                         -0.2235783              -6.0839
        79                         -0.1858123              -5.0562
        80                         -0.1858112              -5.0562
        81                         -0.1325388              -3.6066
       ...                                ...                  ...
       132                          0.7095931              19.3090
      -------------------------------------------------------------
                  HL-Gap            0.0066028 Eh            0.1797 eV

     #   Z          covCN         q      C6AA      α(0)
     1   6 C        2.916    -0.024    28.615     8.772
     2   6 C        2.916    -0.025    28.615     8.772
     3   6 C        2.916    -0.044    29.086     8.844
     4   6 C        2.955     0.084    26.120     8.383
     5   7 N        1.849    -0.222    26.681     7.656
     6   6 C        2.949     0.080    26.222     8.399
     7   6 C        2.949     0.080    26.222     8.399
     8   7 N        1.849    -0.222    26.682     7.656
     9   6 C        2.955     0.084    26.120     8.383
    10   6 C        2.916    -0.044    29.086     8.844
    11   6 C        2.949     0.080    26.222     8.399
    12   7 N        1.849    -0.222    26.682     7.656
    13   6 C        2.955     0.084    26.120     8.383
    14   6 C        2.916    -0.044    29.086     8.844
    15   6 C        2.916    -0.024    28.615     8.772
    16   6 C        2.916    -0.024    28.615     8.772
    17   6 C        2.916    -0.044    29.086     8.844
    18   6 C        2.955     0.084    26.119     8.383
    19   7 N        1.849    -0.222    26.681     7.656
    20   6 C        2.949     0.080    26.222     8.399
    21   6 C        2.949     0.080    26.222     8.399
    22   7 N        1.849    -0.222    26.682     7.656
    23   6 C        2.955     0.084    26.120     8.383
    24   6 C        2.916    -0.044    29.086     8.844
    25   6 C        2.916    -0.025    28.616     8.772
    26   6 C        2.916    -0.024    28.615     8.772
    27   6 C        2.916    -0.044    29.086     8.844
    28   6 C        2.955     0.084    26.120     8.383
    29   7 N        1.849    -0.222    26.682     7.656
    30   6 C        2.949     0.080    26.222     8.399
    31   1 H        0.926     0.062     2.177     2.307
    32   1 H        0.926     0.062     2.177     2.307
    33   1 H        0.926     0.064     2.152     2.294
    34   1 H        0.926     0.064     2.152     2.294
    35   1 H        0.926     0.064     2.152     2.294
    36   1 H        0.926     0.062     2.177     2.307
    37   1 H        0.926     0.062     2.177     2.307
    38   1 H        0.926     0.064     2.152     2.294
    39   1 H        0.926     0.064     2.153     2.294
    40   1 H        0.926     0.062     2.177     2.307
    41   1 H        0.926     0.062     2.177     2.307
    42   1 H        0.926     0.064     2.152     2.294

molecular dipole:
                 x           y           z       tot (Debye)
 q only:       -0.000      -0.000      -0.003
   full:       -0.000      -0.000      -0.003       0.007

 projected vibrational frequencies (cm⁻¹)
eigval :       -0.00    -0.00     0.00     0.00     0.00     0.00
eigval :       27.30    33.03    40.39    57.87    95.37    95.89
eigval :      101.22   105.55   186.07   187.80   205.34   260.84
eigval :      270.38   271.54   275.63   276.18   301.60   302.41
eigval :      359.91   415.92   417.80   430.47   431.33   442.21
eigval :      442.68   454.44   490.47   490.76   500.54   515.81
eigval :      516.45   517.27   560.63   561.08   565.19   594.96
eigval :      595.28   614.33   641.17   642.97   701.16   701.77
eigval :      721.69   722.78   735.98   764.16   764.22   764.73
eigval :      794.16   794.49   818.55   839.94   854.18   854.30
eigval :      858.07   859.03   859.78   901.74   902.32   902.51
eigval :      903.06   918.85   918.92   919.14  1051.79  1052.69
eigval :     1061.49  1070.63  1070.71  1124.79  1125.67  1134.11
eigval :     1134.35  1135.69  1164.60  1167.39  1167.95  1222.47
eigval :     1224.77  1225.84  1243.40  1243.55  1272.91  1275.53
eigval :     1276.81  1301.32  1307.87  1310.00  1315.74  1333.29
eigval :     1336.43  1337.06  1346.89  1373.99  1374.56  1421.98
eigval :     1423.35  1427.02  1449.20  1449.44  1481.44  1500.15
eigval :     1515.41  1516.27  1526.89  1573.51  1573.64  1575.37
eigval :     3089.36  3089.70  3089.80  3094.57  3095.14  3095.17
eigval :     3102.08  3102.26  3102.35  3106.44  3106.84  3107.21

   temp. (K)  partition function   enthalpy   heat capacity  entropy
                                   cal/mol     cal/K/mol   cal/K/mol   J/K/mol
 298.15  VIB  0.343E+08            11610.710     79.429     68.700
         ROT  0.339E+07              888.752      2.981     32.862
         INT  0.116E+15            12499.463     82.410    101.562
         TR   0.729E+28             1481.254      4.968     43.712
         TOT                       13980.7166    87.3782   145.2734   607.8238

       T/K    H(0)-H(T)+PV         H(T)/Eh          T*S/Eh         G(T)/Eh
   ------------------------------------------------------------------------
    298.15    0.222797E-01    0.314957E+00    0.690241E-01    0.245933E+00
   ------------------------------------------------------------------------

         :::::::::::::::::::::::::::::::::::::::::::::::::::::
         ::                  THERMODYNAMIC                  ::
         :::::::::::::::::::::::::::::::::::::::::::::::::::::
         :: total free energy         -74.813140911212 Eh   ::
         ::.................................................::
         :: total energy              -75.059073951309 Eh   ::
         :: zero point energy           0.292677414566 Eh   ::
         :: G(RRHO) w/o ZPVE           -0.046744374468 Eh   ::
         :: G(RRHO) contrib.            0.245933040098 Eh   ::
         :::::::::::::::::::::::::::::::::::::::::::::::::::::

           -------------------------------------------------
          | TOTAL ENERGY              -75.059073951309 Eh   |
          | TOTAL ENTHALPY            -74.744116846691 Eh   |
          | TOTAL FREE ENERGY         -74.813140911212 Eh   |
          | GRADIENT NORM               0.000070855996 Eh/α |
          | HOMO-LUMO GAP               0.179670901304 eV   |
           -------------------------------------------------

 * finished run on 2025/07/17 at 00:47:01.103
