   * xtb version 6.7.1 (edcfbbe) compiled by 'albert@albert-system' on 2024-07-22

   ID    Z sym.   atoms
    1    6 C      1-4, 6, 7, 9-11, 13-18, 20, 21, 23-28, 30
    2    7 N      5, 8, 12, 19, 22, 29
    3    1 H      31-42

          program call               : xtb data2507/toluene/DQP/DQP_toluene_T1_crest.xyz --gfn 2 --uhf 2 --gbsa toluene --ohess vtight --parallel 40 --molden --ceasefiles --namespace data2507/toluene/DQP/DQP_toluene_T1_finalOpt
      * Solvation model:               GBSA
        Solvent                        toluene
        Solvent mass                       9.2140E+01 g/mol
          :  Hamiltonian                  GFN2-xTB          :
 * total energy  :   -75.0589864 Eh     change       -0.8477571E-08 Eh
 * total energy  :   -75.0590257 Eh     change       -0.3930388E-04 Eh
 * total energy  :   -75.0590296 Eh     change       -0.3924693E-05 Eh
 * total energy  :   -75.0590298 Eh     change       -0.1692931E-06 Eh
 * total energy  :   -75.0590299 Eh     change       -0.1141947E-06 Eh
 * total energy  :   -75.0590299 Eh     change        0.4302061E-07 Eh
 * total energy  :   -75.0590299 Eh     change       -0.8402806E-07 Eh
   *** GEOMETRY OPTIMIZATION CONVERGED AFTER 7 ITERATIONS ***

 final structure:
================
42
 xtb: 6.7.1 (edcfbbe)
C           -4.41236275850270       -4.05595333788411       -0.00000366649572
C           -5.23274541167307       -2.92199315845381        0.00037687979473
C           -4.68773713488391       -1.66035437950958        0.00049446614787
C           -3.29450450043073       -1.49754483561027        0.00028169442890
N           -2.73805917184880       -0.27704071862448        0.00076797492148
C           -1.42846234660192       -0.15341514061025        0.00037802361114
C           -0.59291351580580       -1.30844899096087       -0.00072714318963
N           -1.12011577180479       -2.51359726949587       -0.00097594762145
C           -2.45341237853340       -2.66019627208495       -0.00038704532956
C           -3.04357801913486       -3.93271799364782       -0.00043522662586
C            0.84691202134654       -1.16000999296186       -0.00110842474075
N            1.60898406979564       -2.23215394946974       -0.00114059017989
C            2.94409526970550       -2.10377949370475       -0.00035587171648
C            3.78141112871662       -3.22918226949270       -0.00005092046344
C            5.14652784154153       -3.07045575226341        0.00196930866609
C            5.71835044777959       -1.79295389663076        0.00362385700809
C            4.92745649244530       -0.66902251661363        0.00288944746191
C            3.53034306167169       -0.79400752151008        0.00070867505790
N            2.73657725273450        0.28726997764708       -0.00023731061226
C            1.42933269450463        0.14110038713798       -0.00119903128146
C            0.58091020220736        1.31381926616651       -0.00171108733478
N            1.12896634058848        2.50958346061342       -0.00393810876236
C            0.35022421618541        3.60177145007932       -0.00268778787843
C            0.90616394048524        4.88960246067625       -0.00540280971801
C            0.08648144662766        5.99268814545533       -0.00248410672283
C           -1.30578998178865        5.84938825299192        0.00329854153224
C           -1.88373030744848        4.60249412773011        0.00542064175374
C           -1.07718391778632        3.45484579751270        0.00212828559735
N           -1.61719938306520        2.22696432002985        0.00306874665228
C           -0.83712074848341        1.16776677309688        0.00068850014994
H           -4.86233792360948       -5.03689950275044        0.00003867617483
H           -6.30519807062784       -3.04253375872487        0.00055899035075
H           -5.30274916257642       -0.77411368900970        0.00077665370668
H           -2.39399948418097       -4.79398474014682       -0.00079569545510
H            3.32095529805786       -4.20471115441238       -0.00120556319762
H            5.78704918443949       -3.93908042712957        0.00233040438388
H            6.79282103123388       -1.69190293004095        0.00543246523702
H            5.34864869756164        0.32406075095925        0.00399391750735
H            1.98116444647268        4.97879242584748       -0.00955867293307
H            0.51882719004654        6.98152753463804       -0.00445318760008
H           -1.93029165190904        6.72959978744562        0.00600130999667
H           -2.95437448855200        4.47072237001590        0.00948813321793

          :  Hamiltonian                  GFN2-xTB          :
         :: gradient norm              0.000116794973 Eh/a0 ::
         :: HOMO-LUMO gap              0.179814249455 eV    ::
         :: SCC energy               -76.341469066526 Eh    ::
         :: -> dispersion             -0.057069823111 Eh    ::
         :: -> Gsolv                  -0.039860550658 Eh    ::
         :: repulsion energy           1.282439123358 Eh    ::

    * Orbital Energies and Occupations

         #    Occupation            Energy/Eh            Energy/eV
      -------------------------------------------------------------
         1        2.0000           -0.7005176             -19.0621
       ...           ...                  ...                  ...
        58        2.0000           -0.4468356             -12.1590
        59        2.0000           -0.4391022             -11.9486
        60        2.0000           -0.4390933             -11.9483
        61        2.0000           -0.4341737             -11.8145
        62        2.0000           -0.4316076             -11.7446
        63        2.0000           -0.4316058             -11.7446
        64        2.0000           -0.4129911             -11.2381
        65        2.0000           -0.4121595             -11.2154
        66        2.0000           -0.4121527             -11.2152
        67        1.8326           -0.3739370             -10.1753
        68        1.8323           -0.3739348             -10.1753
        69        1.3351           -0.3717617             -10.1162
        70        0.9578           -0.3268538              -8.8941 (HOMO)
        71        0.0212           -0.3202457              -8.7143 (LUMO)
        72        0.0210           -0.3202397              -8.7142
        73                         -0.2589898              -7.0475
        74                         -0.2589849              -7.0473
        75                         -0.2395176              -6.5176
        76                         -0.2279275              -6.2022
        77                         -0.2235888              -6.0842
        78                         -0.2235854              -6.0841
        79                         -0.1858158              -5.0563
        80                         -0.1858088              -5.0561
        81                         -0.1325337              -3.6064
       ...                                ...                  ...
       132                          0.7096075              19.3094
      -------------------------------------------------------------
                  HL-Gap            0.0066081 Eh            0.1798 eV

     #   Z          covCN         q      C6AA      α(0)
     1   6 C        2.916    -0.025    28.615     8.772
     2   6 C        2.916    -0.025    28.616     8.772
     3   6 C        2.916    -0.044    29.086     8.844
     4   6 C        2.955     0.084    26.120     8.383
     5   7 N        1.849    -0.222    26.682     7.656
     6   6 C        2.949     0.080    26.222     8.399
     7   6 C        2.949     0.080    26.222     8.399
     8   7 N        1.849    -0.222    26.682     7.656
     9   6 C        2.955     0.084    26.120     8.383
    10   6 C        2.916    -0.044    29.086     8.844
    11   6 C        2.949     0.080    26.222     8.399
    12   7 N        1.849    -0.222    26.681     7.656
    13   6 C        2.955     0.084    26.120     8.383
    14   6 C        2.916    -0.044    29.086     8.844
    15   6 C        2.916    -0.024    28.615     8.772
    16   6 C        2.916    -0.024    28.615     8.772
    17   6 C        2.916    -0.044    29.086     8.844
    18   6 C        2.955     0.084    26.120     8.383
    19   7 N        1.849    -0.222    26.681     7.655
    20   6 C        2.949     0.080    26.221     8.399
    21   6 C        2.949     0.080    26.221     8.399
    22   7 N        1.849    -0.222    26.682     7.656
    23   6 C        2.955     0.084    26.120     8.383
    24   6 C        2.916    -0.044    29.086     8.844
    25   6 C        2.916    -0.025    28.615     8.772
    26   6 C        2.916    -0.024    28.615     8.772
    27   6 C        2.916    -0.044    29.086     8.844
    28   6 C        2.955     0.084    26.120     8.383
    29   7 N        1.849    -0.222    26.683     7.656
    30   6 C        2.949     0.080    26.222     8.399
    31   1 H        0.926     0.062     2.177     2.307
    32   1 H        0.926     0.062     2.177     2.307
    33   1 H        0.926     0.064     2.152     2.294
    34   1 H        0.926     0.064     2.152     2.294
    35   1 H        0.926     0.064     2.152     2.294
    36   1 H        0.926     0.062     2.177     2.307
    37   1 H        0.926     0.062     2.177     2.307
    38   1 H        0.926     0.064     2.152     2.294
    39   1 H        0.926     0.064     2.152     2.294
    40   1 H        0.926     0.062     2.177     2.307
    41   1 H        0.926     0.062     2.177     2.307
    42   1 H        0.926     0.064     2.152     2.294

molecular dipole:
                 x           y           z       tot (Debye)
 q only:        0.001      -0.001       0.001
   full:        0.001      -0.001       0.001       0.005

 projected vibrational frequencies (cm⁻¹)
eigval :       -0.00    -0.00    -0.00     0.00     0.00     0.00
eigval :       24.89    29.56    38.34    55.67    94.49    94.72
eigval :       99.79   103.95   185.10   187.08   204.08   259.74
eigval :      269.41   271.38   275.22   275.34   300.43   301.24
eigval :      359.02   416.00   416.80   430.28   430.61   441.47
eigval :      441.92   453.77   489.98   490.07   500.15   514.95
eigval :      515.32   516.12   559.88   560.19   564.57   594.50
eigval :      594.63   613.87   640.97   642.87   701.00   701.57
eigval :      721.64   722.59   736.13   761.87   762.51   762.81
eigval :      793.77   793.94   818.30   839.48   853.78   853.87
eigval :      856.67   857.50   859.08   900.53   901.29   901.45
eigval :      901.58   916.96   917.21   917.43  1050.65  1050.90
eigval :     1059.71  1070.21  1070.28  1124.44  1124.89  1132.31
eigval :     1132.46  1132.81  1161.67  1164.67  1165.07  1220.51
eigval :     1223.03  1223.16  1243.08  1243.33  1272.39  1275.42
eigval :     1275.70  1300.33  1308.00  1308.61  1315.68  1332.57
eigval :     1336.03  1336.31  1346.75  1373.25  1373.70  1420.93
eigval :     1422.95  1426.27  1448.78  1448.82  1481.07  1500.01
eigval :     1515.26  1515.42  1526.53  1573.09  1573.22  1574.98
eigval :     3089.28  3089.35  3089.41  3094.12  3094.89  3094.92
eigval :     3101.08  3101.84  3102.03  3105.96  3106.38  3106.70

   temp. (K)  partition function   enthalpy   heat capacity  entropy
                                   cal/mol     cal/K/mol   cal/K/mol   J/K/mol
 298.15  VIB  0.481E+08            11649.892     79.377     69.023
         ROT  0.339E+07              888.752      2.981     32.862
         INT  0.163E+15            12538.645     82.358    101.885
         TR   0.729E+28             1481.254      4.968     43.712
         TOT                       14019.8987    87.3259   145.5969   609.1775

       T/K    H(0)-H(T)+PV         H(T)/Eh          T*S/Eh         G(T)/Eh
   ------------------------------------------------------------------------
    298.15    0.223421E-01    0.314774E+00    0.691778E-01    0.245596E+00
   ------------------------------------------------------------------------

         :::::::::::::::::::::::::::::::::::::::::::::::::::::
         ::                  THERMODYNAMIC                  ::
         :::::::::::::::::::::::::::::::::::::::::::::::::::::
         :: total free energy         -74.813434158390 Eh   ::
         ::.................................................::
         :: total energy              -75.059029943965 Eh   ::
         :: zero point energy           0.292431451865 Eh   ::
         :: G(RRHO) w/o ZPVE           -0.046835666290 Eh   ::
         :: G(RRHO) contrib.            0.245595785576 Eh   ::
         :::::::::::::::::::::::::::::::::::::::::::::::::::::

           -------------------------------------------------
          | TOTAL ENERGY              -75.059029943965 Eh   |
          | TOTAL ENTHALPY            -74.744256361454 Eh   |
          | TOTAL FREE ENERGY         -74.813434158390 Eh   |
          | GRADIENT NORM               0.000116726085 Eh/α |
          | HOMO-LUMO GAP               0.179815301248 eV   |
           -------------------------------------------------

 * finished run on 2025/07/17 at 00:48:15.138
