   * xtb version 6.7.1 (edcfbbe) compiled by 'albert@albert-system' on 2024-07-22

   ID    Z sym.   atoms
    1    6 C      1-20, 22-25, 27-31, 33, 34, 36-56
    2    7 N      21, 32, 35
    3    8 O      26
    4    1 H      57-111

          program call               : xtb data2507/gas/2BPy-mDTC/2BPy-mDTC_gas_T1_crest.xyz --gfn 2 --spinpol --tblite --uhf 2 --ohess vtight --parallel 40 --molden --ceasefiles --namespace data2507/gas/2BPy-mDTC/2BPy-mDTC_gas_T1_finalOpt
 * total energy  :  -152.3024067 Eh     change       -0.7357227E-07 Eh
 * total energy  :  -152.3024313 Eh     change       -0.2458460E-04 Eh
 * total energy  :  -152.3024401 Eh     change       -0.8874453E-05 Eh
 * total energy  :  -152.3024414 Eh     change       -0.1207862E-05 Eh
 * total energy  :  -152.3024426 Eh     change       -0.1198280E-05 Eh
 * total energy  :  -152.3024434 Eh     change       -0.8969642E-06 Eh
 * total energy  :  -152.3024445 Eh     change       -0.1090628E-05 Eh
 * total energy  :  -152.3024454 Eh     change       -0.8729032E-06 Eh
 * total energy  :  -152.3024461 Eh     change       -0.7081458E-06 Eh
 * total energy  :  -152.3024466 Eh     change       -0.4705788E-06 Eh
 * total energy  :  -152.3024493 Eh     change       -0.5476537E-06 Eh
 * total energy  :  -152.3024497 Eh     change       -0.4019931E-06 Eh
 * total energy  :  -152.3024501 Eh     change       -0.4623229E-06 Eh
 * total energy  :  -152.3024506 Eh     change       -0.4505869E-06 Eh
 * total energy  :  -152.3024510 Eh     change       -0.4186482E-06 Eh
 * total energy  :  -152.3024514 Eh     change       -0.4181467E-06 Eh
 * total energy  :  -152.3024514 Eh     change        0.2852559E-07 Eh
 * total energy  :  -152.3024516 Eh     change       -0.1964716E-06 Eh
 * total energy  :  -152.3024517 Eh     change       -0.7715272E-07 Eh
   *** GEOMETRY OPTIMIZATION CONVERGED AFTER 22 ITERATIONS ***

 final structure:
================
111
 xtb: 6.7.1 (edcfbbe)
C            8.74967348987386        0.48447113812710       -1.61130314349536
C            7.62716127556715        1.30591937520173       -2.25159468461185
C            7.98435927706952        2.79235857381839       -2.10952375618747
C            7.54932212155690        0.92889503878087       -3.73793310689565
C            6.27514991790186        1.05668870954163       -1.60074822027623
C            5.15405873358718        1.74361386760248       -2.08576240305693
C            3.89078216218248        1.59141796757014       -1.55183325315011
C            3.73923146937536        0.72417039062321       -0.48001882262731
C            4.84634356705668        0.00050782220528        0.01089263050473
C            6.10492454013842        0.17075736729286       -0.54701878971286
C            4.34983575544602       -0.83072592958465        1.07528511457016
C            4.96037241467573       -1.73512194111009        1.93114165690452
C            4.20669997567351       -2.38395313148283        2.89845311516011
C            4.80769378441106       -3.39229019253042        3.86588808235255
C            6.30421369204750       -3.61462305521447        3.63034686310734
C            4.62183695350891       -2.88429549110779        5.30278587859749
C            4.09377160722416       -4.74080231717317        3.69409404621906
C            2.84084825352194       -2.08661167360082        2.99269042353362
C            2.20784467055042       -1.19147212834630        2.15426939983772
C            2.96544205670346       -0.57168797020756        1.17141587735658
N            2.60558016780801        0.36278715449002        0.22178370299501
C            1.32385710424769        0.88641272401329        0.02399860585946
C            1.15527366811701        2.25979023257594       -0.06286502769938
C           -0.11960554431105        2.80931054342348       -0.24495667763944
C           -0.22581365345044        4.27204335258417       -0.29397364311235
O            0.80565311975272        4.97514663813441       -0.43748074749364
C           -1.52125708785827        4.88472680469359       -0.12350937773918
C           -1.60260377381270        6.30137443385199       -0.15327184262067
C           -2.81394385103285        6.90155007193998        0.04398616163659
C           -3.95512829247740        6.11763920300273        0.27775631523849
C           -3.79464132567225        4.74442545100265        0.29719007297885
N           -2.62713019721220        4.17572667900975        0.10508212595735
C           -1.20735226901223        1.94810145328678       -0.38575031163826
C           -1.04383626689027        0.57555586981787       -0.24107241725364
N           -2.16326781643020       -0.25439805910044       -0.33895956327092
C           -3.37315088477918       -0.02821222349711        0.28823028995561
C           -3.74400231617525        0.96208861452088        1.18613116965309
C           -5.03213081780227        0.93464466648631        1.68065430074270
C           -5.96582221489197       -0.04772401661714        1.32431508710069
C           -7.36479082152529        0.01941762849301        1.91818865248823
C           -8.01225386430248        1.35613135861400        1.52858282439201
C           -7.26869298266066       -0.08610647691527        3.44686885303176
C           -8.27111689639812       -1.10944199204297        1.41951514768482
C           -5.57257246293474       -1.04918738263640        0.44878435703462
C           -4.28418623267444       -1.04549316110728       -0.06566149468962
C           -3.58278501583282       -1.92510559348030       -0.96280356713367
C           -3.95721293312446       -3.07451052039546       -1.64276116995891
C           -3.04818833902699       -3.70657355114347       -2.47822547031385
C           -3.38705726112776       -4.97359790573282       -3.24883688465570
C           -2.41545408393963       -6.08816851218576       -2.83516134602085
C           -3.25413257751246       -4.69901215890291       -4.75354992296263
C           -4.81269865830069       -5.46301470518407       -2.97938700586637
C           -1.77245156689477       -3.14619817680316       -2.62399442426950
C           -1.37349257143029       -2.00406441587946       -1.95946102608461
C           -2.28141958902131       -1.39711263944311       -1.10482951203501
C            0.22280204169806        0.03336316090839       -0.04164268317432
H            8.86258236462182        0.73058393493930       -0.55800012853601
H            8.56121733677341       -0.58200633522296       -1.71172511440976
H            9.69080568510747        0.70685547004751       -2.11030748089707
H            7.25220527467771        3.42593288209446       -2.60181308654047
H            8.02242153787385        3.07029061316530       -1.05828887099977
H            8.95794538484353        2.98790532388906       -2.55422108936667
H            8.51599209369245        1.08078489106657       -4.21361126059188
H            6.81416548213528        1.53205630712983       -4.26299144472360
H            7.27164788321439       -0.11766569908101       -3.84612105162993
H            5.26905149804064        2.42513131920744       -2.91430106181933
H            3.05227264786041        2.13242835912409       -1.96210284207124
H            6.92877509771721       -0.39616714297401       -0.14681082645604
H            6.01788775972717       -1.91127648863576        1.82744003794013
H            6.86441241467219       -2.69373815821623        3.77459792558554
H            6.67756208288542       -4.34857268095687        4.34175478829266
H            6.49049852968153       -3.99390121261889        2.62819196911863
H            3.57045228561476       -2.77081248884872        5.55147620266628
H            5.10677666302463       -1.91799274305271        5.42491683683137
H            5.06459562191128       -3.58476671899041        6.00781853324158
H            3.03310996905191       -4.66038852200765        3.91469658536563
H            4.52530891002582       -5.48096546093564        4.36467041513680
H            4.20310206817245       -5.09595913674132        2.67139169982130
H            2.24602568459258       -2.56778012080192        3.75387728961591
H            1.15810690567050       -0.97333768347546        2.27847342544594
H            1.99647383938443        2.92640606264528        0.04479830798341
H           -0.68687333560270        6.84374102472366       -0.33286894355244
H           -2.89860230807369        7.97853329199085        0.02073730076724
H           -4.92336596941743        6.56275868344915        0.43658989737005
H           -4.62611158694992        4.07280850409277        0.47065535099274
H           -2.18169971007815        2.33950320208643       -0.63104517809348
H           -3.05285794895204        1.73087626269145        1.49472184359772
H           -5.31862093636983        1.70850559941733        2.37650003053529
H           -9.02532375236050        1.41024716686491        1.92167717562297
H           -7.45119534041848        2.19931448240887        1.92169721925349
H           -8.05673086060529        1.45027616691991        0.44541738126924
H           -6.68651670802802        0.72980083643062        3.86589142618869
H           -6.79349756352718       -1.02330042444014        3.72924860569167
H           -8.26298440601593       -0.05633615258963        3.88764314861171
H           -9.25762930785569       -1.00648764903396        1.86713465340961
H           -8.38708300926732       -1.06954843327815        0.33886037153452
H           -7.87585391972581       -2.08257327473490        1.70147982309860
H           -6.24402275325926       -1.83891622471531        0.15602134113321
H           -4.95735674834017       -3.45119390931944       -1.50867443030550
H           -1.38663364484227       -5.82355725974640       -3.06235721630272
H           -2.49109234527591       -6.27439374804399       -1.76577120052144
H           -2.65451713014279       -7.00857971920476       -3.36374189048606
H           -2.23984456320349       -4.41330448299260       -5.01753132750093
H           -3.92270239041196       -3.89287479641910       -5.04858387535672
H           -3.51527257933342       -5.58969834733211       -5.32119191588652
H           -4.95553737094529       -5.69118622872236       -1.92563060448955
H           -4.99662750434524       -6.37268177012066       -3.54754337644303
H           -5.54615639373882       -4.72168163260837       -3.28794465734118
H           -1.06110734132970       -3.61566794293252       -3.28600051770751
H           -0.38818294862672       -1.59362044633832       -2.11914413266590
H            0.35079040879137       -1.03275289494187        0.05552029513932

 projected vibrational frequencies (cm⁻¹)
eigval :       -0.00    -0.00    -0.00     0.00     0.00     0.00
eigval :        9.49    10.97    12.75    16.84    25.22    29.99
eigval :       30.72    31.04    33.66    33.70    44.51    52.80
eigval :       60.49    62.80    65.70    68.34    83.09    86.44
eigval :       91.45   107.19   118.88   138.26   147.98   153.46
eigval :      157.82   159.73   168.52   175.08   181.82   184.62
eigval :      188.80   200.90   201.92   202.14   217.24   219.30
eigval :      220.19   222.86   228.28   230.45   234.73   246.30
eigval :      252.46   258.76   260.00   278.12   283.20   289.48
eigval :      300.20   316.99   318.10   318.71   322.41   322.77
eigval :      333.02   337.96   341.48   347.11   351.45   359.05
eigval :      359.34   365.45   370.38   377.44   381.93   386.75
eigval :      395.37   398.01   398.93   408.88   409.72   425.28
eigval :      440.77   442.05   442.29   442.78   461.65   463.05
eigval :      463.68   465.11   466.15   469.51   498.56   511.80
eigval :      515.18   536.67   539.59   570.76   576.66   581.51
eigval :      585.62   586.59   593.42   598.96   607.01   624.21
eigval :      630.94   638.08   641.13   641.34   654.37   661.60
eigval :      670.30   690.07   690.23   701.97   708.57   709.58
eigval :      718.48   721.60   746.53   766.23   783.59   805.76
eigval :      819.30   823.37   824.52   831.72   832.15   833.93
eigval :      844.81   853.51   865.82   871.10   873.15   873.64
eigval :      873.81   876.00   881.68   888.12   893.65   904.19
eigval :      914.93   917.52   918.30   920.19   924.28   926.95
eigval :      932.82   933.85   953.63   960.30   960.33   960.42
eigval :      960.46   962.89   962.94   963.21   963.26   963.27
eigval :      963.28   963.35   963.38   987.82  1028.09  1030.52
eigval :     1033.51  1034.83  1035.31  1035.42  1035.48  1035.52
eigval :     1037.52  1039.77  1044.13  1047.25  1064.44  1111.28
eigval :     1113.81  1114.93  1126.72  1130.10  1130.92  1138.92
eigval :     1143.86  1157.08  1170.94  1172.61  1190.21  1191.80
eigval :     1217.07  1218.73  1227.21  1227.37  1227.37  1227.50
eigval :     1230.22  1231.35  1231.64  1232.13  1234.79  1235.17
eigval :     1236.37  1236.96  1246.90  1255.74  1262.31  1282.93
eigval :     1284.16  1296.20  1300.54  1302.58  1305.03  1329.19
eigval :     1335.49  1339.15  1346.74  1348.96  1349.40  1351.56
eigval :     1369.07  1380.53  1401.92  1402.09  1403.03  1404.62
eigval :     1404.76  1405.81  1405.90  1406.02  1406.05  1410.49
eigval :     1411.01  1421.81  1427.12  1428.90  1428.92  1429.05
eigval :     1429.07  1445.49  1451.98  1471.83  1473.56  1474.03
eigval :     1481.60  1481.92  1488.68  1491.68  1491.92  1491.93
eigval :     1492.08  1494.32  1494.46  1494.60  1494.71  1500.92
eigval :     1500.94  1501.04  1501.21  1504.99  1505.25  1505.26
eigval :     1505.45  1514.88  1514.90  1515.09  1515.15  1519.87
eigval :     1519.95  1520.65  1520.75  1523.68  1526.38  1561.68
eigval :     1565.51  1567.19  1578.14  1579.45  1589.95  1591.93
eigval :     1605.72  1610.44  3021.90  3022.16  3022.16  3022.34
eigval :     3023.52  3023.72  3023.75  3023.96  3027.17  3027.21
eigval :     3027.36  3027.48  3030.20  3030.31  3030.49  3030.76
eigval :     3031.33  3031.55  3031.63  3031.74  3035.75  3035.80
eigval :     3036.02  3036.14  3038.61  3038.72  3038.89  3039.05
eigval :     3045.26  3047.01  3048.07  3048.24  3049.35  3050.45
eigval :     3051.31  3051.52  3052.90  3070.65  3083.77  3084.64
eigval :     3086.13  3089.69  3091.25  3092.70  3095.64  3096.39
eigval :     3099.73  3100.70  3106.94  3108.27  3109.75  3116.34
eigval :     3116.58  3120.12  3120.18

   temp. (K)  partition function   enthalpy   heat capacity  entropy
                                   cal/mol     cal/K/mol   cal/K/mol   J/K/mol
 298.15  VIB  0.105E+26            32271.923    197.280    200.124
         ROT  0.159E+09              888.752      2.981     40.507
         INT  0.168E+34            33160.676    200.261    240.632
         TR   0.194E+29             1481.254      4.968     45.655
         TOT                       34641.9298   205.2288   286.2868  1197.8239

       T/K    H(0)-H(T)+PV         H(T)/Eh          T*S/Eh         G(T)/Eh
   ------------------------------------------------------------------------
    298.15    0.552054E-01    0.974235E+00    0.136024E+00    0.838211E+00
   ------------------------------------------------------------------------

         :::::::::::::::::::::::::::::::::::::::::::::::::::::
         ::                  THERMODYNAMIC                  ::
         :::::::::::::::::::::::::::::::::::::::::::::::::::::
         :: total free energy        -151.464240934271 Eh   ::
         ::.................................................::
         :: total energy             -152.302451669261 Eh   ::
         :: zero point energy           0.919029393528 Eh   ::
         :: G(RRHO) w/o ZPVE           -0.080818658538 Eh   ::
         :: G(RRHO) contrib.            0.838210734990 Eh   ::
         :::::::::::::::::::::::::::::::::::::::::::::::::::::

           -------------------------------------------------
          | TOTAL ENERGY             -152.302451669261 Eh   |
          | TOTAL ENTHALPY           -151.328216846672 Eh   |
          | TOTAL FREE ENERGY        -151.464240934271 Eh   |
          | GRADIENT NORM               0.000082036104 Eh/α |
           -------------------------------------------------

 * finished run on 2025/09/08 at 03:05:13.638
