   * xtb version 6.7.1 (edcfbbe) compiled by 'albert@albert-system' on 2024-07-22

   ID    Z sym.   atoms
    1    6 C      1-20, 22-25, 27-31, 33, 34, 36-56
    2    7 N      21, 32, 35
    3    8 O      26
    4    1 H      57-111

          program call               : xtb data2507/gas/2BPy-mDTC/2BPy-mDTC.xyz --gfn 2 --ohess vtight --parallel 40 --molden --ceasefiles --namespace data2507/gas/2BPy-mDTC/2BPy-mDTC_gas_S0_preOpt
          :  Hamiltonian                  GFN2-xTB          :
 * total energy  :  -152.3366753 Eh     change       -0.1010613E-07 Eh
 * total energy  :  -152.3536354 Eh     change       -0.1696013E-01 Eh
 * total energy  :  -152.3587092 Eh     change       -0.5073802E-02 Eh
 * total energy  :  -152.3602397 Eh     change       -0.1530485E-02 Eh
 * total energy  :  -152.3611082 Eh     change       -0.8684734E-03 Eh
 * total energy  :  -152.3613668 Eh     change       -0.2585737E-03 Eh
 * total energy  :  -152.3614978 Eh     change       -0.1310389E-03 Eh
 * total energy  :  -152.3616009 Eh     change       -0.1031514E-03 Eh
 * total energy  :  -152.3616781 Eh     change       -0.7719503E-04 Eh
 * total energy  :  -152.3617317 Eh     change       -0.5356943E-04 Eh
 * total energy  :  -152.3620154 Eh     change       -0.5615694E-06 Eh
 * total energy  :  -152.3620160 Eh     change       -0.5702391E-06 Eh
 * total energy  :  -152.3620166 Eh     change       -0.5503325E-06 Eh
 * total energy  :  -152.3620170 Eh     change       -0.4836964E-06 Eh
 * total energy  :  -152.3620175 Eh     change       -0.4983889E-06 Eh
 * total energy  :  -152.3620182 Eh     change       -0.6128925E-06 Eh
 * total energy  :  -152.3620190 Eh     change       -0.8650754E-06 Eh
 * total energy  :  -152.3620201 Eh     change       -0.1077408E-05 Eh
 * total energy  :  -152.3620201 Eh     change       -0.3861857E-08 Eh
   *** GEOMETRY OPTIMIZATION CONVERGED AFTER 68 ITERATIONS ***

 final structure:
================
111
 xtb: 6.7.1 (edcfbbe)
C            8.71637614486659        0.77741072106164       -1.15568804825314
C            7.67003373096752        1.82397869190843       -1.54873409277657
C            8.12891033778448        3.18326397233839       -1.00215443129584
C            7.60095478179232        1.87562817815138       -3.08152667623408
C            6.28875691396311        1.50609215001449       -0.99491820692446
C            5.23093625469950        2.38186198498534       -1.27246092228961
C            3.94854325247939        2.18408482834823       -0.80218722524816
C            3.70981897806297        1.07100211629579       -0.01159318132296
C            4.74881774685552        0.15648881172302        0.25463945722386
C            6.02994255915666        0.37943515551505       -0.23202568643484
C            4.17131150718869       -0.90165561979032        1.03769810363819
C            4.69398527028906       -2.05346267500016        1.60269839964548
C            3.87797712041143       -2.89627734363886        2.34575085980054
C            4.47409464640442       -4.16225804854537        2.94526588360160
C            3.45076760664106       -4.99237746437935        3.72495407107388
C            5.03079325513009       -5.03717259340772        1.81287481746678
C            5.60626032892425       -3.77607436386145        3.90758580654257
C            2.53882441699187       -2.53944153303216        2.52279475564509
C            1.99123047136266       -1.39522636050898        1.97062405519251
C            2.80678506924821       -0.58036598192751        1.20428188795566
N            2.53594665454844        0.61656848602238        0.56442242168206
C            1.30101164797304        1.26406441194272        0.51069311581633
C            1.21352058380822        2.62794390870792        0.76433648360389
C           -0.01301224595691        3.28167252310893        0.67782537459126
C           -0.02792204949811        4.73681000635439        0.95519737955069
O            0.81254357441302        5.26358077051466        1.65727927927881
C           -1.10383641287465        5.56046302045511        0.32607124092980
C           -1.39265900759671        6.81337077626478        0.86643042737101
C           -2.36508724348838        7.58949077861748        0.26013881474265
C           -3.00573694877408        7.09324988160659       -0.86435227038041
C           -2.63977419707449        5.83600705487061       -1.32867609368918
N           -1.71900184962071        5.08865169974054       -0.75438144057303
C           -1.16485939795856        2.56311276941726        0.37878335376824
C           -1.08517150890792        1.19100015810237        0.15927403803559
N           -2.24332178491155        0.46220359397681       -0.12177149575707
C           -3.43902569109957        0.54958190487383        0.56854241039497
C           -3.77604694071339        1.28848800194469        1.68972743461624
C           -5.05545852526722        1.16048417254470        2.20012352741754
C           -6.01107064825646        0.31105064543658        1.63668795295167
C           -7.42035916636058        0.17882807798283        2.19712850321197
C           -7.64985417369054       -1.27399943358639        2.63733542267082
C           -8.43100926966919        0.55623571232275        1.10458132621137
C           -7.66955305532712        1.08551007007471        3.40548692166108
C           -5.65071982304502       -0.44837768821116        0.53115442061246
C           -4.37645760409007       -0.33886518532230       -0.00099925710159
C           -3.70923696229865       -0.98999887969469       -1.09550981603055
C           -4.11417383224196       -1.93705713945182       -2.02184282854479
C           -3.23211802739652       -2.37370645981295       -3.00160758960457
C           -3.69633951378204       -3.42663088563956       -3.99828589613807
C           -4.90168516885585       -2.88274294654338       -4.77826473202402
C           -4.10218388498094       -4.69410656890666       -3.23246483767969
C           -2.61186727727122       -3.81110860775284       -5.00838469902363
C           -1.95062754658563       -1.81826660184619       -3.03799372730263
C           -1.52063511234831       -0.87088234599285       -2.12620261548698
C           -2.39798368239231       -0.46873953488671       -1.13374042610498
C            0.14637758921937        0.54544681297451        0.21239600852865
H            8.81925244801406        0.71456485967667       -0.07482417896325
H            8.45594292088214       -0.20298375795159       -1.54796880253879
H            9.68310215196116        1.05812856740430       -1.56925479753562
H            7.45507613302539        3.98038538823474       -1.30325189923340
H            8.16193266913446        3.15842767984838        0.08513015907236
H            9.12407946124759        3.42053540399402       -1.37286870426082
H            8.58657841067487        2.08003987889280       -3.49480338051419
H            6.92207328558242        2.65218212636865       -3.42250627056320
H            7.25250275759262        0.92238693193605       -3.47389611776080
H            5.41199828542754        3.25366420962980       -1.88246305425662
H            3.16017509783524        2.87624152418342       -1.05671256350530
H            6.79973313974497       -0.33901584235604       -0.00482782059780
H            5.73987950710328       -2.27626838622793        1.45823289934298
H            2.63167327924742       -5.30833665986913        3.08297749624233
H            3.93337204537846       -5.88552313822475        4.11726010146842
H            3.05001630437496       -4.43176777604861        4.56630347597140
H            5.81157181200005       -4.52175230340797        1.26072125871566
H            4.23712100595749       -5.29865990148185        1.11594675338324
H            5.45045722672314       -5.95536198513897        2.21888376216773
H            6.03572559319947       -4.66775600266909        4.35982374977681
H            5.22321526564495       -3.13664564389231        4.70025286412812
H            6.39875545362419       -3.24057380356471        3.39242560266369
H            1.88901410639909       -3.16413491964508        3.11296718835038
H            0.95637714721584       -1.14781544647548        2.15385374356970
H            2.09031568223114        3.19354975563575        1.03905253463245
H           -0.85445365706861        7.14746082101709        1.73973769375577
H           -2.61590282954268        8.56381115926873        0.65389347149479
H           -3.76676915893764        7.66517442168326       -1.37200900462848
H           -3.10595819641441        5.40501032539226       -2.20532843931334
H           -2.11776862794959        3.05864160388543        0.30511577939252
H           -3.06256791670608        1.94094222163854        2.17058466904286
H           -5.30220581095789        1.74521943794231        3.07080310175232
H           -8.64734102405902       -1.38649278340617        3.05727271395260
H           -7.55313117604124       -1.96121012781420        1.80151155438796
H           -6.92188274715010       -1.55578416573734        3.39532733173331
H           -8.34453353531431       -0.09745425388893        0.24125593335759
H           -8.26252626302590        1.57939947694499        0.77473265446735
H           -9.44609309755525        0.47989283671563        1.48903085858859
H           -8.69294680851001        0.95349908484198        3.75150661730963
H           -7.00352990422444        0.83510028639234        4.22793706447870
H           -7.53663219226056        2.13278627855974        3.14374103707166
H           -6.34882463619417       -1.13378980348449        0.07573120368245
H           -5.12112309322749       -2.32142178285257       -1.96834325967286
H           -5.73257179023909       -2.65559993617221       -4.11622289076787
H           -4.62733792494925       -1.97108008451800       -5.30508416284565
H           -5.23862956463910       -3.61584579495696       -5.50836128169939
H           -4.91716579533654       -4.49642984482502       -2.54184583610200
H           -3.25736284201150       -5.07420619966940       -2.66173144657715
H           -4.42487098692479       -5.46638325906164       -3.92777555748641
H           -2.31066513211586       -2.95393019328153       -5.60611622072517
H           -3.00030192359025       -4.57063941659033       -5.68419192706115
H           -1.73849560508196       -4.22281282909608       -4.50786817524723
H           -1.25364083216537       -2.12336800101360       -3.80077851765034
H           -0.52862696959594       -0.45268734998140       -2.20654153710506
H            0.20618896069181       -0.51557947325276        0.02654581344719

          :  Hamiltonian                  GFN2-xTB          :
         :: gradient norm              0.000044145648 Eh/a0 ::
         :: HOMO-LUMO gap              1.459913327893 eV    ::
         :: SCC energy              -154.964130237655 Eh    ::
         :: -> dispersion             -0.138223626270 Eh    ::
         :: repulsion energy           2.602110139289 Eh    ::

    * Orbital Energies and Occupations

         #    Occupation            Energy/Eh            Energy/eV
      -------------------------------------------------------------
         1        2.0000           -0.7099413             -19.3185
       ...           ...                  ...                  ...
       130        2.0000           -0.4094574             -11.1419
       131        2.0000           -0.4060061             -11.0480
       132        2.0000           -0.4053818             -11.0310
       133        2.0000           -0.4043836             -11.0038
       134        2.0000           -0.4034879             -10.9795
       135        2.0000           -0.4022883             -10.9468
       136        2.0000           -0.3926864             -10.6855
       137        2.0000           -0.3912460             -10.6463
       138        2.0000           -0.3769400             -10.2571
       139        2.0000           -0.3721930             -10.1279
       140        2.0000           -0.3693605             -10.0508
       141        2.0000           -0.3550839              -9.6623
       142        2.0000           -0.3536167              -9.6224 (HOMO)
       143                         -0.2999659              -8.1625 (LUMO)
       144                         -0.2594331              -7.0595
       145                         -0.2463590              -6.7038
       146                         -0.2428206              -6.6075
       147                         -0.2369940              -6.4489
       148                         -0.2326355              -6.3303
       149                         -0.2160562              -5.8792
       150                         -0.2133538              -5.8057
       151                         -0.2009903              -5.4692
       152                         -0.1828533              -4.9757
       153                         -0.1811232              -4.9286
       ...                                ...                  ...
       279                          0.7504667              20.4212
      -------------------------------------------------------------
                  HL-Gap            0.0536508 Eh            1.4599 eV

     #   Z          covCN         q      C6AA      α(0)
     1   6 C        3.761    -0.107    22.584     6.774
     2   6 C        3.903     0.026    20.086     6.371
     3   6 C        3.762    -0.105    22.557     6.770
     4   6 C        3.761    -0.105    22.554     6.770
     5   6 C        2.973    -0.001    28.056     8.688
     6   6 C        2.931    -0.038    28.953     8.824
     7   6 C        2.909    -0.053    29.306     8.877
     8   6 C        3.076     0.043    26.956     8.512
     9   6 C        3.066    -0.019    28.411     8.740
    10   6 C        2.918    -0.043    29.076     8.842
    11   6 C        3.066    -0.018    28.396     8.738
    12   6 C        2.920    -0.039    28.977     8.828
    13   6 C        2.972    -0.002    28.063     8.689
    14   6 C        3.903     0.026    20.087     6.371
    15   6 C        3.761    -0.107    22.585     6.775
    16   6 C        3.762    -0.105    22.554     6.770
    17   6 C        3.762    -0.105    22.553     6.770
    18   6 C        2.928    -0.044    29.082     8.844
    19   6 C        2.909    -0.054    29.342     8.882
    20   6 C        3.073     0.043    26.971     8.515
    21   7 N        2.802    -0.043    22.065     6.977
    22   6 C        2.909     0.069    26.454     8.434
    23   6 C        2.929    -0.040    29.002     8.832
    24   6 C        2.971    -0.004    28.121     8.698
    25   6 C        2.830     0.225    23.281     7.907
    26   8 O        0.858    -0.362    20.938     6.135
    27   6 C        2.961     0.074    26.354     8.420
    28   6 C        2.919    -0.027    28.669     8.780
    29   6 C        2.926    -0.009    28.239     8.715
    30   6 C        2.915    -0.033    28.817     8.803
    31   6 C        2.908     0.062    26.602     8.457
    32   7 N        1.839    -0.218    26.601     7.643
    33   6 C        2.923    -0.044    29.092     8.845
    34   6 C        2.910     0.069    26.446     8.432
    35   7 N        2.802    -0.043    22.068     6.977
    36   6 C        3.075     0.043    26.962     8.514
    37   6 C        2.909    -0.054    29.351     8.884
    38   6 C        2.928    -0.044    29.085     8.844
    39   6 C        2.972    -0.002    28.071     8.691
    40   6 C        3.903     0.026    20.087     6.371
    41   6 C        3.762    -0.105    22.553     6.770
    42   6 C        3.762    -0.105    22.551     6.769
    43   6 C        3.761    -0.107    22.584     6.774
    44   6 C        2.920    -0.039    28.975     8.827
    45   6 C        3.065    -0.018    28.402     8.739
    46   6 C        3.065    -0.019    28.405     8.740
    47   6 C        2.920    -0.039    28.973     8.827
    48   6 C        2.972    -0.002    28.063     8.689
    49   6 C        3.903     0.026    20.086     6.371
    50   6 C        3.762    -0.105    22.551     6.769
    51   6 C        3.762    -0.105    22.553     6.770
    52   6 C        3.761    -0.107    22.589     6.775
    53   6 C        2.929    -0.043    29.074     8.843
    54   6 C        2.909    -0.054    29.336     8.881
    55   6 C        3.074     0.043    26.955     8.513
    56   6 C        2.926    -0.057    29.407     8.893
    57   1 H        0.925     0.035     2.510     2.477
    58   1 H        0.925     0.035     2.519     2.482
    59   1 H        0.925     0.035     2.523     2.484
    60   1 H        0.925     0.036     2.501     2.473
    61   1 H        0.925     0.034     2.533     2.489
    62   1 H        0.925     0.035     2.512     2.479
    63   1 H        0.925     0.035     2.510     2.478
    64   1 H        0.925     0.036     2.509     2.477
    65   1 H        0.925     0.033     2.547     2.496
    66   1 H        0.926     0.030     2.589     2.516
    67   1 H        0.926     0.027     2.629     2.535
    68   1 H        0.926     0.037     2.493     2.469
    69   1 H        0.926     0.031     2.578     2.511
    70   1 H        0.925     0.035     2.518     2.482
    71   1 H        0.925     0.035     2.520     2.482
    72   1 H        0.925     0.035     2.517     2.481
    73   1 H        0.925     0.036     2.502     2.474
    74   1 H        0.925     0.033     2.548     2.496
    75   1 H        0.925     0.035     2.513     2.479
    76   1 H        0.925     0.035     2.512     2.478
    77   1 H        0.925     0.033     2.542     2.493
    78   1 H        0.925     0.036     2.502     2.473
    79   1 H        0.926     0.036     2.506     2.476
    80   1 H        0.926     0.025     2.664     2.552
    81   1 H        0.926     0.067     2.115     2.274
    82   1 H        0.926     0.063     2.167     2.302
    83   1 H        0.926     0.044     2.398     2.422
    84   1 H        0.926     0.043     2.406     2.426
    85   1 H        0.925     0.045     2.388     2.417
    86   1 H        0.926     0.061     2.186     2.312
    87   1 H        0.926     0.024     2.679     2.560
    88   1 H        0.926     0.035     2.514     2.480
    89   1 H        0.925     0.036     2.508     2.477
    90   1 H        0.925     0.036     2.503     2.474
    91   1 H        0.925     0.033     2.541     2.493
    92   1 H        0.925     0.036     2.503     2.474
    93   1 H        0.925     0.032     2.554     2.499
    94   1 H        0.925     0.035     2.510     2.478
    95   1 H        0.925     0.035     2.516     2.481
    96   1 H        0.925     0.035     2.515     2.480
    97   1 H        0.925     0.034     2.527     2.486
    98   1 H        0.926     0.030     2.586     2.515
    99   1 H        0.926     0.030     2.590     2.517
   100   1 H        0.925     0.036     2.509     2.477
   101   1 H        0.925     0.033     2.545     2.495
   102   1 H        0.925     0.036     2.509     2.477
   103   1 H        0.925     0.036     2.506     2.476
   104   1 H        0.925     0.033     2.543     2.494
   105   1 H        0.925     0.035     2.511     2.478
   106   1 H        0.925     0.035     2.516     2.480
   107   1 H        0.925     0.035     2.517     2.481
   108   1 H        0.925     0.035     2.513     2.479
   109   1 H        0.926     0.036     2.497     2.471
   110   1 H        0.926     0.026     2.641     2.541
   111   1 H        0.926     0.057     2.239     2.340

molecular dipole:
                 x           y           z       tot (Debye)
 q only:       -0.788      -0.260      -0.521
   full:       -1.042       0.215      -0.487       2.973

 projected vibrational frequencies (cm⁻¹)
eigval :       -0.00    -0.00    -0.00     0.00     0.00     0.00
eigval :        8.94     9.75    11.94    12.59    20.81    28.30
eigval :       30.36    30.84    31.12    32.43    40.39    42.88
eigval :       56.30    63.45    66.31    70.26    74.41    84.37
eigval :       87.51   107.10   112.89   124.86   144.83   153.37
eigval :      154.59   157.90   170.85   177.02   179.56   182.61
eigval :      186.88   191.14   196.90   198.12   217.05   217.43
eigval :      219.70   221.18   231.90   236.95   239.47   248.10
eigval :      262.25   265.77   272.08   274.57   287.57   303.86
eigval :      306.52   309.72   311.21   318.93   320.99   325.11
eigval :      326.03   328.27   336.62   341.73   350.45   355.78
eigval :      357.34   359.23   369.42   370.72   376.62   383.02
eigval :      397.78   399.94   403.77   412.14   412.45   429.05
eigval :      441.99   442.57   444.37   444.59   460.80   461.93
eigval :      462.71   465.47   469.20   471.68   480.79   512.22
eigval :      521.24   539.21   568.73   570.93   577.17   582.54
eigval :      584.31   588.15   596.36   601.25   622.04   639.18
eigval :      639.80   640.17   648.95   667.19   670.72   684.79
eigval :      688.07   688.54   702.84   707.95   709.47   719.28
eigval :      720.57   724.75   766.75   784.82   788.21   814.80
eigval :      818.18   820.08   822.62   833.17   835.12   844.17
eigval :      870.56   873.36   874.15   876.72   881.08   882.69
eigval :      887.74   896.44   897.82   900.78   908.65   910.97
eigval :      917.27   920.36   922.27   924.93   927.32   932.96
eigval :      935.66   937.57   960.02   960.05   960.08   960.42
eigval :      962.53   962.59   962.62   962.63   962.68   962.72
eigval :      962.99   963.19   992.26  1000.73  1030.88  1032.89
eigval :     1035.34  1035.71  1035.87  1035.88  1035.96  1036.00
eigval :     1036.23  1037.82  1045.64  1054.14  1088.38  1115.69
eigval :     1118.31  1120.59  1131.80  1132.22  1141.59  1145.15
eigval :     1159.70  1167.93  1180.33  1182.09  1196.11  1217.24
eigval :     1227.10  1227.56  1227.91  1227.98  1228.07  1228.39
eigval :     1228.96  1232.54  1233.37  1235.83  1237.38  1239.49
eigval :     1246.88  1252.52  1255.45  1256.57  1272.38  1285.68
eigval :     1286.48  1294.55  1296.26  1304.31  1306.49  1309.48
eigval :     1325.71  1340.11  1348.97  1353.39  1361.25  1366.19
eigval :     1394.46  1400.65  1402.16  1402.24  1404.59  1404.75
eigval :     1405.86  1405.92  1405.97  1406.17  1412.64  1413.36
eigval :     1429.19  1429.46  1429.51  1429.55  1431.13  1434.07
eigval :     1436.91  1457.58  1465.29  1475.66  1475.80  1476.16
eigval :     1484.46  1492.40  1492.43  1492.47  1492.51  1494.98
eigval :     1495.23  1495.26  1495.49  1501.89  1502.34  1502.84
eigval :     1503.15  1505.73  1505.86  1506.13  1506.19  1515.18
eigval :     1515.57  1515.59  1515.65  1520.76  1520.88  1520.90
eigval :     1520.97  1560.26  1562.03  1566.54  1569.02  1572.99
eigval :     1574.17  1584.77  1586.51  1605.61  1605.97  1619.04
eigval :     1620.75  1693.07  3020.24  3020.42  3020.46  3020.60
eigval :     3021.90  3022.00  3022.08  3022.18  3026.60  3026.75
eigval :     3026.81  3026.95  3028.89  3029.08  3029.28  3029.71
eigval :     3030.83  3030.97  3030.99  3031.01  3035.24  3035.34
eigval :     3035.56  3035.81  3037.45  3037.81  3037.95  3038.31
eigval :     3046.97  3047.36  3047.40  3047.52  3050.61  3050.99
eigval :     3051.05  3051.17  3057.03  3075.87  3080.94  3081.20
eigval :     3082.22  3084.13  3086.92  3089.59  3090.71  3094.10
eigval :     3097.58  3103.13  3107.17  3107.63  3116.71  3118.21
eigval :     3118.90  3119.35  3128.85

   temp. (K)  partition function   enthalpy   heat capacity  entropy
                                   cal/mol     cal/K/mol   cal/K/mol   J/K/mol
 298.15  VIB  0.430E+26            32248.976    195.649    200.999
         ROT  0.159E+09              888.752      2.981     40.512
         INT  0.684E+34            33137.728    198.629    241.511
         TR   0.194E+29             1481.254      4.968     45.655
         TOT                       34618.9821   203.5976   287.1660  1201.5026

       T/K    H(0)-H(T)+PV         H(T)/Eh          T*S/Eh         G(T)/Eh
   ------------------------------------------------------------------------
    298.15    0.551689E-01    0.977014E+00    0.136442E+00    0.840573E+00
   ------------------------------------------------------------------------

         :::::::::::::::::::::::::::::::::::::::::::::::::::::
         ::                  THERMODYNAMIC                  ::
         :::::::::::::::::::::::::::::::::::::::::::::::::::::
         :: total free energy        -151.521447550437 Eh   ::
         ::.................................................::
         :: total energy             -152.362020098366 Eh   ::
         :: zero point energy           0.921845528393 Eh   ::
         :: G(RRHO) w/o ZPVE           -0.081272980464 Eh   ::
         :: G(RRHO) contrib.            0.840572547929 Eh   ::
         :::::::::::::::::::::::::::::::::::::::::::::::::::::

           -------------------------------------------------
          | TOTAL ENERGY             -152.362020098366 Eh   |
          | TOTAL ENTHALPY           -151.385005710394 Eh   |
          | TOTAL FREE ENERGY        -151.521447550437 Eh   |
          | GRADIENT NORM               0.000044144825 Eh/α |
          | HOMO-LUMO GAP               1.459913721401 eV   |
           -------------------------------------------------

 * finished run on 2025/09/08 at 02:27:14.861
