   * xtb version 6.7.1 (edcfbbe) compiled by 'albert@albert-system' on 2024-07-22

   ID    Z sym.   atoms
    1    6 C      1-20, 22-25, 27-31, 33, 34, 36-56
    2    7 N      21, 32, 35
    3    8 O      26
    4    1 H      57-111

          program call               : xtb data2507/gas/2BPy-mDTC/2BPy-mDTC_gas_S0_finalOpt.xtbopt.xyz --gfn 2 --spinpol --tblite --uhf 2 --ohess vtight --parallel 40 --molden --ceasefiles --namespace data2507/gas/2BPy-mDTC/2BPy-mDTC_gas_T1_preOpt
 * total energy  :  -152.2943703 Eh     change       -0.2810054E-09 Eh
 * total energy  :  -152.2983732 Eh     change       -0.4002858E-02 Eh
 * total energy  :  -152.2996350 Eh     change       -0.1261801E-02 Eh
 * total energy  :  -152.2999799 Eh     change       -0.3449151E-03 Eh
 * total energy  :  -152.3003584 Eh     change       -0.3785576E-03 Eh
 * total energy  :  -152.3006767 Eh     change       -0.3182704E-03 Eh
 * total energy  :  -152.3009811 Eh     change       -0.3044322E-03 Eh
 * total energy  :  -152.3012347 Eh     change       -0.2535370E-03 Eh
 * total energy  :  -152.3014232 Eh     change       -0.1884991E-03 Eh
 * total energy  :  -152.3015864 Eh     change       -0.1632056E-03 Eh
 * total energy  :  -152.3024486 Eh     change       -0.3661481E-06 Eh
 * total energy  :  -152.3024495 Eh     change       -0.8969335E-06 Eh
 * total energy  :  -152.3024503 Eh     change       -0.8211528E-06 Eh
 * total energy  :  -152.3024511 Eh     change       -0.8043627E-06 Eh
 * total energy  :  -152.3024517 Eh     change       -0.6692101E-06 Eh
 * total energy  :  -152.3024523 Eh     change       -0.5228586E-06 Eh
 * total energy  :  -152.3024528 Eh     change       -0.5605207E-06 Eh
 * total energy  :  -152.3024531 Eh     change       -0.3079816E-06 Eh
 * total energy  :  -152.3024532 Eh     change       -0.2616727E-07 Eh
   *** GEOMETRY OPTIMIZATION CONVERGED AFTER 56 ITERATIONS ***

 final structure:
================
111
 xtb: 6.7.1 (edcfbbe)
C            8.76426703018837        0.38788272988027       -1.49027764739692
C            7.65647775419284        1.20950621389891       -2.15553617755354
C            8.02728779700088        2.69448292886604       -2.03487586940647
C            7.58977809450246        0.80820653740036       -3.63606411717625
C            6.29552588289878        0.98439402217116       -1.51453456234888
C            5.18621907884962        1.67430481711280       -2.02197778334832
C            3.91580757873006        1.54155647062435       -1.49986051235796
C            3.74452252901269        0.69130094728998       -0.41749013784127
C            4.83984868160853       -0.03351932125411        0.09774266106912
C            6.10593777247860        0.11708289780915       -0.44866404846834
C            4.32403336354210       -0.84419825873631        1.16882218775519
C            4.91677110230019       -1.73920757117320        2.04681763230652
C            4.14587927808902       -2.36696980922049        3.01449140841605
C            4.72690661218776       -3.36344505256244        4.00612893825739
C            6.22530891292842       -3.59805405113741        3.79584351246078
C            4.52349222154686       -2.83190317535905        5.43211385431844
C            4.00744870070670       -4.71032641101520        3.84513376907497
C            2.78098172557844       -2.05894080625221        3.08588626338752
C            2.16545008002299       -1.17282670530303        2.22522450532801
C            2.94053891413038       -0.57363429567442        1.24327440386987
N            2.59970124789167        0.34892593927196        0.27530095944735
C            1.32304968933744        0.87521866108381        0.05240432946203
C            1.15954657361202        2.24798211185041       -0.05064178101477
C           -0.11160101706866        2.79876505440390       -0.25425032823338
C           -0.21362137062407        4.26129105916015       -0.31701426410590
O            0.82087842174767        4.96048939658723       -0.45752059917141
C           -1.50890532775428        4.87837682146065       -0.16236847845090
C           -1.58616146094749        6.29496675292384       -0.20352203776643
C           -2.79722286922239        6.89990430506633       -0.01959830845793
C           -3.94219052752458        6.12077848372635        0.21155684691817
C           -3.78567456746351        4.74727917884741        0.24198223287795
N           -2.61837965672386        4.17383872839270        0.06281578285386
C           -1.19981373844069        1.93919877390760       -0.40231003885974
C           -1.04128058683047        0.56749823300469       -0.24505631311679
N           -2.15941319415962       -0.26269103932177       -0.35548317195106
C           -3.37864992101725       -0.03584931845768        0.25275504543354
C           -3.76489905347087        0.95941758713389        1.13855243017894
C           -5.05941852589629        0.93073865679227        1.61604098654468
C           -5.98479924108287       -0.05741721216215        1.25404604844011
C           -7.39126719951213        0.00774026049727        1.83019855329877
C           -8.03913038434129        1.33977247219017        1.42553921970663
C           -7.31328428245762       -0.08916587020960        3.36050519920743
C           -8.28714034817092       -1.12732873723732        1.32674777850248
C           -5.57676247560101       -1.06287878262746        0.38990109512135
C           -4.28163634642757       -1.05822148371692       -0.10735015773476
C           -3.56520344825851       -1.94137091293126       -0.98912542685113
C           -3.92613807988195       -3.09623153678466       -1.66728584406609
C           -3.00319438317574       -3.73037437425645       -2.48580288709331
C           -3.32656435684160       -5.00313943343936       -3.25363044614095
C           -2.35485780683282       -6.11095276989497       -2.82233262412044
C           -3.17640290488460       -4.73562309432449       -4.75800973483689
C           -4.75300962996961       -5.49807467224169       -2.99903652316357
C           -1.72737428325031       -3.16661809752192       -2.61713292744970
C           -1.34153998010130       -2.01933324803313       -1.95385037503561
C           -2.26350070646757       -1.41038768028809       -1.11583578885476
C            0.22091581952087        0.02439378574477       -0.02153177607241
H            8.86931289351976        0.65066358558402       -0.44019363225474
H            8.56605250853648       -0.67822120144225       -1.57459785915326
H            9.71245426542568        0.59237858673811       -1.98354784549360
H            7.30642720043602        3.32694690441371       -2.54493138041973
H            8.05801886772152        2.98969460342519       -0.98812554610839
H            9.00706577101324        2.87275789784078       -2.47319499417369
H            8.56218277724155        0.94435593434548       -4.10478197067790
H            6.86460020744624        1.40828901862314       -4.17824989631636
H            7.30466591191318       -0.23778076656649       -3.72944986197335
H            5.31659130463504        2.34216415814269       -2.85932853356690
H            3.08666703723401        2.08407227468194       -1.92690797429268
H            6.92027095106210       -0.45062271666909       -0.03048785885886
H            5.97422789540356       -1.92456483135281        1.95985501005525
H            6.78880509241746       -2.67820245588405        3.93371392493586
H            6.58395185482522       -4.32283467821793        4.52402516628415
H            6.42381786628721       -3.99420167070046        2.80260582861178
H            3.46927391081488       -2.71099101820322        5.66477468179252
H            5.01018399854462       -1.86540490483384        5.54538714407311
H            4.95420897884588       -3.52248909032049        6.15415983390630
H            4.42226538150417       -5.44128598810619        4.53605009649241
H            4.13255140639244       -5.08395088720402        2.83085663736247
H            2.94357868430318       -4.61949788795450        4.04531567721522
H            2.17283293533044       -2.52396534003743        3.84657076958310
H            1.11563085250867       -0.94565940387433        2.33143973949168
H            2.00115701935944        2.91342435868350        0.06122563343018
H           -0.66757878339183        6.83337189459077       -0.38041287171046
H           -2.87878277489714        7.97690602395222       -0.05147245937951
H           -4.91027493546120        6.56974312916935        0.36020727291318
H           -4.62042663748710        4.07937813444960        0.41385449690910
H           -2.16976206704047        2.33098056190557       -0.66378914859399
H           -3.08039007346549        1.73261232189182        1.45095597664301
H           -5.35790995675647        1.70812714327189        2.30284944409380
H           -9.05752554472583        1.39142183466497        1.80496188572590
H           -7.48693223529346        2.18723443205016        1.82197288179617
H           -8.06965790433937        1.42858109748345        0.34144759435538
H           -6.74030653157402        0.73189949771049        3.78213895322054
H           -6.83692057094641       -1.02243562144172        3.65372972162521
H           -8.31300845181791       -0.06202759381143        3.78898338490307
H           -9.27939408691810       -1.02581004283978        1.76182977958886
H           -8.39013796718373       -1.09373404648269        0.24456286992747
H           -7.89162223734315       -2.09737520739486        1.61880326344733
H           -6.24175105462029       -1.85659004819768        0.09317144064796
H           -4.92682860551377       -3.47557837280884       -1.54521959511024
H           -1.32469504913293       -5.84339744091075       -3.03975347291152
H           -2.44156689292514       -6.29103784824296       -1.75273150674587
H           -2.58408968365042       -7.03557154869569       -3.34791641718596
H           -2.16035465095741       -4.44602356514682       -5.01078176724520
H           -3.84530665931601       -3.93444083243025       -5.06553073207734
H           -3.42590795400390       -5.63054406381656       -5.32421761087773
H           -4.90782557602671       -5.72051856966218       -1.94574496236880
H           -4.92527198621902       -6.41209434141764       -3.56385927175576
H           -5.48627157236864       -4.76239908747034       -3.32127382519861
H           -1.00533402092649       -3.63755820284729       -3.26637607404501
H           -0.35541502211584       -1.60647841884297       -2.10190804180876
H            0.34488594234286       -1.04108586519743        0.08757949345552

 projected vibrational frequencies (cm⁻¹)
eigval :       -0.00    -0.00    -0.00    -0.00     0.00     0.00
eigval :        9.31    10.97    12.87    16.83    24.85    29.71
eigval :       30.64    31.00    33.61    33.65    44.48    52.73
eigval :       60.91    62.90    65.67    68.14    83.05    86.33
eigval :       91.49   107.10   118.70   138.39   148.03   153.78
eigval :      157.81   159.59   168.45   175.04   181.59   184.59
eigval :      188.79   200.84   201.82   202.11   217.19   219.23
eigval :      220.10   222.77   228.11   230.41   234.62   245.90
eigval :      252.01   258.71   260.06   277.97   283.17   289.42
eigval :      299.90   316.98   318.06   318.60   322.25   322.70
eigval :      333.03   337.86   341.38   347.08   351.36   359.07
eigval :      359.31   365.43   370.43   377.29   381.91   386.71
eigval :      395.29   397.95   399.06   408.82   409.69   425.32
eigval :      440.71   442.01   442.25   442.80   461.49   462.99
eigval :      463.66   465.13   466.14   469.34   498.54   511.64
eigval :      515.21   536.32   539.63   570.80   576.49   581.34
eigval :      585.74   586.58   593.36   598.94   606.97   624.14
eigval :      631.10   638.05   641.09   641.32   654.38   661.62
eigval :      670.45   690.01   690.21   701.94   708.63   709.53
eigval :      718.40   721.49   746.45   766.37   783.72   805.85
eigval :      819.26   823.29   824.49   831.65   832.01   833.85
eigval :      844.76   853.68   865.81   871.06   873.14   873.60
eigval :      873.80   876.03   881.33   888.12   893.48   904.11
eigval :      914.90   917.51   918.07   919.99   924.43   927.00
eigval :      932.65   933.88   953.17   960.22   960.24   960.30
eigval :      960.44   962.81   962.86   963.15   963.16   963.19
eigval :      963.20   963.25   963.30   988.20  1028.10  1030.29
eigval :     1033.40  1034.75  1035.18  1035.32  1035.39  1035.40
eigval :     1037.42  1039.45  1044.08  1047.11  1064.64  1111.17
eigval :     1113.21  1114.75  1126.44  1129.95  1130.84  1138.66
eigval :     1143.67  1157.07  1170.83  1172.52  1190.18  1191.59
eigval :     1216.86  1218.59  1227.18  1227.31  1227.35  1227.43
eigval :     1230.09  1231.31  1231.53  1232.04  1234.99  1235.15
eigval :     1236.48  1236.74  1246.62  1255.24  1262.17  1282.75
eigval :     1283.98  1295.75  1300.72  1302.71  1304.90  1329.05
eigval :     1335.44  1338.51  1346.72  1348.82  1349.16  1351.57
eigval :     1368.87  1380.42  1401.83  1402.01  1403.08  1404.47
eigval :     1404.58  1405.66  1405.73  1405.88  1405.91  1410.46
eigval :     1411.00  1421.87  1426.92  1428.37  1428.37  1428.49
eigval :     1428.51  1445.40  1452.11  1471.78  1473.37  1473.75
eigval :     1481.65  1481.91  1488.90  1491.46  1491.61  1491.65
eigval :     1491.90  1494.07  1494.24  1494.36  1494.40  1500.69
eigval :     1500.76  1500.84  1500.96  1504.76  1504.95  1505.01
eigval :     1505.24  1514.50  1514.54  1514.79  1514.92  1519.69
eigval :     1519.75  1520.44  1520.54  1523.78  1526.81  1561.53
eigval :     1565.46  1567.13  1577.73  1579.48  1589.88  1591.80
eigval :     1604.48  1610.42  3021.73  3021.97  3021.99  3022.16
eigval :     3023.42  3023.58  3023.70  3023.79  3027.10  3027.22
eigval :     3027.23  3027.35  3030.11  3030.22  3030.34  3030.67
eigval :     3031.11  3031.24  3031.35  3031.71  3035.68  3035.70
eigval :     3035.90  3036.02  3038.29  3038.32  3038.50  3038.67
eigval :     3045.37  3046.55  3047.96  3047.99  3048.98  3050.11
eigval :     3051.19  3051.34  3052.66  3070.37  3083.39  3084.40
eigval :     3085.88  3089.27  3091.53  3092.73  3095.27  3096.13
eigval :     3099.39  3100.21  3106.60  3107.55  3109.30  3116.09
eigval :     3116.26  3119.74  3119.89

   temp. (K)  partition function   enthalpy   heat capacity  entropy
                                   cal/mol     cal/K/mol   cal/K/mol   J/K/mol
 298.15  VIB  0.110E+26            32277.353    197.291    200.179
         ROT  0.159E+09              888.752      2.981     40.506
         INT  0.175E+34            33166.105    200.272    240.685
         TR   0.194E+29             1481.254      4.968     45.655
         TOT                       34647.3588   205.2403   286.3405  1198.0485

       T/K    H(0)-H(T)+PV         H(T)/Eh          T*S/Eh         G(T)/Eh
   ------------------------------------------------------------------------
    298.15    0.552141E-01    0.974156E+00    0.136050E+00    0.838106E+00
   ------------------------------------------------------------------------

         :::::::::::::::::::::::::::::::::::::::::::::::::::::
         ::                  THERMODYNAMIC                  ::
         :::::::::::::::::::::::::::::::::::::::::::::::::::::
         :: total free energy        -151.464346840697 Eh   ::
         ::.................................................::
         :: total energy             -152.302453171325 Eh   ::
         :: zero point energy           0.918941848607 Eh   ::
         :: G(RRHO) w/o ZPVE           -0.080835517980 Eh   ::
         :: G(RRHO) contrib.            0.838106330628 Eh   ::
         :::::::::::::::::::::::::::::::::::::::::::::::::::::

           -------------------------------------------------
          | TOTAL ENERGY             -152.302453171325 Eh   |
          | TOTAL ENTHALPY           -151.328297241933 Eh   |
          | TOTAL FREE ENERGY        -151.464346840697 Eh   |
          | GRADIENT NORM               0.000067471094 Eh/α |
           -------------------------------------------------

 * finished run on 2025/09/08 at 02:44:59.830
