   * xtb version 6.7.1 (edcfbbe) compiled by 'albert@albert-system' on 2024-07-22

   ID    Z sym.   atoms
    1    6 C      1-20, 22-25, 27-31, 33, 34, 36-56
    2    7 N      21, 32, 35
    3    8 O      26
    4    1 H      57-111

          program call               : xtb data2507/gas/2BPy-mDTC/2BPy-mDTC_gas_S0_crest.xyz --gfn 2 --ohess vtight --parallel 40 --molden --ceasefiles --namespace data2507/gas/2BPy-mDTC/2BPy-mDTC_gas_S0_finalOpt
          :  Hamiltonian                  GFN2-xTB          :
 * total energy  :  -152.3653685 Eh     change       -0.7241738E-08 Eh
 * total energy  :  -152.3653699 Eh     change       -0.1346766E-05 Eh
 * total energy  :  -152.3653723 Eh     change       -0.2399417E-05 Eh
 * total energy  :  -152.3653753 Eh     change       -0.2998906E-05 Eh
 * total energy  :  -152.3653772 Eh     change       -0.1951832E-05 Eh
 * total energy  :  -152.3653795 Eh     change       -0.2259134E-05 Eh
 * total energy  :  -152.3653828 Eh     change       -0.3322279E-05 Eh
 * total energy  :  -152.3653862 Eh     change       -0.3422735E-05 Eh
 * total energy  :  -152.3653888 Eh     change       -0.2585690E-05 Eh
 * total energy  :  -152.3653914 Eh     change       -0.2623952E-05 Eh
 * total energy  :  -152.3654185 Eh     change       -0.4890702E-06 Eh
 * total energy  :  -152.3654190 Eh     change       -0.5265570E-06 Eh
 * total energy  :  -152.3654194 Eh     change       -0.4255253E-06 Eh
 * total energy  :  -152.3654197 Eh     change       -0.2814540E-06 Eh
 * total energy  :  -152.3654200 Eh     change       -0.2905632E-06 Eh
 * total energy  :  -152.3654203 Eh     change       -0.3173017E-06 Eh
 * total energy  :  -152.3654206 Eh     change       -0.2917204E-06 Eh
 * total energy  :  -152.3654208 Eh     change       -0.1780443E-06 Eh
 * total energy  :  -152.3654208 Eh     change       -0.4059245E-07 Eh
   *** GEOMETRY OPTIMIZATION CONVERGED AFTER 39 ITERATIONS ***

 final structure:
================
111
 xtb: 6.7.1 (edcfbbe)
C            8.77158115444253        0.34409597990999       -1.45347844441862
C            7.68917733083028        1.19465867337864       -2.12406451463927
C            8.08805634706178        2.67035754308463       -1.98255202596196
C            7.63498453293892        0.81034654508987       -3.60943545752697
C            6.31541621874848        0.98912620625220       -1.50244599797386
C            5.22604625769801        1.70308314026780       -2.01944938603909
C            3.94617653023822        1.58968903729930       -1.51593484924442
C            3.74335725586052        0.73525939574937       -0.44367738793429
C            4.81659468009937       -0.01465609699651        0.07880542825408
C            6.09449778983257        0.11827610298286       -0.44853588887344
C            4.27328792665492       -0.82760320072144        1.13226328663436
C            4.84384575053701       -1.73711510239810        2.01289630696595
C            4.05413608957486       -2.36121629582353        2.96426975988023
C            4.60864639396602       -3.37219250433118        3.95744725504713
C            6.10768247622578       -3.62074537865252        3.76868199575519
C            4.38899924532024       -2.85047605062783        5.38452931246217
C            3.87828650144889       -4.71013044700712        3.77433339395274
C            2.69232099954759       -2.03654959556322        3.01919844698506
C            2.09936514649335       -1.13659701328681        2.15697244307714
C            2.89403590580838       -0.53990476434726        1.19074025273889
N            2.58073347456300        0.40722907707650        0.23218097570303
C            1.31618495091504        0.94340523046611       -0.01380873595245
C            1.15158195949073        2.31683762794129       -0.15403535513515
C           -0.11032807851978        2.85068951970212       -0.40032034425383
C           -0.21916709274840        4.32057831998394       -0.54011834086942
O            0.70479704160024        4.99961064448696       -0.94180478321554
C           -1.51072650682155        4.95749771913628       -0.14278619106803
C           -1.79537920646523        6.24368069601743       -0.60003658733140
C           -2.98087670017641        6.84098117181238       -0.20833423749885
C           -3.83340666301558        6.13867741194193        0.62875733397323
C           -3.45407166216343        4.86594708310946        1.03588368540683
N           -2.32914546201265        4.28835729050140        0.66492740530534
C           -1.20882711329144        2.00909994820211       -0.52833131582035
C           -1.05033696855731        0.63588857020012       -0.36708320777359
N           -2.16255680993670       -0.20278179165801       -0.45814619751296
C           -3.37702185727412        0.01168178338898        0.16954198243498
C           -3.76720399328268        1.01747813364900        1.04023978551801
C           -5.04800255904658        0.96402377443168        1.55136730647075
C           -5.95542789009512       -0.05673446294627        1.23654968347271
C           -7.34727295502058       -0.01667876609933        1.85112822931648
C           -8.04474571865755        1.28660703770163        1.43608824151287
C           -7.22481726571796       -0.07725230175588        3.38032387091384
C           -8.22429411040558       -1.18727797987540        1.39845221631167
C           -5.54266583187894       -1.06911131398021        0.38651705362324
C           -4.25879225124470       -1.04285044537828       -0.14294459068681
C           -3.53917401936570       -1.93370917189738       -1.01164477346381
C           -3.88828496620640       -3.11480778956913       -1.65315980895588
C           -2.96803978485344       -3.75250833284809       -2.46846439039244
C           -3.27837088030672       -5.05136749426227       -3.19827197310816
C           -2.28086390746827       -6.13005403265568       -2.75284238616629
C           -3.15513317857062       -4.82150937247803       -4.71120150798892
C           -4.69179450866797       -5.56484178594540       -2.90986695485344
C           -1.70513156974851       -3.16878973025981       -2.63490560746028
C           -1.33148730953413       -1.99643401133971       -2.00985695527053
C           -2.25164327225743       -1.38157223129286       -1.17534567647104
C            0.20953530859439        0.10391203610951       -0.11184468708010
H            8.86808426255829        0.59393616858301       -0.39941317801416
H            8.55197706367668       -0.71663652307449       -1.55093845033492
H            9.73022191137991        0.53364290122874       -1.93254986205603
H            7.38535760574987        3.32219867436213       -2.49381381668941
H            8.11192446236083        2.95322241626529       -0.93214487088835
H            9.07632381700417        2.83477539120426       -2.40731189805247
H            8.61626302226658        0.93059190028289       -4.06409931965706
H            6.92979400363079        1.43101820772269       -4.15492177400052
H            7.32897390923691       -0.22827951736084       -3.71741817086822
H            5.37960548557573        2.37421577441995       -2.85054258098630
H            3.13386233007673        2.14789889431496       -1.95588108423938
H            6.89110968211455       -0.46869534333166       -0.02277853065772
H            5.90045316743218       -1.93272208324777        1.93809372583149
H            6.67789736095851       -2.70737811385122        3.92146893443213
H            6.44809618388343       -4.35437001929988        4.49692490782534
H            6.31730160607214       -4.01134005931996        2.77554870998408
H            3.33249859286558       -2.72133068972355        5.60209260047876
H            4.88286557990771       -1.88943775881338        5.51276272816877
H            4.80214091212600       -3.55065030609800        6.10779719369831
H            4.27307594538891       -5.45113700651555        4.46648600907058
H            4.01651657385468       -5.07717656580688        2.75935629031575
H            2.81212940167001       -4.60885317217134        3.95676125514086
H            2.06747462577272       -2.49971612368931        3.76760255475093
H            1.05037924460684       -0.89931619857489        2.25236885123823
H            1.99244543435355        2.98422471114026       -0.04634334749662
H           -1.08880727140451        6.74080846709612       -1.24616725806480
H           -3.23398199265398        7.83534961425835       -0.54644244732660
H           -4.76672808208009        6.56528914873498        0.96166070572259
H           -4.08333782633876        4.27927195035608        1.69248427355744
H           -2.17886502160239        2.40520346922530       -0.77670405901791
H           -3.09491803937008        1.81484852983835        1.31720670268060
H           -5.35178083864682        1.74728206569019        2.22952665894016
H           -9.05142333979864        1.32114040157940        1.84777006843131
H           -7.50283404111461        2.15843802177318        1.79196219806463
H           -8.11262213039001        1.34696733185537        0.35174388679437
H           -6.66442617214248        0.76901195440280        3.76786158747263
H           -6.71275520112157       -0.98948329108658        3.67942492420687
H           -8.21248835591799       -0.06959812868935        3.83699119883737
H           -9.20714738152823       -1.10335122907124        1.85824026519761
H           -8.35674112873598       -1.18174773973204        0.31897579677855
H           -7.79331874716285       -2.13880708823423        1.70086110996099
H           -6.19154868100156       -1.88821345931200        0.12499409582062
H           -4.87993605077383       -3.50817392346747       -1.50402372422575
H           -1.25903835912220       -5.84978472314122       -2.99265549924484
H           -2.34853213434791       -6.28261013846921       -1.67760323610614
H           -2.50057101654487       -7.07264158856054       -3.25007396236934
H           -2.14828417282188       -4.52031142484761       -4.98642126113776
H           -3.84293308253988       -4.04068567904264       -5.02943640324246
H           -3.39625520621034       -5.73530776191507       -5.25048623243317
H           -4.82692675250574       -5.76249143164908       -1.84897323806045
H           -4.85619827113962       -6.49598141901689       -3.44868297652323
H           -5.44263825650948       -4.85024869817293       -3.23907962628514
H           -0.98348068048866       -3.64422201422936       -3.28155598865409
H           -0.35450059053909       -1.57124056142580       -2.18446869584086
H            0.33012197715655       -0.96174233566271        0.00662930023277

          :  Hamiltonian                  GFN2-xTB          :
         :: gradient norm              0.000086051465 Eh/a0 ::
         :: HOMO-LUMO gap              1.439714363218 eV    ::
         :: SCC energy              -154.967939146698 Eh    ::
         :: -> dispersion             -0.140196650449 Eh    ::
         :: repulsion energy           2.602518330805 Eh    ::

    * Orbital Energies and Occupations

         #    Occupation            Energy/Eh            Energy/eV
      -------------------------------------------------------------
         1        2.0000           -0.7105010             -19.3337
       ...           ...                  ...                  ...
       130        2.0000           -0.4088802             -11.1262
       131        2.0000           -0.4068783             -11.0717
       132        2.0000           -0.4048352             -11.0161
       133        2.0000           -0.4038423             -10.9891
       134        2.0000           -0.4031680             -10.9708
       135        2.0000           -0.4015701             -10.9273
       136        2.0000           -0.3932441             -10.7007
       137        2.0000           -0.3914510             -10.6519
       138        2.0000           -0.3789981             -10.3131
       139        2.0000           -0.3700384             -10.0693
       140        2.0000           -0.3681158             -10.0169
       141        2.0000           -0.3551477              -9.6641
       142        2.0000           -0.3535291              -9.6200 (HOMO)
       143                         -0.3006205              -8.1803 (LUMO)
       144                         -0.2604723              -7.0878
       145                         -0.2467952              -6.7156
       146                         -0.2429927              -6.6122
       147                         -0.2360387              -6.4229
       148                         -0.2318669              -6.3094
       149                         -0.2140632              -5.8250
       150                         -0.2122863              -5.7766
       151                         -0.2016790              -5.4880
       152                         -0.1818983              -4.9497
       153                         -0.1805175              -4.9121
       ...                                ...                  ...
       279                          0.7481046              20.3570
      -------------------------------------------------------------
                  HL-Gap            0.0529086 Eh            1.4397 eV

     #   Z          covCN         q      C6AA      α(0)
     1   6 C        3.761    -0.107    22.584     6.774
     2   6 C        3.903     0.026    20.087     6.371
     3   6 C        3.762    -0.105    22.558     6.770
     4   6 C        3.761    -0.105    22.555     6.770
     5   6 C        2.973    -0.001    28.059     8.689
     6   6 C        2.931    -0.038    28.952     8.824
     7   6 C        2.908    -0.053    29.313     8.878
     8   6 C        3.077     0.042    26.972     8.515
     9   6 C        3.067    -0.019    28.422     8.742
    10   6 C        2.918    -0.044    29.088     8.844
    11   6 C        3.067    -0.019    28.415     8.741
    12   6 C        2.918    -0.044    29.085     8.844
    13   6 C        2.973    -0.002    28.068     8.690
    14   6 C        3.903     0.026    20.087     6.371
    15   6 C        3.761    -0.107    22.586     6.775
    16   6 C        3.761    -0.105    22.553     6.770
    17   6 C        3.762    -0.105    22.553     6.770
    18   6 C        2.931    -0.039    28.977     8.828
    19   6 C        2.909    -0.054    29.335     8.881
    20   6 C        3.076     0.042    26.979     8.516
    21   7 N        2.803    -0.043    22.076     6.978
    22   6 C        2.909     0.069    26.451     8.433
    23   6 C        2.929    -0.040    28.999     8.831
    24   6 C        2.971    -0.004    28.115     8.697
    25   6 C        2.830     0.225    23.277     7.906
    26   8 O        0.858    -0.362    20.936     6.135
    27   6 C        2.961     0.073    26.359     8.421
    28   6 C        2.919    -0.026    28.663     8.780
    29   6 C        2.926    -0.009    28.234     8.714
    30   6 C        2.915    -0.033    28.819     8.803
    31   6 C        2.908     0.063    26.586     8.455
    32   7 N        1.839    -0.220    26.632     7.648
    33   6 C        2.924    -0.043    29.069     8.842
    34   6 C        2.911     0.070    26.443     8.432
    35   7 N        2.803    -0.043    22.078     6.979
    36   6 C        3.078     0.042    26.978     8.515
    37   6 C        2.908    -0.057    29.416     8.893
    38   6 C        2.932    -0.039    28.970     8.827
    39   6 C        2.973    -0.003    28.086     8.693
    40   6 C        3.903     0.026    20.087     6.371
    41   6 C        3.762    -0.104    22.540     6.768
    42   6 C        3.761    -0.105    22.548     6.769
    43   6 C        3.761    -0.107    22.586     6.775
    44   6 C        2.918    -0.044    29.098     8.846
    45   6 C        3.067    -0.020    28.428     8.743
    46   6 C        3.067    -0.020    28.426     8.742
    47   6 C        2.918    -0.044    29.086     8.844
    48   6 C        2.973    -0.002    28.067     8.690
    49   6 C        3.903     0.026    20.087     6.371
    50   6 C        3.762    -0.105    22.555     6.770
    51   6 C        3.762    -0.105    22.553     6.770
    52   6 C        3.761    -0.107    22.586     6.775
    53   6 C        2.931    -0.039    28.971     8.827
    54   6 C        2.908    -0.054    29.333     8.881
    55   6 C        3.076     0.042    26.982     8.516
    56   6 C        2.926    -0.056    29.390     8.890
    57   1 H        0.925     0.035     2.512     2.479
    58   1 H        0.925     0.035     2.518     2.482
    59   1 H        0.925     0.034     2.525     2.485
    60   1 H        0.925     0.037     2.493     2.469
    61   1 H        0.925     0.033     2.539     2.492
    62   1 H        0.925     0.035     2.514     2.480
    63   1 H        0.925     0.035     2.512     2.479
    64   1 H        0.925     0.036     2.504     2.475
    65   1 H        0.925     0.033     2.550     2.497
    66   1 H        0.926     0.031     2.573     2.508
    67   1 H        0.926     0.031     2.572     2.508
    68   1 H        0.926     0.037     2.492     2.469
    69   1 H        0.926     0.037     2.485     2.465
    70   1 H        0.925     0.035     2.511     2.478
    71   1 H        0.925     0.034     2.524     2.484
    72   1 H        0.925     0.035     2.511     2.478
    73   1 H        0.925     0.035     2.511     2.478
    74   1 H        0.925     0.033     2.542     2.493
    75   1 H        0.925     0.035     2.511     2.478
    76   1 H        0.925     0.035     2.512     2.479
    77   1 H        0.925     0.033     2.543     2.494
    78   1 H        0.925     0.035     2.510     2.478
    79   1 H        0.926     0.029     2.605     2.524
    80   1 H        0.926     0.025     2.662     2.551
    81   1 H        0.926     0.066     2.135     2.285
    82   1 H        0.926     0.063     2.166     2.301
    83   1 H        0.926     0.044     2.396     2.421
    84   1 H        0.926     0.043     2.404     2.425
    85   1 H        0.925     0.045     2.380     2.413
    86   1 H        0.926     0.058     2.221     2.331
    87   1 H        0.926     0.041     2.436     2.441
    88   1 H        0.926     0.025     2.657     2.549
    89   1 H        0.925     0.035     2.514     2.480
    90   1 H        0.925     0.034     2.536     2.490
    91   1 H        0.925     0.032     2.551     2.498
    92   1 H        0.925     0.035     2.518     2.481
    93   1 H        0.925     0.033     2.538     2.491
    94   1 H        0.925     0.035     2.513     2.479
    95   1 H        0.925     0.034     2.525     2.485
    96   1 H        0.925     0.035     2.513     2.479
    97   1 H        0.925     0.036     2.508     2.477
    98   1 H        0.926     0.036     2.496     2.471
    99   1 H        0.926     0.037     2.488     2.467
   100   1 H        0.925     0.036     2.507     2.476
   101   1 H        0.925     0.033     2.541     2.493
   102   1 H        0.925     0.035     2.510     2.477
   103   1 H        0.925     0.036     2.509     2.477
   104   1 H        0.925     0.033     2.546     2.495
   105   1 H        0.925     0.036     2.508     2.477
   106   1 H        0.925     0.035     2.511     2.478
   107   1 H        0.925     0.035     2.522     2.483
   108   1 H        0.925     0.035     2.515     2.480
   109   1 H        0.926     0.029     2.598     2.521
   110   1 H        0.926     0.025     2.662     2.551
   111   1 H        0.926     0.057     2.237     2.339

molecular dipole:
                 x           y           z       tot (Debye)
 q only:       -0.843      -0.323       0.204
   full:       -1.127       0.131       0.147       2.908

 projected vibrational frequencies (cm⁻¹)
eigval :       -0.00    -0.00    -0.00     0.00     0.00     0.00
eigval :        9.48    10.28    12.96    14.74    24.78    29.86
eigval :       30.85    31.21    33.75    34.12    37.41    44.55
eigval :       60.98    63.54    66.14    67.97    81.16    85.65
eigval :       88.20   106.85   111.53   127.22   143.04   155.30
eigval :      159.27   160.42   170.93   176.33   180.16   185.31
eigval :      191.66   201.76   202.62   202.95   216.91   219.07
eigval :      221.09   222.93   227.54   230.53   237.46   245.64
eigval :      248.50   259.24   259.78   273.95   283.25   287.13
eigval :      294.49   315.91   317.66   317.91   321.82   322.22
eigval :      333.08   337.49   341.10   348.29   349.80   355.40
eigval :      360.21   360.38   367.51   370.48   379.00   382.83
eigval :      397.41   399.33   402.57   411.76   412.13   429.56
eigval :      441.02   441.58   442.88   443.88   459.78   461.67
eigval :      462.92   463.80   466.19   466.81   492.82   512.35
eigval :      519.39   540.35   551.59   576.31   578.75   584.50
eigval :      585.64   590.10   598.55   601.22   625.13   640.26
eigval :      640.30   641.84   653.95   664.63   670.18   684.87
eigval :      688.04   688.61   703.64   707.90   709.41   719.63
eigval :      722.16   723.17   767.41   785.26   788.18   818.34
eigval :      822.57   823.72   825.03   832.04   833.82   844.54
eigval :      869.37   869.98   872.53   874.10   874.34   877.38
eigval :      887.19   896.23   899.55   901.64   914.86   917.86
eigval :      918.10   921.16   923.59   925.35   927.67   934.81
eigval :      936.12   937.71   960.16   960.32   960.36   960.41
eigval :      962.72   962.91   962.92   962.94   962.98   963.04
eigval :      963.35   963.39   992.07  1001.22  1029.73  1031.41
eigval :     1033.79  1035.53  1035.72  1035.90  1035.93  1035.99
eigval :     1038.72  1041.03  1045.12  1054.22  1089.25  1115.12
eigval :     1118.29  1120.06  1131.17  1132.00  1142.02  1146.05
eigval :     1159.75  1168.04  1178.00  1179.16  1194.04  1216.34
eigval :     1228.10  1228.16  1228.27  1228.37  1228.44  1231.43
eigval :     1231.71  1232.74  1234.06  1237.28  1237.96  1239.58
eigval :     1240.71  1250.81  1255.83  1257.79  1271.67  1285.10
eigval :     1286.08  1295.39  1297.93  1310.27  1310.97  1311.50
eigval :     1325.65  1345.92  1347.77  1347.97  1357.26  1360.46
eigval :     1395.28  1400.83  1402.50  1402.83  1404.72  1404.82
eigval :     1405.91  1406.10  1406.15  1406.23  1412.74  1413.37
eigval :     1429.38  1429.48  1429.56  1429.61  1432.68  1434.45
eigval :     1436.73  1458.17  1466.18  1483.37  1483.63  1485.36
eigval :     1485.59  1492.43  1492.54  1492.56  1492.67  1495.17
eigval :     1495.23  1495.39  1495.40  1501.74  1501.85  1502.12
eigval :     1502.17  1505.78  1505.88  1505.96  1506.03  1515.01
eigval :     1515.07  1515.22  1515.27  1520.45  1520.47  1521.29
eigval :     1521.33  1560.49  1561.75  1566.12  1569.32  1571.49
eigval :     1573.09  1582.35  1583.03  1604.71  1605.15  1616.94
eigval :     1617.66  1695.27  3020.41  3020.44  3020.60  3020.82
eigval :     3021.73  3021.76  3021.92  3022.27  3026.69  3026.73
eigval :     3026.76  3026.85  3028.87  3028.92  3029.40  3029.71
eigval :     3030.79  3030.83  3030.92  3030.97  3035.24  3035.43
eigval :     3035.62  3035.67  3037.37  3037.72  3037.82  3037.95
eigval :     3045.78  3047.02  3047.14  3047.93  3049.26  3050.39
eigval :     3050.54  3051.60  3059.04  3076.53  3078.91  3079.16
eigval :     3081.48  3084.02  3092.65  3093.13  3096.12  3097.96
eigval :     3099.01  3103.64  3106.08  3107.36  3115.09  3115.17
eigval :     3118.56  3118.74  3124.97

   temp. (K)  partition function   enthalpy   heat capacity  entropy
                                   cal/mol     cal/K/mol   cal/K/mol   J/K/mol
 298.15  VIB  0.187E+26            32214.029    195.832    200.239
         ROT  0.158E+09              888.752      2.981     40.496
         INT  0.296E+34            33102.781    198.812    240.735
         TR   0.194E+29             1481.254      4.968     45.655
         TOT                       34584.0353   203.7806   286.3903  1198.2571

       T/K    H(0)-H(T)+PV         H(T)/Eh          T*S/Eh         G(T)/Eh
   ------------------------------------------------------------------------
    298.15    0.551132E-01    0.977098E+00    0.136073E+00    0.841025E+00
   ------------------------------------------------------------------------

         :::::::::::::::::::::::::::::::::::::::::::::::::::::
         ::                  THERMODYNAMIC                  ::
         :::::::::::::::::::::::::::::::::::::::::::::::::::::
         :: total free energy        -151.524395986077 Eh   ::
         ::.................................................::
         :: total energy             -152.365420815896 Eh   ::
         :: zero point energy           0.921984942595 Eh   ::
         :: G(RRHO) w/o ZPVE           -0.080960112775 Eh   ::
         :: G(RRHO) contrib.            0.841024829820 Eh   ::
         :::::::::::::::::::::::::::::::::::::::::::::::::::::

           -------------------------------------------------
          | TOTAL ENERGY             -152.365420815896 Eh   |
          | TOTAL ENTHALPY           -151.388322704977 Eh   |
          | TOTAL FREE ENERGY        -151.524395986077 Eh   |
          | GRADIENT NORM               0.000086025308 Eh/α |
          | HOMO-LUMO GAP               1.439717310378 eV   |
           -------------------------------------------------

 * finished run on 2025/09/08 at 02:44:38.212
