   * xtb version 6.7.1 (edcfbbe) compiled by 'albert@albert-system' on 2024-07-22

   ID    Z sym.   atoms
    1    6 C      1-6, 8-20, 22, 23, 25-28, 30-35, 37-43, 45-51, 53-59,
                  61-70, 72-88, 90, 91, 93-96, 98
    2    7 N      7, 21, 44, 60, 71, 89
    3    9 F      24, 29, 92, 97
    4    5 B      36, 52
    5    1 H      99-164

          program call               : xtb data2507/gas/4F-m-ν-DABNA/4F-m-ν-DABNA_gas_S0_crest.xyz --gfn 2 --ohess vtight --parallel 40 --molden --ceasefiles --namespace data2507/gas/4F-m-ν-DABNA/4F-m-ν-DABNA_gas_S0_finalOpt
          :  Hamiltonian                  GFN2-xTB          :
 * total energy  :  -256.9766974 Eh     change       -0.7202630E-08 Eh
 * total energy  :  -256.9766993 Eh     change       -0.1884888E-05 Eh
 * total energy  :  -256.9767014 Eh     change       -0.2103523E-05 Eh
 * total energy  :  -256.9767057 Eh     change       -0.4329359E-05 Eh
 * total energy  :  -256.9767072 Eh     change       -0.1481039E-05 Eh
 * total energy  :  -256.9767090 Eh     change       -0.1786353E-05 Eh
 * total energy  :  -256.9767125 Eh     change       -0.3554011E-05 Eh
 * total energy  :  -256.9767167 Eh     change       -0.4170783E-05 Eh
 * total energy  :  -256.9767201 Eh     change       -0.3436560E-05 Eh
 * total energy  :  -256.9767243 Eh     change       -0.4174944E-05 Eh
 * total energy  :  -256.9768826 Eh     change       -0.3845495E-06 Eh
 * total energy  :  -256.9768830 Eh     change       -0.4030325E-06 Eh
 * total energy  :  -256.9768834 Eh     change       -0.3999681E-06 Eh
 * total energy  :  -256.9768838 Eh     change       -0.3950420E-06 Eh
 * total energy  :  -256.9768842 Eh     change       -0.4018822E-06 Eh
 * total energy  :  -256.9768845 Eh     change       -0.3053595E-06 Eh
 * total energy  :  -256.9768844 Eh     change        0.1763681E-06 Eh
 * total energy  :  -256.9768852 Eh     change       -0.8558351E-06 Eh
 * total energy  :  -256.9768852 Eh     change       -0.9897349E-08 Eh
   *** GEOMETRY OPTIMIZATION CONVERGED AFTER 122 ITERATIONS ***

 final structure:
================
164
 xtb: 6.7.1 (edcfbbe)
C           12.04424981664624        1.06579024506795       -0.16075488184036
C           10.68422423386997        0.73086846970916       -0.69545359803754
C           10.55517582044499       -0.09590813597692       -1.80687330002552
C            9.30183611060360       -0.40779870862897       -2.30195330696831
C            8.16423581106901        0.09440157315861       -1.70161669562310
C            8.27491359593423        0.91885062970983       -0.58322359132721
N            7.13057994668907        1.42540979925151        0.04132889254459
C            7.11796925122459        2.72693303307402        0.55058260545021
C            6.41760704025117        3.02573190433282        1.71885437191614
C            6.39199256345759        4.32261068378006        2.19280523627584
C            7.06754618775368        5.33033685895070        1.52822519389370
C            7.78312156350896        5.04696453489814        0.36945551950490
C            8.52478204674312        6.13765185294455       -0.34362467007769
C            7.79714700127830        3.74916904333023       -0.11213615934958
C            5.98979185588869        0.62344253279801        0.14998743378900
C            6.12114960992060       -0.74292441724006        0.35250300444067
C            4.98715875461032       -1.55119104366200        0.41461368444469
C            3.69760150733011       -0.98407962754429        0.36453873913149
C            3.59505736681748        0.41155551151718        0.20920029856242
C            4.72734436347331        1.19992867248790        0.05095945582470
N            2.34286136797126        1.00602158969590        0.18459391205039
C            2.30064666711195        2.41195041520869        0.30794134055310
C            1.89426834734373        3.25410791200450       -0.72791081242091
F            1.54816378313103        2.71066704463171       -1.90904803010327
C            1.82646310814231        4.62746048783892       -0.58445162613368
C            2.19736742739448        5.20175604767688        0.61850810554594
C            2.62791226121892        4.40686190358500        1.66631713205728
C            2.66788341574561        3.03579099984724        1.50163436328736
F            3.07564459627626        2.27001465985991        2.52647497861507
C            1.14979874424377        0.29625790186917        0.12166534893885
C           -0.04491497388979        0.99746041394539        0.02146191773281
C           -1.26952275979996        0.35280402496199       -0.09770804678045
C           -1.31397348806589       -1.05659353145344       -0.20760871981157
C           -0.10538487860056       -1.72177041268816       -0.01609810074191
C            1.13119272911312       -1.11637334478341        0.19253911310637
B            2.45781510440480       -1.85301999664065        0.47337618480998
C            2.73635540478123       -3.32983316290416        0.82043110797106
C            1.76494708513755       -4.27453397683550        1.17988360876281
C            2.05800880620243       -5.59971730106019        1.39418932152777
C            3.36707040017603       -6.05889883295209        1.24397232815157
C            3.68239492430918       -7.51210106690756        1.42882638035681
C            4.35657677139108       -5.14827063746858        0.94290416814477
C            4.07304509142024       -3.78626912887528        0.76918417130929
N            5.12524266416828       -2.91613083874367        0.54250403588400
C            6.45307090269974       -3.43241315010419        0.48845826613255
C            7.12667486597952       -3.75991871879201        1.65728965958979
C            8.42835915578691       -4.22372409332770        1.58411285060103
C            9.05541263933164       -4.35080313642531        0.35820172621035
C            8.39101649787147       -4.02341573110267       -0.81908879383181
C            9.08802832464535       -4.15317895895936       -2.13822277963545
C            7.08383362517019       -3.56732941358498       -0.74135633043121
B           -2.67265680069744       -1.72527404200345       -0.50403036610052
C           -3.01485835395284       -3.17918618481441       -0.88925823150144
C           -2.08475152821648       -4.15691536869736       -1.26940277598491
C           -2.43561935322013       -5.46111720574489       -1.52200267712909
C           -3.76487685319967       -5.86475519981273       -1.39124442715553
C           -4.14414967116484       -7.29681113573410       -1.61621684066444
C           -4.71411759403384       -4.91859629973598       -1.07091812943281
C           -4.37079290509894       -3.57578399799605       -0.85885599492004
N           -5.38553355527568       -2.66674387861381       -0.61200505473321
C           -6.73736377745764       -3.11726824581486       -0.66224981345460
C           -7.33918909109232       -3.36573362847487       -1.88923599927676
C           -8.66122609418189       -3.76953767369785       -1.92904029341844
C           -9.38206472491934       -3.91209077653991       -0.75678688056357
C           -8.79222259124117       -3.66115652629002        0.47650931336465
C           -9.58917109013448       -3.77869569510196        1.73846809350070
C           -7.46135475099135       -3.26873540122768        0.51205609978888
C           -5.18715563633327       -1.31514507216657       -0.42894712912890
C           -6.28340718890583       -0.46091625352289       -0.32094859437343
C           -6.08903631364902        0.89242052365144       -0.08667506304169
N           -7.19778587119743        1.73295635031522        0.06941257555848
C           -8.30824418220410        1.26679648251991        0.78045275108475
C           -9.60349020198449        1.57658354471731        0.36809753391201
C          -10.68380906700776        1.09625869390609        1.08123892607904
C          -10.49511455063470        0.30899180060346        2.20478497682605
C           -9.21066916153872       -0.00430287109915        2.63234446534598
C           -8.98288368733370       -0.81105285591168        3.87581849731599
C           -8.12813499454152        0.47617439947772        1.91344469227506
C           -7.17582863727398        3.02406051767508       -0.46066051380644
C           -7.81166676122148        4.07580962080133        0.19802843856922
C           -7.76511265471980        5.34956098820718       -0.33412626706052
C           -7.08499960631417        5.59739128670468       -1.51333318195604
C           -6.44722860820188        4.55959320046223       -2.18419486717207
C           -5.74183407034869        4.81112417169475       -3.48318622917629
C           -6.50238502363199        3.28155777777299       -1.65489928190137
C           -4.80341521986911        1.41510430454453        0.00163947017773
C           -3.70784634979847        0.58008588460106       -0.17776977050417
C           -3.87351931973840       -0.80578452139408       -0.36817788694739
N           -2.43016974133598        1.11611508385916       -0.13982067128646
C           -2.32048072727587        2.52258612702258       -0.20292321959259
C           -2.64194275861720        3.21578378070276       -1.37059925402589
F           -3.08236651432739        2.51836435270261       -2.43108023856339
C           -2.52410567983587        4.58830269154508       -1.47635182407796
C           -2.06171606369568        5.31284182447095       -0.39187345716029
C           -1.73683936354293        4.66881033523987        0.78894472373192
C           -1.88055641104067        3.29645939615706        0.87205223686673
F           -1.57560811770511        2.68378854910341        2.03005783178047
C            9.54236594316946        1.22856898257399       -0.09159675746971
H           12.57030006744949        0.15809522202654        0.13287397526749
H           12.64034233991176        1.56190718258570       -0.92590672780692
H           11.97275970131510        1.72111289505826        0.70346340018113
H           11.44111827902475       -0.48964586229983       -2.28382098558226
H            9.20808822430004       -1.03830714478158       -3.17404593286903
H            7.18705052315048       -0.14264935563367       -2.09416181754763
H            5.89847143237524        2.24105940742760        2.24768614144491
H            5.84819296869846        4.54489080508639        3.09941900534091
H            7.04559865798362        6.34129288398238        1.90829640225678
H            9.34800888912092        6.49742163212966        0.27338196697709
H            8.93139277786790        5.78073505651913       -1.28640182383295
H            7.86585220133946        6.98155377977000       -0.54239750611440
H            8.33703186160440        3.51809671201109       -1.01956406129480
H            7.10958857355280       -1.16082990355638        0.45649063783491
H            4.65247449975965        2.25845739117853       -0.14780855821212
H            1.49358261217935        5.22519137406067       -1.41757639209509
H            2.15427821083127        6.27226410255984        0.73796340160220
H            2.92408632223049        4.83122366865749        2.61156671944491
H           -0.02068851534540        2.07444185535862        0.03708408658073
H           -0.12877118113518       -2.79671549009794       -0.02953497350994
H            0.74763279138762       -3.94342683725629        1.31529134708081
H            1.27705212957951       -6.29429142812622        1.66922621670959
H            3.11477645536516       -8.11465540597712        0.72033028146218
H            4.74213067571349       -7.70516266846059        1.27993359949236
H            3.40669412579146       -7.83426278776027        2.43260996334788
H            5.37382956434509       -5.49896741638495        0.84614485680449
H            6.62789528401560       -3.64921304485718        2.60837256300300
H            8.95747341420705       -4.48095179363948        2.48978546977075
H           10.07437241479214       -4.70651439892087        0.30948376699957
H            9.90832331108452       -3.43832504982348       -2.19511794626085
H            8.40375441094857       -3.96272844006992       -2.96069010084581
H            9.50637270528174       -5.15193652686875       -2.25325691129115
H            6.54362195234462       -3.30145937598110       -1.63846137615973
H           -1.05280049263872       -3.86895512437567       -1.39104413352570
H           -1.68482831321424       -6.18228324634506       -1.81211631318418
H           -3.87269591582461       -7.60591667882041       -2.62522380082868
H           -5.21311775973141       -7.44474397502430       -1.48240414194540
H           -3.61217640456600       -7.94238950612521       -0.91800806950821
H           -5.74648570259977       -5.22597276847621       -0.98783151609032
H           -6.76678976401586       -3.24341371771440       -2.79641884323706
H           -9.13350571847574       -3.96739990987912       -2.87986082411805
H          -10.41694998640530       -4.21940509265311       -0.79707075456630
H           -8.94604467912588       -3.99406745004342        2.58801130961494
H          -10.33876911096592       -4.56212581042349        1.65292009873020
H          -10.10340474122729       -2.83669873354271        1.93024500334302
H           -6.97785389563291       -3.06521254076316        1.45658423414702
H           -7.29234668232740       -0.82939502623786       -0.41413599948429
H           -9.75202944183327        2.18608028811128       -0.51082151797413
H          -11.68578263123563        1.33283894940835        0.75385378752720
H          -11.34951364640211       -0.05841961044627        2.75490349538403
H           -8.15847223666768       -1.50729261890153        3.73903982106334
H           -8.72525009997314       -0.14940583619022        4.70345715375798
H           -9.87571035893155       -1.36619259300480        4.15348102078719
H           -7.12386181059990        0.24340907573253        2.23735897369604
H           -8.33131073851085        3.88918133267770        1.12608722425841
H           -8.25694423499885        6.16027135322946        0.18374963593787
H           -7.05062245159501        6.59844741963768       -1.91796395702090
H           -5.25328973079577        5.78372412875373       -3.47578438055219
H           -6.46158325039068        4.80742402172645       -4.30247809847183
H           -5.00457588833719        4.03712229531156       -3.68042464927983
H           -6.01788172501931        2.46680297723142       -2.17313407944212
H           -4.68376999815139        2.46654676616568        0.21585997030354
H           -2.78572154018834        5.06813262197763       -2.40493308291581
H           -1.95770015930134        6.38333399345524       -0.46520560168896
H           -1.38073518476508        5.21147433446963        1.64966945522165
H            9.62622220093368        1.86459657362530        0.77827588855454

          :  Hamiltonian                  GFN2-xTB          :
         :: gradient norm              0.000064262678 Eh/a0 ::
         :: HOMO-LUMO gap              1.992767346099 eV    ::
         :: SCC energy              -261.340423669689 Eh    ::
         :: -> dispersion             -0.257596962766 Eh    ::
         :: repulsion energy           4.363538430271 Eh    ::

    * Orbital Energies and Occupations

         #    Occupation            Energy/Eh            Energy/eV
      -------------------------------------------------------------
         1        2.0000           -0.8289073             -22.5557
       ...           ...                  ...                  ...
       225        2.0000           -0.3857558             -10.4970
       226        2.0000           -0.3802400             -10.3469
       227        2.0000           -0.3769286             -10.2567
       228        2.0000           -0.3765429             -10.2463
       229        2.0000           -0.3717264             -10.1152
       230        2.0000           -0.3675733             -10.0022
       231        2.0000           -0.3620769              -9.8526
       232        2.0000           -0.3580913              -9.7442
       233        2.0000           -0.3501645              -9.5285
       234        2.0000           -0.3407462              -9.2722
       235        2.0000           -0.3384731              -9.2103
       236        2.0000           -0.3370459              -9.1715
       237        2.0000           -0.3318142              -9.0291 (HOMO)
       238                         -0.2585814              -7.0364 (LUMO)
       239                         -0.2580950              -7.0231
       240                         -0.2516521              -6.8478
       241                         -0.2509542              -6.8288
       242                         -0.2487018              -6.7675
       243                         -0.2360316              -6.4227
       244                         -0.2262576              -6.1568
       245                         -0.2257953              -6.1442
       246                         -0.2236040              -6.0846
       247                         -0.2235370              -6.0828
       248                         -0.2215980              -6.0300
       ...                                ...                  ...
       458                          0.7414463              20.1758
      -------------------------------------------------------------
                  HL-Gap            0.0732329 Eh            1.9928 eV

     #   Z          covCN         q      C6AA      α(0)
     1   6 C        3.758    -0.108    22.620     6.781
     2   6 C        2.966     0.017    27.639     8.623
     3   6 C        2.925    -0.051    29.274     8.873
     4   6 C        2.918    -0.033    28.813     8.802
     5   6 C        2.923    -0.052    29.299     8.877
     6   6 C        2.923     0.065    26.546     8.449
     7   7 N        2.755    -0.075    22.700     7.076
     8   6 C        2.923     0.064    26.560     8.452
     9   6 C        2.922    -0.054    29.353     8.885
    10   6 C        2.918    -0.034    28.838     8.806
    11   6 C        2.924    -0.053    29.305     8.878
    12   6 C        2.966     0.016    27.659     8.626
    13   6 C        3.758    -0.108    22.620     6.781
    14   6 C        2.928    -0.060    29.484     8.905
    15   6 C        2.926     0.066    26.515     8.445
    16   6 C        2.923    -0.089    30.232     9.017
    17   6 C        2.931     0.062    26.612     8.460
    18   6 C        2.897    -0.110    30.772     9.095
    19   6 C        2.931     0.065    26.554     8.451
    20   6 C        2.923    -0.086    30.156     9.005
    21   7 N        2.754    -0.036    21.945     6.958
    22   6 C        2.927     0.045    26.985     8.519
    23   6 C        2.790     0.158    24.572     8.120
    24   9 F        0.787    -0.207    11.308     3.972
    25   6 C        2.915    -0.059    29.468     8.902
    26   6 C        2.926    -0.033    28.822     8.804
    27   6 C        2.915    -0.054    29.346     8.883
    28   6 C        2.792     0.163    24.475     8.104
    29   9 F        0.787    -0.202    11.259     3.964
    30   6 C        2.927     0.064    26.566     8.453
    31   6 C        2.924    -0.079    29.968     8.977
    32   6 C        2.928     0.064    26.569     8.453
    33   6 C        2.884    -0.089    30.239     9.015
    34   6 C        2.931    -0.037    28.917     8.819
    35   6 C        2.884    -0.089    30.235     9.015
    36   5 B        2.724     0.190    18.525     7.212
    37   6 C        2.887    -0.087    30.175     9.006
    38   6 C        2.922    -0.036    28.892     8.815
    39   6 C        2.920    -0.053    29.319     8.879
    40   6 C        2.966     0.016    27.650     8.625
    41   6 C        3.758    -0.107    22.593     6.777
    42   6 C        2.926    -0.067    29.675     8.933
    43   6 C        2.924     0.058    26.709     8.475
    44   7 N        2.756    -0.050    22.208     6.999
    45   6 C        2.934     0.068    26.474     8.438
    46   6 C        2.921    -0.043    29.062     8.840
    47   6 C        2.919    -0.031    28.766     8.795
    48   6 C        2.926    -0.043    29.060     8.840
    49   6 C        2.966     0.021    27.545     8.609
    50   6 C        3.758    -0.110    22.655     6.786
    51   6 C        2.927    -0.047    29.175     8.858
    52   5 B        2.724     0.190    18.525     7.212
    53   6 C        2.887    -0.087    30.176     9.006
    54   6 C        2.922    -0.036    28.895     8.815
    55   6 C        2.920    -0.053    29.317     8.879
    56   6 C        2.966     0.016    27.649     8.625
    57   6 C        3.758    -0.107    22.594     6.777
    58   6 C        2.926    -0.067    29.674     8.933
    59   6 C        2.925     0.057    26.711     8.476
    60   7 N        2.756    -0.050    22.215     7.000
    61   6 C        2.934     0.068    26.477     8.439
    62   6 C        2.922    -0.043    29.060     8.840
    63   6 C        2.919    -0.030    28.760     8.794
    64   6 C        2.925    -0.043    29.057     8.840
    65   6 C        2.966     0.020    27.552     8.610
    66   6 C        3.758    -0.111    22.677     6.789
    67   6 C        2.927    -0.048    29.182     8.859
    68   6 C        2.929     0.062    26.612     8.460
    69   6 C        2.923    -0.089    30.223     9.015
    70   6 C        2.927     0.067    26.509     8.444
    71   7 N        2.755    -0.077    22.731     7.081
    72   6 C        2.924     0.065    26.538     8.448
    73   6 C        2.922    -0.053    29.306     8.878
    74   6 C        2.918    -0.032    28.810     8.802
    75   6 C        2.924    -0.051    29.268     8.872
    76   6 C        2.966     0.016    27.647     8.625
    77   6 C        3.758    -0.107    22.604     6.778
    78   6 C        2.930    -0.058    29.440     8.898
    79   6 C        2.922     0.064    26.565     8.452
    80   6 C        2.922    -0.055    29.378     8.888
    81   6 C        2.918    -0.033    28.829     8.805
    82   6 C        2.924    -0.053    29.306     8.878
    83   6 C        2.966     0.015    27.670     8.628
    84   6 C        3.758    -0.109    22.636     6.783
    85   6 C        2.929    -0.060    29.504     8.908
    86   6 C        2.922    -0.085    30.139     9.003
    87   6 C        2.930     0.064    26.557     8.451
    88   6 C        2.897    -0.110    30.770     9.095
    89   7 N        2.754    -0.036    21.945     6.957
    90   6 C        2.927     0.045    26.980     8.518
    91   6 C        2.792     0.163    24.475     8.104
    92   9 F        0.787    -0.204    11.276     3.967
    93   6 C        2.915    -0.055    29.359     8.885
    94   6 C        2.926    -0.033    28.818     8.804
    95   6 C        2.915    -0.059    29.461     8.901
    96   6 C        2.791     0.158    24.563     8.118
    97   9 F        0.787    -0.207    11.303     3.971
    98   6 C        2.928    -0.058    29.445     8.899
    99   1 H        0.925     0.044     2.391     2.418
   100   1 H        0.925     0.045     2.387     2.416
   101   1 H        0.925     0.040     2.444     2.445
   102   1 H        0.926     0.025     2.651     2.546
   103   1 H        0.926     0.029     2.602     2.522
   104   1 H        0.926     0.031     2.571     2.507
   105   1 H        0.926     0.038     2.479     2.462
   106   1 H        0.926     0.028     2.622     2.532
   107   1 H        0.926     0.026     2.650     2.546
   108   1 H        0.925     0.045     2.379     2.412
   109   1 H        0.925     0.040     2.447     2.446
   110   1 H        0.925     0.043     2.412     2.429
   111   1 H        0.926     0.030     2.591     2.517
   112   1 H        0.926     0.023     2.689     2.564
   113   1 H        0.926     0.014     2.832     2.632
   114   1 H        0.926     0.068     2.105     2.269
   115   1 H        0.926     0.060     2.197     2.318
   116   1 H        0.926     0.074     2.045     2.236
   117   1 H        0.926     0.006     2.960     2.690
   118   1 H        0.926     0.044     2.395     2.420
   119   1 H        0.926     0.035     2.516     2.480
   120   1 H        0.926     0.021     2.716     2.577
   121   1 H        0.925     0.043     2.413     2.429
   122   1 H        0.925     0.035     2.513     2.479
   123   1 H        0.925     0.043     2.415     2.430
   124   1 H        0.926     0.019     2.745     2.591
   125   1 H        0.926     0.041     2.437     2.441
   126   1 H        0.926     0.035     2.511     2.478
   127   1 H        0.926     0.034     2.524     2.484
   128   1 H        0.925     0.052     2.295     2.369
   129   1 H        0.925     0.044     2.397     2.421
   130   1 H        0.925     0.047     2.352     2.399
   131   1 H        0.926     0.040     2.452     2.449
   132   1 H        0.926     0.035     2.512     2.478
   133   1 H        0.926     0.021     2.714     2.576
   134   1 H        0.925     0.043     2.414     2.430
   135   1 H        0.925     0.035     2.512     2.478
   136   1 H        0.925     0.043     2.412     2.429
   137   1 H        0.926     0.019     2.744     2.591
   138   1 H        0.926     0.040     2.443     2.444
   139   1 H        0.926     0.036     2.508     2.477
   140   1 H        0.926     0.034     2.525     2.485
   141   1 H        0.925     0.045     2.380     2.412
   142   1 H        0.925     0.045     2.389     2.417
   143   1 H        0.924     0.056     2.249     2.345
   144   1 H        0.926     0.039     2.466     2.456
   145   1 H        0.926     0.023     2.688     2.564
   146   1 H        0.926     0.030     2.584     2.514
   147   1 H        0.926     0.028     2.610     2.526
   148   1 H        0.926     0.025     2.659     2.550
   149   1 H        0.925     0.044     2.401     2.423
   150   1 H        0.924     0.046     2.369     2.407
   151   1 H        0.925     0.040     2.453     2.449
   152   1 H        0.926     0.032     2.555     2.499
   153   1 H        0.926     0.028     2.619     2.531
   154   1 H        0.926     0.027     2.634     2.538
   155   1 H        0.926     0.025     2.660     2.550
   156   1 H        0.925     0.037     2.488     2.466
   157   1 H        0.924     0.046     2.374     2.409
   158   1 H        0.925     0.049     2.335     2.390
   159   1 H        0.926     0.037     2.489     2.467
   160   1 H        0.926     0.014     2.824     2.628
   161   1 H        0.926     0.076     2.026     2.226
   162   1 H        0.926     0.060     2.198     2.319
   163   1 H        0.926     0.068     2.102     2.267
   164   1 H        0.926     0.031     2.577     2.510

molecular dipole:
                 x           y           z       tot (Debye)
 q only:        0.469       0.598      -0.048
   full:        0.496       0.988      -0.033       2.812

 projected vibrational frequencies (cm⁻¹)
eigval :       -0.00    -0.00    -0.00     0.00     0.00     0.00
eigval :        6.17     7.06     9.71    10.36    13.08    14.11
eigval :       14.82    15.39    17.05    18.68    21.81    22.48
eigval :       26.37    27.28    29.63    32.32    33.54    41.98
eigval :       43.35    45.12    45.44    45.78    47.89    49.33
eigval :       52.49    53.22    56.83    58.76    61.84    62.88
eigval :       64.21    69.78    72.74    73.40    76.60    79.05
eigval :       83.07    84.83    86.05   104.64   113.31   114.83
eigval :      116.24   119.74   122.76   130.61   145.66   155.24
eigval :      159.34   167.66   172.43   174.36   176.82   182.97
eigval :      184.87   195.53   197.74   201.63   202.64   203.80
eigval :      205.80   207.77   209.48   215.10   217.75   220.14
eigval :      224.63   227.02   230.05   231.02   234.33   236.16
eigval :      239.27   244.76   252.26   257.36   269.47   277.46
eigval :      281.57   290.80   294.99   300.21   304.27   315.68
eigval :      319.75   324.68   327.42   330.28   335.88   349.40
eigval :      353.23   353.95   368.60   378.51   383.46   386.03
eigval :      393.12   400.04   408.70   410.36   412.36   412.95
eigval :      413.57   415.76   416.88   419.62   423.17   424.28
eigval :      426.43   429.78   446.73   449.18   458.18   458.63
eigval :      474.99   475.19   481.68   485.18   487.70   500.21
eigval :      503.79   504.30   504.74   506.02   506.57   511.26
eigval :      512.95   520.33   522.83   524.44   525.52   533.76
eigval :      535.56   539.55   541.17   545.34   547.61   550.62
eigval :      552.13   553.12   554.25   556.31   562.70   565.20
eigval :      576.73   578.45   582.21   587.60   594.40   607.26
eigval :      609.56   615.54   617.94   622.09   623.74   632.08
eigval :      633.15   635.25   641.37   655.22   656.53   660.02
eigval :      663.20   666.37   669.45   674.03   674.90   678.14
eigval :      680.50   686.74   700.65   704.50   705.42   707.53
eigval :      709.56   710.13   727.73   738.51   765.04   774.07
eigval :      782.31   787.01   788.80   790.44   792.02   795.45
eigval :      802.79   804.21   804.90   807.16   809.87   811.21
eigval :      813.84   821.26   821.89   823.17   826.50   845.29
eigval :      847.57   850.58   863.64   865.70   868.99   879.81
eigval :      880.30   881.42   881.97   883.30   883.99   884.21
eigval :      886.61   887.35   888.30   888.77   890.42   892.42
eigval :      898.21   899.18   904.54   908.95   911.22   913.61
eigval :      914.29   919.60   923.66   924.01   925.29   926.45
eigval :      927.75   928.85   929.21   929.51   930.81   939.36
eigval :      958.37   983.90   985.72   988.15   988.37   988.94
eigval :      989.95   992.09   992.74   996.15   997.42   999.21
eigval :      999.73  1002.82  1014.08  1017.23  1018.32  1019.78
eigval :     1028.22  1029.50  1030.41  1030.48  1031.64  1031.72
eigval :     1032.11  1032.28  1032.44  1034.58  1037.39  1054.33
eigval :     1060.62  1078.39  1086.19  1088.80  1102.71  1106.95
eigval :     1113.77  1121.09  1127.48  1129.40  1133.13  1134.25
eigval :     1135.48  1135.63  1154.80  1160.76  1164.62  1165.47
eigval :     1168.66  1169.84  1179.82  1182.31  1187.18  1188.17
eigval :     1189.03  1189.35  1190.12  1191.95  1192.79  1203.19
eigval :     1207.28  1209.32  1212.05  1212.97  1214.81  1215.75
eigval :     1225.31  1230.12  1237.15  1241.26  1242.06  1252.14
eigval :     1259.06  1259.70  1267.98  1268.76  1270.61  1273.43
eigval :     1273.54  1273.86  1275.47  1276.61  1279.41  1286.08
eigval :     1289.66  1295.35  1296.32  1301.20  1304.43  1307.64
eigval :     1308.36  1309.67  1310.65  1315.23  1315.69  1316.87
eigval :     1322.07  1322.87  1326.54  1330.97  1331.43  1333.20
eigval :     1336.66  1339.06  1345.56  1345.71  1357.71  1359.26
eigval :     1373.65  1385.41  1401.84  1402.28  1402.81  1403.39
eigval :     1403.70  1403.78  1404.46  1404.58  1408.06  1415.76
eigval :     1422.97  1424.79  1430.84  1435.60  1436.51  1436.78
eigval :     1438.26  1443.38  1444.79  1446.32  1448.14  1452.79
eigval :     1464.07  1466.66  1469.68  1470.84  1472.38  1474.75
eigval :     1475.53  1477.38  1477.62  1479.79  1480.22  1481.44
eigval :     1481.94  1482.19  1482.50  1482.56  1482.68  1482.76
eigval :     1483.66  1486.54  1486.99  1488.31  1488.61  1489.39
eigval :     1489.63  1490.23  1490.77  1491.55  1507.72  1538.81
eigval :     1541.35  1547.14  1549.40  1564.27  1568.02  1569.49
eigval :     1570.98  1579.03  1579.84  1581.66  1584.02  1584.66
eigval :     1585.21  1585.69  1587.27  1587.76  1595.58  1598.43
eigval :     1599.55  1600.25  1603.27  1604.32  1604.58  1604.73
eigval :     2996.16  2997.57  3001.92  3001.99  3003.05  3004.58
eigval :     3005.09  3008.72  3015.38  3015.48  3017.91  3020.11
eigval :     3022.40  3024.74  3033.09  3036.32  3038.40  3038.47
eigval :     3038.87  3042.97  3044.68  3045.47  3047.46  3048.24
eigval :     3070.73  3070.96  3071.13  3071.48  3072.21  3072.55
eigval :     3076.65  3076.74  3077.02  3078.82  3080.35  3080.55
eigval :     3080.70  3081.91  3082.22  3082.87  3083.78  3084.04
eigval :     3084.27  3085.87  3086.65  3086.85  3088.09  3088.23
eigval :     3091.47  3093.03  3095.78  3097.07  3097.22  3099.97
eigval :     3104.63  3106.32  3106.63  3106.87  3108.86  3109.31
eigval :     3112.66  3117.11  3118.01  3123.11  3124.98  3145.00

   temp. (K)  partition function   enthalpy   heat capacity  entropy
                                   cal/mol     cal/K/mol   cal/K/mol   J/K/mol
 298.15  VIB  0.219E+47            53120.256    309.614    341.920
         ROT  0.575E+09              888.752      2.981     43.063
         INT  0.126E+56            54009.009    312.595    384.983
         TR   0.444E+29             1481.254      4.968     47.298
         TOT                       55490.2627   317.5631   432.2815  1808.6656

       T/K    H(0)-H(T)+PV         H(T)/Eh          T*S/Eh         G(T)/Eh
   ------------------------------------------------------------------------
    298.15    0.884294E-01    0.135194E+01    0.205391E+00    0.114655E+01
   ------------------------------------------------------------------------

         :::::::::::::::::::::::::::::::::::::::::::::::::::::
         ::                  THERMODYNAMIC                  ::
         :::::::::::::::::::::::::::::::::::::::::::::::::::::
         :: total free energy        -255.830335201140 Eh   ::
         ::.................................................::
         :: total energy             -256.976885239417 Eh   ::
         :: zero point energy           1.263511547407 Eh   ::
         :: G(RRHO) w/o ZPVE           -0.116961509131 Eh   ::
         :: G(RRHO) contrib.            1.146550038277 Eh   ::
         :::::::::::::::::::::::::::::::::::::::::::::::::::::

           -------------------------------------------------
          | TOTAL ENERGY             -256.976885239417 Eh   |
          | TOTAL ENTHALPY           -255.624944329583 Eh   |
          | TOTAL FREE ENERGY        -255.830335201140 Eh   |
          | GRADIENT NORM               0.000064238202 Eh/α |
          | HOMO-LUMO GAP               1.992767321833 eV   |
           -------------------------------------------------

 * finished run on 2025/08/21 at 22:11:48.715
