   * xtb version 6.7.1 (edcfbbe) compiled by 'albert@albert-system' on 2024-07-22

   ID    Z sym.   atoms
    1    6 C      1-6, 8-20, 22, 23, 25-28, 30-35, 37-43, 45-51, 53-59,
                  61-70, 72-88, 90, 91, 93-96, 98
    2    7 N      7, 21, 44, 60, 71, 89
    3    9 F      24, 29, 92, 97
    4    5 B      36, 52
    5    1 H      99-164

          program call               : xtb data2507/gas/4F-m-ν-DABNA/4F-m-ν-DABNA.xyz --gfn 2 --ohess vtight --parallel 40 --molden --ceasefiles --namespace data2507/gas/4F-m-ν-DABNA/4F-m-ν-DABNA_gas_S0_preOpt
          :  Hamiltonian                  GFN2-xTB          :
 * total energy  :  -256.8276628 Eh     change       -0.1456908E-07 Eh
 * total energy  :  -256.8999825 Eh     change       -0.7231971E-01 Eh
 * total energy  :  -256.9286455 Eh     change       -0.2866301E-01 Eh
 * total energy  :  -256.9396353 Eh     change       -0.1098979E-01 Eh
 * total energy  :  -256.9465523 Eh     change       -0.6917002E-02 Eh
 * total energy  :  -256.9510649 Eh     change       -0.4512565E-02 Eh
 * total energy  :  -256.9542695 Eh     change       -0.3204670E-02 Eh
 * total energy  :  -256.9566431 Eh     change       -0.2373566E-02 Eh
 * total energy  :  -256.9583988 Eh     change       -0.1755730E-02 Eh
 * total energy  :  -256.9597075 Eh     change       -0.1308682E-02 Eh
 * total energy  :  -256.9765163 Eh     change       -0.1778185E-06 Eh
 * total energy  :  -256.9765164 Eh     change       -0.1396875E-06 Eh
 * total energy  :  -256.9765165 Eh     change       -0.1015616E-06 Eh
 * total energy  :  -256.9765166 Eh     change       -0.1045107E-06 Eh
 * total energy  :  -256.9765167 Eh     change       -0.1238533E-06 Eh
 * total energy  :  -256.9765169 Eh     change       -0.1462698E-06 Eh
 * total energy  :  -256.9765170 Eh     change       -0.1396262E-06 Eh
 * total energy  :  -256.9765171 Eh     change       -0.1087133E-06 Eh
 * total energy  :  -256.9765172 Eh     change       -0.8172549E-07 Eh
   *** GEOMETRY OPTIMIZATION CONVERGED AFTER 178 ITERATIONS ***

 final structure:
================
164
 xtb: 6.7.1 (edcfbbe)
C           12.00048158396724        1.05655446270691        0.31471690699810
C           10.70117296699251        0.78461751291901       -0.38198050183145
C           10.67408122110714        0.03487358279970       -1.55279742361921
C            9.47054806058343       -0.23190864159444       -2.18225186652787
C            8.28373228305312        0.24018342909641       -1.65830433043531
C            8.29200257641696        0.98831891350344       -0.48161296465033
N            7.09666306428624        1.46649457938255        0.06399765936372
C            7.04232190903787        2.73528890421587        0.64818874258747
C            6.23774175096053        2.96930890885502        1.76252706968145
C            6.17067019435034        4.23595599829593        2.30878618597774
C            6.90778914909764        5.27586844681678        1.77129151178825
C            7.72819330579990        5.05600077463724        0.66955191173667
C            8.53476339535533        6.18176376635214        0.09468238929089
C            7.78347937417403        3.78922034513786        0.11400545639159
C            5.94617235008518        0.67222672384492        0.01079754622392
C            6.05241910561732       -0.70504635533701        0.13933700031056
C            4.91966686518824       -1.50630378792805        0.00613091623060
C            3.64163868726088       -0.92382160620439       -0.12523298517302
C            3.55583647202094        0.48218925675557       -0.16683498814516
C            4.70224376851648        1.26672156528940       -0.17456527139464
N            2.31091317996829        1.08586316413470       -0.24823092460342
C            2.26715446900533        2.49845525131602       -0.19470024249891
C            1.89679877767850        3.27238235292220       -1.29389794550209
F            1.59021004597773        2.65224433607903       -2.44665890696256
C            1.81474427109628        4.65137018309323       -1.23519190988257
C            2.12708670204429        5.29736770218714       -0.05198253423955
C            2.50954019573067        4.56958682808123        1.06121828870880
C            2.56556145103742        3.19124676255093        0.97963519331356
F            2.91758972065891        2.48851431298345        2.06715378991073
C            1.10638706602779        0.39631825668591       -0.17640538888779
C           -0.07677285061671        1.12400905299481       -0.14318059754020
C           -1.31512100758220        0.51090089321236        0.00267186103148
C           -1.39123750123687       -0.88874392669711        0.18375416596644
C           -0.18878236302887       -1.58409436431789        0.07988846168091
C            1.06599642184151       -1.01561045769554       -0.12564914269143
B            2.39746464545547       -1.78902718588710       -0.22410691813878
C            2.67559056849351       -3.29661304631739       -0.39645064298146
C            1.72195287186079       -4.25964115608971       -0.75445212874198
C            2.01921288487612       -5.59637058742074       -0.86937894121465
C            3.31921881096466       -6.04635088593811       -0.63724490618918
C            3.64430049207807       -7.50486862993151       -0.74856788688315
C            4.29320964945549       -5.12152667167507       -0.32876915628102
C            3.99983655897846       -3.75520513465682       -0.21761289161504
N            5.04011878506700       -2.87880778833975        0.03875392459487
C            6.33599571622780       -3.41590530317247        0.29387253036698
C            6.64487024534397       -3.89381392291036        1.56012416331599
C            7.91203746944795       -4.39011527977904        1.80839897186580
C            8.86702050405008       -4.39883890474132        0.80713507813349
C            8.57005310106655       -3.92030336598735       -0.46355629956361
C            9.61245768507420       -3.89368671844620       -1.53808897847847
C            7.29316518368597       -3.43633417199701       -0.71153610506557
B           -2.77987836015618       -1.52161648752323        0.41108655697803
C           -3.17656957963173       -2.95236490171891        0.83076868832522
C           -2.29828428221478       -3.92076749282626        1.33660544127971
C           -2.70099552001107       -5.19217819590835        1.66798533675569
C           -4.03720454434379       -5.56422336916093        1.51813051523757
C           -4.47766805948279       -6.95352341892220        1.86621428402865
C           -4.93822719255598       -4.62335283227399        1.06867117978770
C           -4.53659258090509       -3.32236600872139        0.73493858240267
N           -5.50741410276385       -2.41525457349386        0.34652837391923
C           -6.84111585035779       -2.88330989417849        0.16104280998643
C           -7.17831608450671       -3.54272752776744       -1.01343244037782
C           -8.47964319375257       -3.97130518372291       -1.20270557867446
C           -9.44107597944857       -3.73200247514442       -0.23655336948585
C           -9.11647370219192       -3.06983027001198        0.94122507719074
C          -10.16148854312262       -2.77175728712312        1.97108522783641
C           -7.80511492147214       -2.65723206509149        1.13386968411419
C           -5.27563798198392       -1.06922117945670        0.15937013547505
C           -6.34238961282604       -0.20540196029220       -0.08123679197268
C           -6.12021878977224        1.16017416330139       -0.18451090395109
N           -7.20840290561754        2.02714185221150       -0.33406584451699
C           -8.39756279207701        1.75554016800248        0.35050633435990
C           -9.63414315078301        1.98564757640132       -0.25081876963710
C          -10.79649835204587        1.70149396155894        0.43826348184139
C          -10.74802250952617        1.18748877375516        1.72306353550661
C           -9.52357131775843        0.95698590349465        2.33919163472107
C           -9.45271197834120        0.44556645734479        3.74721141330240
C           -8.35883264873602        1.24358565589889        1.64609591522199
C           -7.09566048132939        3.16552227853945       -1.13602128136625
C           -7.73457826393061        4.35204835706171       -0.77757153768447
C           -7.59987270347380        5.47334113071165       -1.57247851030409
C           -6.82839431623270        5.43529162880929       -2.72068007589021
C           -6.18732165786694        4.25950889052767       -3.09449336760659
C           -5.38339207998161        4.19580247536992       -4.35845369672835
C           -6.33064631180068        3.13318452035269       -2.30142117992687
C           -4.82703566705029        1.66883165338322       -0.12903733617280
C           -3.74986392454774        0.79860369304855       -0.01457587325669
C           -3.95138948536956       -0.58278464365099        0.17983916248657
N           -2.45826444155660        1.29977764431332       -0.04290330932479
C           -2.29881310397834        2.67536634816623       -0.33055413355005
C           -2.54411519384501        3.18303905744963       -1.60673226476230
F           -2.96115704743968        2.33805887091753       -2.56324702079912
C           -2.37195306555736        4.51780726745424       -1.91982305667938
C           -1.92433031538204        5.38795909718248       -0.94125050948846
C           -1.66284433571887        4.92717510557470        0.33708699667138
C           -1.86006464814692        3.58959598066020        0.62653814773871
F           -1.60182259203246        3.14883700861355        1.86983119825243
C            9.50873631632332        1.25211119352336        0.14504195083723
H           11.91020966225195        1.90482064029529        0.98871665796802
H           12.29861518834085        0.18653789048521        0.90073510131052
H           12.78965007351521        1.25967954648490       -0.40638115757057
H           11.59887971674918       -0.33440017773662       -1.97238477914940
H            9.45760195609395       -0.80226864075017       -3.09996012699898
H            7.34667563630033        0.04108085193271       -2.15596195023441
H            5.66877211935076        2.15936018506664        2.19237193920217
H            5.54378059536091        4.40746904803447        3.17170503986363
H            6.85310628277779        6.26283239735020        2.20719337371032
H            9.27785282822296        6.51911844415114        0.81693013376636
H            9.04984360198160        5.86993116216027       -0.81032699874268
H            7.89324731680514        7.02960548975931       -0.14151509105257
H            8.40497559033247        3.60821955806032       -0.75167336459853
H            7.02419378351310       -1.13563444654769        0.31817203739918
H            4.65445512642374        2.33698126505568       -0.30571995567259
H            1.51330391701710        5.19698929996473       -2.11462870800647
H            2.07219962791519        6.37268669172059        0.00225423685809
H            2.75639678297940        5.05096151093410        1.99324824695981
H           -0.03239663755007        2.19750383702820       -0.23119269639329
H           -0.23282087487005       -2.65464512383923        0.16723076579245
H            0.71710876661613       -3.93617473604248       -0.97442653424022
H            1.25072849619362       -6.30463631600428       -1.14467429866707
H            3.06001654084369       -8.07716600127709       -0.02852457136255
H            3.39665950987583       -7.87363518983028       -1.74349023977384
H            4.70020227469410       -7.68606388882552       -0.56220116095553
H            5.30845888987122       -5.46297868852136       -0.18721968622126
H            5.89210091013229       -3.87593456102956        2.33366502751089
H            8.15766917434991       -4.76688422970041        2.79024830200915
H            9.85644195677476       -4.78078341398900        1.01303593427753
H           10.35907256835719       -4.66762337104202       -1.37678498349594
H           10.11589391894430       -2.92615297966586       -1.53147453078051
H            9.16256819701855       -4.03227900509230       -2.51838903456780
H            7.03610362977783       -3.05898283661702       -1.69076907177938
H           -1.26677859721617       -3.65089818786715        1.49717734969549
H           -1.98762245531416       -5.90808052724934        2.05082523421939
H           -5.54777131314975       -7.07444572165405        1.71533917324383
H           -4.24405915778870       -7.17584936243589        2.90698521956746
H           -3.95392275757539       -7.68105992688866        1.24675391891056
H           -5.98055566333903       -4.89695518522279        0.99044135075025
H           -6.42015776507983       -3.71621370842849       -1.76208816531180
H           -8.74723362195917       -4.48853522489062       -2.11217258393452
H          -10.45719440384229       -4.06133048852045       -0.39830178634626
H          -10.52847561579766       -1.75444208554756        1.83061971448873
H           -9.74900846808864       -2.84477619995247        2.97471776013320
H          -11.00310772942737       -3.45431277729205        1.88211072749631
H           -7.52596436576949       -2.14248668232925        2.04184765269349
H           -7.35247083249616       -0.57173216157069       -0.16586225160571
H           -9.67336626855883        2.37994005651179       -1.25530545768239
H          -11.75213603881482        1.87522550214590       -0.03465392807882
H          -11.66489705672002        0.96965061883051        2.25182925735294
H          -10.37119370585610       -0.06602969602540        4.02501289934962
H           -8.61407152055836       -0.23606692904454        3.87068594137598
H           -9.30840318681924        1.27835219578469        4.43634971114608
H           -7.40027882758422        1.07490868777603        2.11565704018684
H           -8.32621846135388        4.38873377674030        0.12513412213252
H           -8.09431976654402        6.39049296167786       -1.28667186493052
H           -6.72554214902942        6.31993960340200       -3.33218195480340
H           -4.91564039920146        5.15550775158881       -4.56942965721527
H           -6.03405972375451        3.95087446309654       -5.19867795598709
H           -4.61819306451315        3.42669692539384       -4.29325376136859
H           -5.84305459857079        2.21253766941201       -2.58714872639051
H           -4.68861666205091        2.73785019090981       -0.18505012487308
H           -2.58107359660045        4.85406801577784       -2.92196001278524
H           -1.77893242850651        6.43023274977577       -1.17528886260107
H           -1.31276256872865        5.58630148958326        1.11486963194979
H            9.51416166466536        1.82919767432918        1.05887577475908

          :  Hamiltonian                  GFN2-xTB          :
         :: gradient norm              0.000021127140 Eh/a0 ::
         :: HOMO-LUMO gap              1.948009561758 eV    ::
         :: SCC energy              -261.339250690981 Eh    ::
         :: -> dispersion             -0.258109403129 Eh    ::
         :: repulsion energy           4.362733486477 Eh    ::

    * Orbital Energies and Occupations

         #    Occupation            Energy/Eh            Energy/eV
      -------------------------------------------------------------
         1        2.0000           -0.8301426             -22.5893
       ...           ...                  ...                  ...
       225        2.0000           -0.3858385             -10.4992
       226        2.0000           -0.3804373             -10.3522
       227        2.0000           -0.3767665             -10.2523
       228        2.0000           -0.3759946             -10.2313
       229        2.0000           -0.3721505             -10.1267
       230        2.0000           -0.3682619             -10.0209
       231        2.0000           -0.3622861              -9.8583
       232        2.0000           -0.3578940              -9.7388
       233        2.0000           -0.3503818              -9.5344
       234        2.0000           -0.3409255              -9.2771
       235        2.0000           -0.3386851              -9.2161
       236        2.0000           -0.3369501              -9.1689
       237        2.0000           -0.3312793              -9.0146 (HOMO)
       238                         -0.2596913              -7.0666 (LUMO)
       239                         -0.2590590              -7.0494
       240                         -0.2529895              -6.8842
       241                         -0.2524635              -6.8699
       242                         -0.2489350              -6.7739
       243                         -0.2364571              -6.4343
       244                         -0.2259014              -6.1471
       245                         -0.2257471              -6.1429
       246                         -0.2234142              -6.0794
       247                         -0.2232957              -6.0762
       248                         -0.2217898              -6.0352
       ...                                ...                  ...
       458                          0.7403677              20.1464
      -------------------------------------------------------------
                  HL-Gap            0.0715880 Eh            1.9480 eV

     #   Z          covCN         q      C6AA      α(0)
     1   6 C        3.758    -0.108    22.621     6.781
     2   6 C        2.966     0.016    27.641     8.624
     3   6 C        2.924    -0.052    29.288     8.875
     4   6 C        2.918    -0.033    28.819     8.803
     5   6 C        2.923    -0.052    29.298     8.876
     6   6 C        2.923     0.065    26.538     8.448
     7   7 N        2.755    -0.076    22.713     7.078
     8   6 C        2.923     0.064    26.567     8.453
     9   6 C        2.922    -0.054    29.336     8.882
    10   6 C        2.918    -0.033    28.827     8.805
    11   6 C        2.924    -0.053    29.307     8.878
    12   6 C        2.966     0.015    27.669     8.628
    13   6 C        3.758    -0.108    22.617     6.780
    14   6 C        2.928    -0.060    29.491     8.906
    15   6 C        2.926     0.066    26.515     8.444
    16   6 C        2.923    -0.090    30.260     9.021
    17   6 C        2.928     0.062    26.613     8.460
    18   6 C        2.897    -0.110    30.783     9.097
    19   6 C        2.928     0.065    26.553     8.451
    20   6 C        2.922    -0.087    30.179     9.009
    21   7 N        2.754    -0.038    21.974     6.962
    22   6 C        2.928     0.046    26.967     8.516
    23   6 C        2.791     0.159    24.559     8.118
    24   9 F        0.787    -0.205    11.291     3.969
    25   6 C        2.915    -0.059    29.472     8.902
    26   6 C        2.926    -0.033    28.817     8.803
    27   6 C        2.915    -0.055    29.358     8.885
    28   6 C        2.791     0.163    24.461     8.102
    29   9 F        0.787    -0.200    11.235     3.959
    30   6 C        2.930     0.064    26.556     8.451
    31   6 C        2.924    -0.081    30.037     8.988
    32   6 C        2.930     0.064    26.559     8.452
    33   6 C        2.884    -0.089    30.236     9.015
    34   6 C        2.932    -0.037    28.910     8.818
    35   6 C        2.884    -0.089    30.233     9.014
    36   5 B        2.724     0.190    18.523     7.212
    37   6 C        2.887    -0.087    30.181     9.007
    38   6 C        2.922    -0.036    28.894     8.815
    39   6 C        2.920    -0.053    29.317     8.879
    40   6 C        2.966     0.016    27.649     8.625
    41   6 C        3.758    -0.107    22.595     6.777
    42   6 C        2.927    -0.067    29.670     8.933
    43   6 C        2.926     0.057    26.711     8.476
    44   7 N        2.756    -0.051    22.221     7.001
    45   6 C        2.933     0.068    26.473     8.438
    46   6 C        2.922    -0.043    29.070     8.842
    47   6 C        2.919    -0.030    28.760     8.794
    48   6 C        2.925    -0.043    29.056     8.840
    49   6 C        2.966     0.020    27.562     8.611
    50   6 C        3.758    -0.111    22.675     6.789
    51   6 C        2.928    -0.048    29.180     8.859
    52   5 B        2.724     0.190    18.524     7.212
    53   6 C        2.887    -0.087    30.183     9.007
    54   6 C        2.922    -0.036    28.895     8.815
    55   6 C        2.920    -0.053    29.317     8.879
    56   6 C        2.966     0.016    27.651     8.625
    57   6 C        3.758    -0.107    22.594     6.777
    58   6 C        2.927    -0.067    29.671     8.933
    59   6 C        2.926     0.057    26.714     8.476
    60   7 N        2.756    -0.051    22.227     7.002
    61   6 C        2.932     0.068    26.479     8.439
    62   6 C        2.922    -0.043    29.070     8.842
    63   6 C        2.919    -0.030    28.756     8.794
    64   6 C        2.925    -0.042    29.053     8.839
    65   6 C        2.966     0.020    27.564     8.612
    66   6 C        3.758    -0.111    22.677     6.789
    67   6 C        2.928    -0.047    29.177     8.858
    68   6 C        2.928     0.062    26.616     8.461
    69   6 C        2.923    -0.090    30.258     9.021
    70   6 C        2.926     0.067    26.509     8.444
    71   7 N        2.755    -0.077    22.732     7.081
    72   6 C        2.924     0.065    26.535     8.448
    73   6 C        2.922    -0.053    29.305     8.877
    74   6 C        2.918    -0.033    28.812     8.802
    75   6 C        2.924    -0.051    29.278     8.873
    76   6 C        2.965     0.016    27.645     8.624
    77   6 C        3.758    -0.107    22.596     6.777
    78   6 C        2.929    -0.058    29.435     8.898
    79   6 C        2.922     0.064    26.569     8.453
    80   6 C        2.922    -0.055    29.371     8.887
    81   6 C        2.918    -0.033    28.833     8.805
    82   6 C        2.924    -0.052    29.300     8.877
    83   6 C        2.966     0.016    27.658     8.626
    84   6 C        3.758    -0.110    22.648     6.785
    85   6 C        2.929    -0.060    29.488     8.905
    86   6 C        2.922    -0.087    30.176     9.008
    87   6 C        2.928     0.064    26.556     8.451
    88   6 C        2.897    -0.110    30.784     9.097
    89   7 N        2.754    -0.038    21.976     6.962
    90   6 C        2.928     0.046    26.960     8.515
    91   6 C        2.792     0.163    24.463     8.102
    92   9 F        0.787    -0.202    11.255     3.963
    93   6 C        2.915    -0.055    29.364     8.886
    94   6 C        2.926    -0.033    28.812     8.803
    95   6 C        2.915    -0.059    29.464     8.901
    96   6 C        2.791     0.159    24.554     8.117
    97   9 F        0.787    -0.205    11.287     3.969
    98   6 C        2.928    -0.058    29.449     8.900
    99   1 H        0.925     0.041     2.432     2.439
   100   1 H        0.924     0.046     2.374     2.410
   101   1 H        0.925     0.043     2.412     2.428
   102   1 H        0.926     0.025     2.655     2.548
   103   1 H        0.926     0.028     2.609     2.526
   104   1 H        0.926     0.031     2.571     2.508
   105   1 H        0.926     0.039     2.460     2.453
   106   1 H        0.926     0.029     2.598     2.521
   107   1 H        0.926     0.025     2.653     2.547
   108   1 H        0.925     0.045     2.384     2.414
   109   1 H        0.925     0.040     2.451     2.448
   110   1 H        0.925     0.043     2.415     2.430
   111   1 H        0.926     0.029     2.602     2.522
   112   1 H        0.926     0.023     2.682     2.561
   113   1 H        0.926     0.013     2.839     2.635
   114   1 H        0.926     0.069     2.095     2.263
   115   1 H        0.926     0.061     2.192     2.315
   116   1 H        0.926     0.075     2.035     2.231
   117   1 H        0.926     0.000     3.050     2.731
   118   1 H        0.926     0.044     2.391     2.418
   119   1 H        0.926     0.035     2.516     2.481
   120   1 H        0.926     0.021     2.713     2.576
   121   1 H        0.925     0.043     2.409     2.427
   122   1 H        0.925     0.042     2.417     2.431
   123   1 H        0.925     0.035     2.512     2.478
   124   1 H        0.926     0.019     2.751     2.594
   125   1 H        0.926     0.040     2.442     2.444
   126   1 H        0.926     0.036     2.508     2.477
   127   1 H        0.926     0.034     2.533     2.489
   128   1 H        0.925     0.044     2.396     2.421
   129   1 H        0.924     0.055     2.263     2.353
   130   1 H        0.925     0.046     2.375     2.410
   131   1 H        0.926     0.041     2.439     2.442
   132   1 H        0.926     0.035     2.515     2.480
   133   1 H        0.926     0.021     2.713     2.576
   134   1 H        0.925     0.035     2.512     2.478
   135   1 H        0.925     0.042     2.418     2.432
   136   1 H        0.925     0.043     2.408     2.427
   137   1 H        0.926     0.019     2.751     2.594
   138   1 H        0.926     0.040     2.445     2.445
   139   1 H        0.926     0.036     2.507     2.476
   140   1 H        0.926     0.034     2.530     2.488
   141   1 H        0.924     0.055     2.254     2.348
   142   1 H        0.925     0.047     2.363     2.404
   143   1 H        0.925     0.043     2.407     2.426
   144   1 H        0.926     0.039     2.456     2.451
   145   1 H        0.926     0.024     2.676     2.558
   146   1 H        0.926     0.030     2.585     2.514
   147   1 H        0.926     0.028     2.611     2.527
   148   1 H        0.926     0.025     2.656     2.549
   149   1 H        0.925     0.041     2.440     2.443
   150   1 H        0.925     0.042     2.420     2.433
   151   1 H        0.924     0.046     2.372     2.408
   152   1 H        0.926     0.032     2.556     2.500
   153   1 H        0.926     0.027     2.624     2.533
   154   1 H        0.926     0.027     2.636     2.539
   155   1 H        0.926     0.025     2.660     2.551
   156   1 H        0.925     0.037     2.494     2.470
   157   1 H        0.924     0.046     2.373     2.409
   158   1 H        0.925     0.051     2.305     2.374
   159   1 H        0.926     0.038     2.469     2.457
   160   1 H        0.926     0.013     2.834     2.633
   161   1 H        0.926     0.076     2.018     2.222
   162   1 H        0.926     0.061     2.191     2.315
   163   1 H        0.926     0.069     2.092     2.262
   164   1 H        0.926     0.031     2.572     2.508

molecular dipole:
                 x           y           z       tot (Debye)
 q only:        0.439       0.757      -0.017
   full:        0.468       1.171      -0.033       3.207

 projected vibrational frequencies (cm⁻¹)
eigval :       -0.00    -0.00    -0.00     0.00     0.00     0.00
eigval :        6.27     6.86    12.93    14.08    14.45    15.40
eigval :       16.54    16.70    19.73    20.42    21.49    23.12
eigval :       26.39    28.52    30.76    34.26    35.27    36.72
eigval :       44.15    44.71    45.20    45.38    48.36    49.67
eigval :       53.48    53.81    55.15    57.47    59.55    61.69
eigval :       64.44    66.18    70.97    73.17    73.83    76.00
eigval :       83.07    83.91    88.47   104.10   106.92   112.43
eigval :      114.82   117.10   122.18   129.03   142.45   152.01
eigval :      157.79   164.16   170.49   175.03   176.62   179.31
eigval :      186.15   186.82   199.16   201.85   202.79   204.02
eigval :      204.40   206.59   208.59   214.62   219.74   221.00
eigval :      221.71   225.85   229.18   229.98   235.71   238.64
eigval :      239.74   242.58   245.52   263.13   266.09   285.86
eigval :      288.37   293.01   294.01   294.87   297.85   313.82
eigval :      317.94   325.13   327.58   329.22   338.09   349.56
eigval :      352.84   357.81   369.74   377.95   381.70   385.86
eigval :      394.33   402.74   408.91   412.27   412.95   413.86
eigval :      414.98   415.54   418.31   419.25   420.80   423.92
eigval :      427.82   428.84   445.86   447.07   454.21   457.55
eigval :      474.59   474.70   481.89   484.64   485.99   500.30
eigval :      502.91   503.64   505.26   505.93   506.78   511.34
eigval :      513.72   518.71   520.79   526.81   529.78   533.58
eigval :      535.66   539.63   542.11   545.50   547.95   551.23
eigval :      552.58   553.84   556.21   558.19   562.80   567.08
eigval :      575.51   581.41   583.27   585.82   589.94   607.68
eigval :      608.16   618.24   618.49   622.15   623.14   629.60
eigval :      632.19   636.36   642.58   655.48   657.00   660.25
eigval :      663.18   666.84   669.98   674.22   675.02   678.16
eigval :      679.90   687.22   701.66   704.38   706.02   708.08
eigval :      710.10   710.52   727.77   738.92   764.59   774.27
eigval :      782.29   788.24   789.11   790.44   792.50   795.96
eigval :      801.77   803.88   805.16   806.29   806.98   809.01
eigval :      810.73   813.11   821.32   822.71   824.79   843.92
eigval :      845.15   850.42   863.54   866.56   867.97   876.27
eigval :      880.25   881.22   882.01   884.20   885.53   886.67
eigval :      887.95   888.38   889.81   890.46   892.34   893.21
eigval :      897.13   897.24   904.32   908.45   910.84   914.54
eigval :      915.00   918.57   922.53   924.20   924.28   926.36
eigval :      928.18   928.26   929.02   929.95   931.02   939.00
eigval :      958.02   983.86   985.77   988.09   988.47   989.03
eigval :      990.11   992.44   993.55   996.16   996.63   998.21
eigval :      999.86  1002.07  1014.42  1017.59  1019.25  1020.52
eigval :     1028.83  1029.42  1030.76  1031.17  1031.50  1031.56
eigval :     1032.13  1032.76  1034.62  1036.25  1038.31  1053.98
eigval :     1060.90  1078.85  1085.77  1089.37  1102.53  1106.84
eigval :     1113.60  1120.44  1128.05  1128.64  1133.39  1134.36
eigval :     1135.50  1135.91  1155.11  1161.31  1164.72  1165.19
eigval :     1169.04  1169.98  1179.69  1182.19  1187.75  1188.33
eigval :     1189.00  1189.27  1190.49  1192.07  1192.86  1203.90
eigval :     1206.98  1208.70  1211.96  1212.84  1215.50  1216.51
eigval :     1225.64  1230.24  1237.81  1241.66  1241.93  1252.07
eigval :     1259.70  1260.71  1267.97  1269.11  1271.46  1273.41
eigval :     1273.62  1273.89  1275.81  1276.47  1278.76  1286.26
eigval :     1290.37  1295.04  1295.49  1301.78  1305.47  1306.89
eigval :     1307.90  1308.80  1309.18  1315.35  1315.96  1316.85
eigval :     1321.14  1322.57  1325.78  1330.78  1331.03  1331.86
eigval :     1337.84  1339.40  1345.25  1345.45  1356.53  1358.33
eigval :     1373.00  1385.11  1402.75  1402.86  1403.09  1403.38
eigval :     1404.34  1404.55  1404.70  1405.68  1408.03  1415.50
eigval :     1422.06  1424.96  1431.30  1434.95  1436.14  1436.34
eigval :     1438.21  1443.35  1445.35  1446.67  1448.01  1453.03
eigval :     1464.24  1466.44  1470.04  1471.29  1472.39  1474.40
eigval :     1475.23  1477.08  1478.81  1479.63  1480.25  1480.62
eigval :     1481.18  1482.12  1482.55  1482.62  1482.71  1483.84
eigval :     1484.38  1486.08  1486.18  1488.00  1488.34  1488.68
eigval :     1489.86  1490.09  1490.27  1490.97  1509.63  1538.86
eigval :     1541.80  1547.68  1549.68  1563.88  1568.82  1570.40
eigval :     1570.62  1579.24  1579.57  1581.58  1584.18  1585.26
eigval :     1585.75  1585.92  1587.93  1588.31  1595.24  1597.56
eigval :     1598.78  1598.91  1602.92  1603.65  1604.65  1604.76
eigval :     2996.11  2996.72  2996.73  2998.93  3000.38  3002.06
eigval :     3002.10  3003.58  3015.49  3015.57  3018.86  3027.00
eigval :     3029.96  3032.56  3036.90  3038.16  3038.34  3038.43
eigval :     3038.67  3039.49  3041.50  3041.97  3044.44  3050.33
eigval :     3069.67  3070.80  3070.93  3070.94  3071.39  3072.87
eigval :     3076.20  3076.33  3076.62  3079.37  3079.42  3079.81
eigval :     3080.65  3080.93  3081.42  3081.90  3084.40  3085.26
eigval :     3085.30  3086.35  3086.62  3087.59  3090.84  3091.08
eigval :     3091.21  3093.17  3094.46  3097.50  3097.55  3102.09
eigval :     3105.54  3106.34  3106.60  3106.71  3107.51  3112.49
eigval :     3113.18  3117.81  3118.46  3123.27  3124.63  3149.02

   temp. (K)  partition function   enthalpy   heat capacity  entropy
                                   cal/mol     cal/K/mol   cal/K/mol   J/K/mol
 298.15  VIB  0.935E+46            53156.815    309.529    341.502
         ROT  0.573E+09              888.752      2.981     43.057
         INT  0.536E+55            54045.567    312.510    384.559
         TR   0.444E+29             1481.254      4.968     47.298
         TOT                       55526.8214   317.4777   431.8579  1806.8933

       T/K    H(0)-H(T)+PV         H(T)/Eh          T*S/Eh         G(T)/Eh
   ------------------------------------------------------------------------
    298.15    0.884876E-01    0.135193E+01    0.205190E+00    0.114674E+01
   ------------------------------------------------------------------------

         :::::::::::::::::::::::::::::::::::::::::::::::::::::
         ::                  THERMODYNAMIC                  ::
         :::::::::::::::::::::::::::::::::::::::::::::::::::::
         :: total free energy        -255.829773044432 Eh   ::
         ::.................................................::
         :: total energy             -256.976517204506 Eh   ::
         :: zero point energy           1.263446147545 Eh   ::
         :: G(RRHO) w/o ZPVE           -0.116701987471 Eh   ::
         :: G(RRHO) contrib.            1.146744160074 Eh   ::
         :::::::::::::::::::::::::::::::::::::::::::::::::::::

           -------------------------------------------------
          | TOTAL ENERGY             -256.976517204506 Eh   |
          | TOTAL ENTHALPY           -255.624583434597 Eh   |
          | TOTAL FREE ENERGY        -255.829773044432 Eh   |
          | GRADIENT NORM               0.000021104573 Eh/α |
          | HOMO-LUMO GAP               1.948009065321 eV   |
           -------------------------------------------------

 * finished run on 2025/08/21 at 21:29:28.647
