   * xtb version 6.7.1 (edcfbbe) compiled by 'albert@albert-system' on 2024-07-22

   ID    Z sym.   atoms
    1    6 C      1-6, 8-20, 22, 23, 25-28, 30-35, 37-43, 45-51, 53-59,
                  61-70, 72-88, 90, 91, 93-96, 98
    2    7 N      7, 21, 44, 60, 71, 89
    3    9 F      24, 29, 92, 97
    4    5 B      36, 52
    5    1 H      99-164

          program call               : xtb data2507/gas/4F-m-ν-DABNA/4F-m-ν-DABNA_gas_T1_crest.xyz --gfn 2 --spinpol --tblite --uhf 2 --ohess vtight --parallel 40 --molden --ceasefiles --namespace data2507/gas/4F-m-ν-DABNA/4F-m-ν-DABNA_gas_T1_finalOpt
 * total energy  :  -256.8974578 Eh     change       -0.7298672E-07 Eh
 * total energy  :  -256.8974612 Eh     change       -0.3312330E-05 Eh
 * total energy  :  -256.8974631 Eh     change       -0.1996111E-05 Eh
 * total energy  :  -256.8974662 Eh     change       -0.3014705E-05 Eh
 * total energy  :  -256.8974689 Eh     change       -0.2712950E-05 Eh
 * total energy  :  -256.8974730 Eh     change       -0.4149679E-05 Eh
 * total energy  :  -256.8974783 Eh     change       -0.5297170E-05 Eh
 * total energy  :  -256.8974842 Eh     change       -0.5899871E-05 Eh
 * total energy  :  -256.8974895 Eh     change       -0.5281432E-05 Eh
 * total energy  :  -256.8974948 Eh     change       -0.5257950E-05 Eh
 * total energy  :  -256.8975706 Eh     change       -0.2818460E-06 Eh
 * total energy  :  -256.8975710 Eh     change       -0.3708159E-06 Eh
 * total energy  :  -256.8975713 Eh     change       -0.2790130E-06 Eh
 * total energy  :  -256.8975715 Eh     change       -0.2350742E-06 Eh
 * total energy  :  -256.8975717 Eh     change       -0.2224022E-06 Eh
 * total energy  :  -256.8975721 Eh     change       -0.3302558E-06 Eh
 * total energy  :  -256.8975725 Eh     change       -0.4239170E-06 Eh
 * total energy  :  -256.8975730 Eh     change       -0.4797705E-06 Eh
 * total energy  :  -256.8975730 Eh     change       -0.1968687E-07 Eh
   *** GEOMETRY OPTIMIZATION CONVERGED AFTER 68 ITERATIONS ***

 final structure:
================
164
 xtb: 6.7.1 (edcfbbe)
C            5.81707678240196        4.87373181435967        3.01846222845729
C            6.49063039146118        4.50568194699911        1.73108815765045
C            7.13440185329544        5.47274743318383        0.96652722244898
C            7.78619429642760        5.11841365124754       -0.20176880827618
C            7.80000658564591        3.80538276117308       -0.62955343879221
C            7.15737968713485        2.82372133815591        0.12417196862265
N            7.14639212155936        1.49274310422567       -0.30259925736575
C            8.25511379164056        0.94082343577648       -0.94956391087575
C            8.08333893685910        0.03057928704171       -1.99234281901114
C            9.18606544849546       -0.51716275778208       -2.61652650803984
C           10.46520760058619       -0.16980587682640       -2.21911501073641
C           10.65493472617676        0.74021165814806       -1.18382877257511
C           12.04142796015615        1.10509899669384       -0.74591379138585
C            9.54808915739574        1.28515698970559       -0.55611171276447
C            6.01389299871376        0.70155572124454       -0.08530654163088
C            6.16171549607581       -0.64659903848694        0.23280079231099
C            5.03782584368707       -1.45793065960361        0.38077183863304
C            3.73829551158699       -0.91482854054528        0.30039842278608
C            3.61854272914750        0.46647405068070        0.04305399527637
C            4.74213131125846        1.25503242046885       -0.19480918368937
N            2.36034710513929        1.04375253914486        0.00024172489829
C            2.29318349142436        2.45648684427564       -0.02947077530267
C            1.82822306564036        3.16706476621599       -1.14428420876891
F            1.47321616739740        2.47171031368459       -2.24349702034441
C            1.71186137130061        4.53905558714458       -1.15274040589643
C            2.08343125893267        5.26169064587693       -0.02543780885999
C            2.57215604241067        4.59946828270899        1.09395292638992
C            2.66754035024382        3.22603001512995        1.07895566692054
F            3.13518535794364        2.58821336731932        2.17112790448866
C            1.18088581167438        0.32665692042815        0.02920737496701
C           -0.02651921499140        1.01308480556570       -0.03098206039621
C           -1.24866302491033        0.35336100326374       -0.08580834987970
C           -1.27705002277509       -1.06529605046814       -0.21018196483966
C           -0.05730667538901       -1.71741079827533       -0.01788277315463
C            1.17711232658432       -1.09119824412306        0.16485065860316
B            2.51362560129040       -1.79038709714134        0.47265857265507
C            2.81002644056921       -3.23782815941105        0.90775510937520
C            1.85155073470693       -4.17466155546315        1.32139816279625
C            2.16755390711677       -5.47816567354132        1.62711654157254
C            3.48520347366278       -5.92615489812855        1.52471824566487
C            3.82280492552694       -7.35733462678373        1.81146133201054
C            4.46407918855022       -5.01820340068841        1.17151632592160
C            4.15749422796642       -3.67869474586838        0.90212075088275
N            5.19610797916011       -2.80606797079614        0.62401790518795
C            6.53303023268255       -3.29959461642947        0.65077219219799
C            7.17035939779282       -3.52399769822303        1.86391185677476
C            8.48012740909563       -3.96933839490520        1.87006880342918
C            9.15136251730839       -4.17946128621685        0.67897893557757
C            8.52377113116549       -3.95516988674243       -0.54151876754569
C            9.26752607376930       -4.15565916457982       -1.82523979721906
C            7.20727532659328       -3.51783522812824       -0.54328231381368
B           -2.62706937017954       -1.73542397448548       -0.52377328091836
C           -2.95176487767418       -3.17731003270547       -0.95667444195327
C           -2.01021476538181       -4.13948161042970       -1.35096753945540
C           -2.35351660218474       -5.43538759667515       -1.65961945159441
C           -3.68354322876048       -5.84991360979908       -1.57975627400397
C           -4.05204306550583       -7.27314355052785       -1.86788161281314
C           -4.64518207114155       -4.91619920996618       -1.24655102694254
C           -4.30972044879932       -3.58405872968411       -0.97516932089030
N           -5.33236222618919       -2.68585462551082       -0.71744167199984
C           -6.67942605832761       -3.13623189687254       -0.83569581123175
C           -7.23508351384428       -3.33185427943141       -2.09378563576719
C           -8.55348505933252       -3.73553695427895       -2.19857107679238
C           -9.31618178482492       -3.93031592202740       -1.06052749171234
C           -8.77237932000744       -3.73287134470863        0.20321816158671
C           -9.61122728192609       -3.90317504707298        1.43121978686125
C           -7.44463771508238       -3.34067199771904        0.30407547035141
C           -5.14489904089527       -1.34465935690936       -0.45431853601317
C           -6.24957850724955       -0.50860922260528       -0.30043404050678
C           -6.07105804451165        0.83419729944061        0.02428609022975
N           -7.18890802944128        1.64499974674043        0.25096482071984
C           -8.28316900700951        1.11231616793066        0.93855281770522
C           -9.58830282899357        1.43137532457676        0.56430854651276
C          -10.65249559694562        0.88083667724196        1.24997894432431
C          -10.43870097906965        0.01352692562860        2.30856744083620
C           -9.14436623736044       -0.31062257244316        2.69792412027516
C           -8.89106965572677       -1.20669229751764        3.87335608904618
C           -8.07786101193939        0.23999404362121        2.00639470059949
C           -7.19392552814965        2.96800911826081       -0.19468344129152
C           -7.83921929244898        3.96336386768426        0.53886717655777
C           -7.81685180241506        5.26984984221643        0.09186025949142
C           -7.15294863843014        5.60517659307617       -1.07511558637579
C           -6.50596473584613        4.62450873907886       -1.81954482653482
C           -5.81730591251685        4.97223853747044       -3.10462553503312
C           -6.53582426681147        3.31374393063785       -1.37515820263433
C           -4.78819145104290        1.36037235120654        0.13283972893867
C           -3.68275355164814        0.54624465641078       -0.10398758703805
C           -3.83320341294599       -0.83221115762815       -0.36192094976590
N           -2.41207733373436        1.09642013671829       -0.06251163814289
C           -2.31523426685833        2.50737172963470       -0.04417998866135
C           -2.67976716619093        3.27620282065665       -1.15660893212417
F           -3.16457393712494        2.63972242180201       -2.24208199629020
C           -2.55826360278924        4.64736401962101       -1.18208993167326
C           -2.05151736597679        5.30828010239421       -0.06988847659387
C           -1.68828506021021        4.58670285903456        1.06081041403746
C           -1.83124970113460        3.21724308698208        1.06309092469402
F           -1.48518816785776        2.52343961340395        2.16636798194206
C            6.51084268847794        3.18843646375779        1.30485661492881
H            5.36763317256665        5.86240056882939        2.95034130416205
H            5.05269539216626        4.14578678487405        3.27728332464613
H            6.54897211381443        4.89559879819009        3.82675047266610
H            7.12587232192881        6.50359652414329        1.28910017192582
H            8.28106183743520        5.87549263901711       -0.79258771882647
H            8.29709944811985        3.53307583855072       -1.54871180887248
H            7.08613101437490       -0.23252523144808       -2.31116360342147
H            9.04467381297739       -1.21150239970142       -3.43208341471740
H           11.32345107532840       -0.59957635626950       -2.71524717629360
H           12.02407576341974        1.94792268320388       -0.05974532603247
H           12.51079782120116        0.26014010845969       -0.24186059859605
H           12.65792102471593        1.36364177751257       -1.60515969357173
H            9.68003748855541        1.98632443095829        0.25567381236307
H            7.15781185512365       -1.04326827875641        0.34595589380785
H            4.64770647092026        2.29450286124925       -0.47080530203417
H            1.33714614654118        5.02969551217748       -2.03620635125016
H            1.99560405424561        6.33514433670775       -0.02136818540075
H            2.86899796781763        5.13868032992658        1.97817039641614
H           -0.01460858913264        2.09013239838003       -0.03551003667034
H           -0.06936988096949       -2.79275077749553       -0.01137928766253
H            0.82720387613762       -3.85371680480595        1.42165511757082
H            1.39439729880646       -6.16693647150709        1.93730127313219
H            4.88749377777799       -7.54050607257977        1.68740986642140
H            3.54130442769957       -7.61616326166642        2.83198687540374
H            3.27474713129683       -8.01766914960447        1.13981709767859
H            5.48764812961870       -5.35764348963741        1.10871372415972
H            6.63690747209888       -3.34960782018821        2.78610127946747
H            8.98092073161648       -4.14732718418376        2.81008253223366
H           10.17636008590902       -4.52022881801312        0.69295531270921
H            8.58101153830973       -4.25069153066331       -2.66248734883055
H            9.89224410384257       -5.04506012178956       -1.77573191561929
H            9.91524963230039       -3.29809000860734       -2.00868017545083
H            6.69538045840538       -3.33237381319020       -1.47637363715372
H           -0.97648701810888       -3.84512333428121       -1.43409101631001
H           -1.59244158931500       -6.14406003085845       -1.95446763765763
H           -3.53724039459043       -7.94431396650767       -1.18078300902157
H           -3.75397646579616       -7.54439965283727       -2.88041668100836
H           -5.12377587793029       -7.42766325975474       -1.76774392872172
H           -5.67783868134128       -5.22988830040419       -1.19996319421464
H           -6.63068717428876       -3.16866577799083       -2.97324447873007
H           -8.99018735264246       -3.89215573286466       -3.17363305704632
H          -10.34786766545029       -4.23693866941512       -1.15231751685594
H          -10.39482533762022       -4.63927230148445        1.26809016611251
H          -10.08347135727044       -2.95252034808249        1.68042362944258
H           -9.00407969490528       -4.21206811940649        2.27848067961239
H           -6.99651886822565       -3.17898821339543        1.27371688304217
H           -7.25549148319570       -0.87956804178992       -0.41338633103168
H           -9.75629655205306        2.10227528228133       -0.26487087261622
H          -11.66170763948937        1.12511823584207        0.95203344434891
H          -11.28085334485020       -0.40811537495310        2.83822897135866
H           -8.64071990572124       -0.60612166582471        4.74835890775738
H           -9.77052549130722       -1.79996850424452        4.11196668563945
H           -8.05376985105666       -1.87322901263874        3.67869701360287
H           -7.06649772761061        0.00091387500866        2.30257422648444
H           -8.34473791946290        3.70748522531761        1.45813877354662
H           -8.31443811121693        6.03704172373042        0.66715975092158
H           -7.13724739538907        6.63120843826791       -1.41238520843911
H           -6.54357304485825        5.00555425143666       -3.91752463417292
H           -5.06621377962904        4.22771261474490       -3.35506166159717
H           -5.34801652513381        5.95183196799761       -3.03815320318222
H           -6.04421595592825        2.54290595979773       -1.95066775873730
H           -4.67143977241409        2.39767724141192        0.40859325712559
H           -2.84929547568222        5.18570184959736       -2.06879316906665
H           -1.94353268674267        6.37983180182482       -0.08210315706516
H           -1.30010872012342        5.07639526406780        1.93898858987390
H            6.02035289477637        2.42775122506442        1.89472314935492

 projected vibrational frequencies (cm⁻¹)
eigval :       -0.00    -0.00    -0.00     0.00     0.00     0.00
eigval :        5.92     7.29    11.49    12.39    12.67    15.20
eigval :       17.69    18.85    19.45    22.50    22.88    26.71
eigval :       27.04    28.63    32.15    33.66    40.53    41.27
eigval :       41.76    42.20    45.69    47.81    52.14    52.51
eigval :       54.99    57.92    60.20    62.38    63.51    66.63
eigval :       68.81    72.14    73.87    74.38    79.19    82.09
eigval :       83.53    88.28   103.59   111.41   112.24   113.77
eigval :      117.94   119.50   120.69   129.98   146.73   155.05
eigval :      157.39   169.07   170.83   172.83   173.45   181.42
eigval :      184.76   192.11   194.22   200.08   202.78   204.20
eigval :      206.36   207.32   211.56   217.05   219.91   221.33
eigval :      224.52   229.10   231.52   232.36   233.25   236.99
eigval :      239.50   243.73   249.56   251.38   264.34   268.29
eigval :      278.97   282.40   289.96   298.71   307.72   314.79
eigval :      318.35   326.12   327.65   329.03   336.96   351.20
eigval :      354.54   357.56   370.02   382.22   383.41   386.02
eigval :      387.43   393.66   406.36   408.27   409.43   411.92
eigval :      414.23   414.88   415.51   416.76   421.09   423.01
eigval :      426.83   429.35   444.85   446.22   453.70   457.05
eigval :      474.31   474.44   474.52   479.55   485.36   497.59
eigval :      499.93   501.38   503.64   503.99   504.26   507.85
eigval :      508.39   509.78   513.17   515.81   517.64   531.09
eigval :      534.40   536.03   536.48   539.55   539.84   540.52
eigval :      542.50   544.20   546.43   549.66   552.40   557.49
eigval :      568.18   572.69   575.98   580.11   588.70   603.37
eigval :      605.01   611.39   613.79   618.65   619.52   628.15
eigval :      630.83   633.26   634.08   647.08   654.84   655.72
eigval :      657.16   663.83   665.04   667.68   672.46   672.67
eigval :      673.75   678.70   686.84   694.67   699.88   702.96
eigval :      705.28   707.67   721.77   733.28   762.72   772.75
eigval :      780.15   780.72   781.61   784.31   787.29   789.44
eigval :      790.37   792.55   797.11   804.23   804.60   805.08
eigval :      807.86   810.14   812.64   817.32   821.79   844.25
eigval :      844.77   847.50   848.44   859.07   862.61   863.29
eigval :      871.47   872.60   880.26   881.17   881.69   882.07
eigval :      883.36   883.47   885.57   886.82   887.78   887.98
eigval :      889.83   890.65   895.03   896.99   898.60   903.84
eigval :      907.46   915.63   918.51   920.96   923.59   924.90
eigval :      925.91   926.25   927.99   928.16   928.56   934.40
eigval :      955.52   977.41   978.19   983.86   986.77   987.28
eigval :      987.74   987.82   989.72   991.74   995.70   996.85
eigval :      999.47  1002.11  1014.68  1016.65  1017.69  1018.57
eigval :     1026.84  1028.18  1029.66  1029.72  1031.04  1031.62
eigval :     1032.08  1032.20  1032.66  1034.69  1045.49  1051.49
eigval :     1054.48  1069.47  1075.69  1078.05  1091.73  1103.50
eigval :     1108.27  1114.63  1128.02  1129.36  1132.76  1134.29
eigval :     1134.98  1135.22  1147.88  1149.36  1150.44  1155.87
eigval :     1164.15  1164.30  1177.35  1177.66  1185.64  1186.44
eigval :     1187.00  1188.46  1188.52  1191.15  1191.69  1195.51
eigval :     1207.57  1208.52  1208.85  1209.19  1209.95  1210.52
eigval :     1218.34  1222.43  1226.31  1235.47  1235.91  1245.16
eigval :     1252.16  1253.25  1263.63  1266.83  1268.08  1270.26
eigval :     1270.92  1272.64  1273.20  1274.88  1275.61  1276.21
eigval :     1282.83  1283.63  1290.68  1296.56  1298.35  1303.66
eigval :     1304.63  1305.88  1313.01  1314.62  1315.63  1321.39
eigval :     1322.39  1322.81  1323.56  1328.89  1330.64  1331.85
eigval :     1332.22  1332.36  1335.12  1352.35  1352.54  1356.87
eigval :     1361.68  1366.27  1372.45  1391.87  1396.11  1396.48
eigval :     1399.53  1401.46  1401.94  1403.27  1403.29  1403.84
eigval :     1403.96  1404.32  1404.83  1405.63  1408.48  1413.99
eigval :     1423.59  1424.38  1435.29  1436.28  1436.36  1437.35
eigval :     1444.66  1447.16  1447.30  1448.77  1449.73  1451.89
eigval :     1458.30  1459.15  1470.80  1472.43  1473.53  1474.50
eigval :     1475.40  1477.91  1479.16  1479.53  1480.39  1480.61
eigval :     1481.21  1481.88  1481.92  1482.02  1483.57  1485.18
eigval :     1485.36  1485.63  1485.75  1488.03  1488.13  1488.26
eigval :     1488.35  1489.72  1498.58  1499.74  1512.58  1517.55
eigval :     1528.59  1529.17  1537.39  1558.04  1574.33  1576.79
eigval :     1577.75  1579.45  1580.31  1581.55  1582.85  1583.30
eigval :     1591.39  1594.49  1597.17  1597.63  1598.69  1599.27
eigval :     2995.22  2995.67  2998.34  2998.74  2998.87  3000.82
eigval :     3003.04  3003.54  3012.60  3012.83  3023.34  3027.07
eigval :     3027.93  3031.61  3032.07  3038.20  3038.28  3038.49
eigval :     3039.67  3041.76  3044.84  3045.79  3049.97  3050.03
eigval :     3069.43  3069.87  3071.41  3071.78  3072.75  3072.80
eigval :     3078.47  3078.87  3078.92  3080.98  3081.59  3081.67
eigval :     3081.79  3082.23  3083.50  3083.59  3085.23  3085.55
eigval :     3086.21  3086.41  3088.13  3088.48  3089.76  3090.24
eigval :     3092.05  3092.42  3093.82  3094.76  3098.05  3098.40
eigval :     3107.50  3108.73  3109.15  3109.96  3111.55  3111.80
eigval :     3117.28  3118.48  3118.72  3125.22  3125.82  3140.07

   temp. (K)  partition function   enthalpy   heat capacity  entropy
                                   cal/mol     cal/K/mol   cal/K/mol   J/K/mol
 298.15  VIB  0.274E+46            53249.519    312.377    341.137
         ROT  0.567E+09              888.752      2.981     43.036
         INT  0.155E+55            54138.271    315.357    384.173
         TR   0.444E+29             1481.254      4.968     47.298
         TOT                       55619.5249   320.3256   431.4718  1805.2782

       T/K    H(0)-H(T)+PV         H(T)/Eh          T*S/Eh         G(T)/Eh
   ------------------------------------------------------------------------
    298.15    0.886354E-01    0.134709E+01    0.205006E+00    0.114208E+01
   ------------------------------------------------------------------------

         :::::::::::::::::::::::::::::::::::::::::::::::::::::
         ::                  THERMODYNAMIC                  ::
         :::::::::::::::::::::::::::::::::::::::::::::::::::::
         :: total free energy        -255.755490083797 Eh   ::
         ::.................................................::
         :: total energy             -256.897572891923 Eh   ::
         :: zero point energy           1.258453651633 Eh   ::
         :: G(RRHO) w/o ZPVE           -0.116370843507 Eh   ::
         :: G(RRHO) contrib.            1.142082808126 Eh   ::
         :::::::::::::::::::::::::::::::::::::::::::::::::::::

           -------------------------------------------------
          | TOTAL ENERGY             -256.897572891923 Eh   |
          | TOTAL ENTHALPY           -255.550483885514 Eh   |
          | TOTAL FREE ENERGY        -255.755490083797 Eh   |
          | GRADIENT NORM               0.000104657109 Eh/α |
           -------------------------------------------------

 * finished run on 2025/08/21 at 23:26:17.322
