   * xtb version 6.7.1 (edcfbbe) compiled by 'albert@albert-system' on 2024-07-22

   ID    Z sym.   atoms
    1    6 C      1-6, 8-20, 22, 23, 25-28, 30-35, 37-43, 45-51, 53-59,
                  61-70, 72-88, 90, 91, 93-96, 98
    2    7 N      7, 21, 44, 60, 71, 89
    3    9 F      24, 29, 92, 97
    4    5 B      36, 52
    5    1 H      99-164

          program call               : xtb data2507/gas/4F-m-ν-DABNA/4F-m-ν-DABNA_gas_S0_finalOpt.xtbopt.xyz --gfn 2 --spinpol --tblite --uhf 2 --ohess vtight --parallel 40 --molden --ceasefiles --namespace data2507/gas/4F-m-ν-DABNA/4F-m-ν-DABNA_gas_T1_preOpt
 * total energy  :  -256.8955463 Eh     change       -0.8707286E-07 Eh
 * total energy  :  -256.8961868 Eh     change       -0.6404970E-03 Eh
 * total energy  :  -256.8963203 Eh     change       -0.1335353E-03 Eh
 * total energy  :  -256.8963342 Eh     change       -0.1395410E-04 Eh
 * total energy  :  -256.8963446 Eh     change       -0.1035456E-04 Eh
 * total energy  :  -256.8963491 Eh     change       -0.4497962E-05 Eh
 * total energy  :  -256.8963662 Eh     change       -0.1713222E-04 Eh
 * total energy  :  -256.8963717 Eh     change       -0.5473816E-05 Eh
 * total energy  :  -256.8963810 Eh     change       -0.9254471E-05 Eh
 * total energy  :  -256.8963876 Eh     change       -0.6646301E-05 Eh
 * total energy  :  -256.8965241 Eh     change       -0.8492336E-06 Eh
 * total energy  :  -256.8965249 Eh     change       -0.8297022E-06 Eh
 * total energy  :  -256.8965256 Eh     change       -0.7030629E-06 Eh
 * total energy  :  -256.8965266 Eh     change       -0.9685469E-06 Eh
 * total energy  :  -256.8965277 Eh     change       -0.1131661E-05 Eh
 * total energy  :  -256.8965290 Eh     change       -0.1246945E-05 Eh
 * total energy  :  -256.8965290 Eh     change        0.1881847E-07 Eh
 * total energy  :  -256.8965289 Eh     change        0.1005542E-06 Eh
 * total energy  :  -256.8965290 Eh     change       -0.8975752E-07 Eh
   *** GEOMETRY OPTIMIZATION CONVERGED AFTER 70 ITERATIONS ***

 final structure:
================
164
 xtb: 6.7.1 (edcfbbe)
C           12.04332736001307        1.08155663984351       -0.17635343837413
C           10.68617057927794        0.72970081398133       -0.70717679276727
C           10.56253500346200       -0.13001282418950       -1.79442059039200
C            9.31107223813513       -0.46256746509952       -2.28168348139626
C            8.17031839831788        0.05067944526961       -1.69747036981291
C            8.27562427289324        0.91039345226028       -0.60448033753307
N            7.12823675896441        1.42850439147109        0.00214184080593
C            7.10759503412896        2.73912332966318        0.48815106862911
C            6.39336377771723        3.05583848494694        1.64327841461366
C            6.35825919996603        4.36084139889899        2.09347653870364
C            7.03718719786917        5.35860011009793        1.41736265156502
C            7.76541165600063        5.05748177500102        0.27056308887567
C            8.50019871763280        6.14100930367650       -0.46008129500790
C            7.78964889154481        3.75151397172399       -0.18721284977545
C            5.99011926157072        0.62592790721575        0.12608439584682
C            6.12209834318943       -0.73784639911990        0.37742607635717
C            4.98998513624310       -1.54844001401985        0.44863139220066
C            3.69509401053360       -0.99439767241383        0.36657686953473
C            3.59010678859140        0.39741205067942        0.16820175463602
C            4.72406584579173        1.18796698362980       -0.00441175174546
N            2.33801869131038        0.98715499654708        0.12049821843394
C            2.28911707895848        2.40015080808339        0.17726235874854
C            1.86658288492837        3.19036118862948       -0.89957536125803
F            1.52209512146080        2.57624843155638       -2.04981217926737
C            1.78375038119938        4.56308642861150       -0.82318205868075
C            2.15019619223137        5.20406837566113        0.35375578549481
C            2.59686191384081        4.46074506247553        1.43942351448945
C            2.65556069715425        3.08869380554409        1.34074861169431
F            3.08044307356471        2.37132671406529        2.39906042772370
C            1.15285138609829        0.27934842248847        0.09453273260905
C           -0.04560929677180        0.97888910569430        0.01518167919158
C           -1.27397587485065        0.33527431486235       -0.07706479702109
C           -1.31884192822989       -1.08253512974187       -0.20256306407942
C           -0.10692535715634       -1.74919237198704       -0.00988713610929
C            1.13384730127191       -1.14132860436496        0.19277865654135
B            2.46089181981121       -1.86540915788824        0.48794244020771
C            2.74249326473765       -3.33370091576683        0.86106267046003
C            1.77480821034109       -4.28274237327587        1.22235378448311
C            2.07792849624800       -5.60343817198770        1.46025962461178
C            3.39162536104238       -6.05776284016959        1.33833658949022
C            3.71489920523767       -7.50583546354454        1.54572570688684
C            4.38006233601755       -5.14045885139547        1.04014420306323
C            4.08649480385472       -3.78568983503199        0.84203276345268
N            5.13513923708894       -2.90863244559102        0.62181671792741
C            6.46756821205979       -3.41445915041390        0.62909367297795
C            7.09615672868340       -3.71437580220572        1.83015951558409
C            8.40219748538231       -4.17114990532540        1.81693828905862
C            9.07740473172410       -4.31945358887742        0.61916832802085
C            8.45802163806903       -4.01994751316900       -0.58977706379822
C            9.20690120335822       -4.16694088453072       -1.87796783002386
C            7.14652066585769       -3.56973396931085       -0.57259944614930
B           -2.67731238109429       -1.74030587126901       -0.50954748487225
C           -3.02197013370489       -3.18792666621717       -0.90832110118799
C           -2.09581681255839       -4.17246101890487       -1.28386345984767
C           -2.45587794220586       -5.47421883834617       -1.54535683951786
C           -3.78833596121067       -5.87272146457930       -1.43255238147337
C           -4.17404177673568       -7.30208467278061       -1.66170860770035
C           -4.73637927998701       -4.91756504357459       -1.12186671248973
C           -4.38453116352190       -3.58003769743250       -0.90280006724301
N           -5.39581978339378       -2.66152708063178       -0.67287979487425
C           -6.74838861221712       -3.09912668478005       -0.77129004197764
C           -7.30518197418776       -3.35228545729051       -2.01866157492756
C           -8.62879265672526       -3.74303040434084       -2.10515192322831
C           -9.39567098150887       -3.86838608978163       -0.96021145345910
C           -8.85087655320015       -3.61298306735246        0.29275592269409
C           -9.69430034528854       -3.70869488001168        1.52570197107118
C           -7.51824633644231       -3.23384403272522        0.37597440424864
C           -5.19082108715088       -1.31445731555126       -0.45647782836983
C           -6.28479700000021       -0.45722695380965       -0.34856278026374
C           -6.08978728302609        0.89400870387712       -0.07320587046868
N           -7.19699478565095        1.73412513060201        0.09264241260399
C           -8.31193084024521        1.25577099775034        0.78629104617932
C           -9.60483857743968        1.57754001319985        0.37396675116909
C          -10.68963651780467        1.08205556232239        1.06931061833270
C          -10.50844747281930        0.26839063221318        2.17546400603097
C           -9.22654584209795       -0.05786226968933        2.60261131854839
C           -9.00895989331592       -0.89264325066941        3.82918923237502
C           -8.13939709039195        0.43592446853178        1.90052389441092
C           -7.16830365144434        3.03234027266403       -0.41968270418543
C           -7.81183661047506        4.07524544125966        0.24640375333499
C           -7.75471132678182        5.35637168532292       -0.26597823105870
C           -7.05752659436479        5.61991953884368       -1.43207640434845
C           -6.41164445103206        4.59133134123281       -2.10958606687985
C           -5.68626521334118        4.85913591916177       -3.39361610280332
C           -6.47659575438554        3.30574263949174       -1.59989996716125
C           -4.80083742285341        1.40245044342685        0.04474629370548
C           -3.70438949584000        0.56396270607813       -0.14378791264146
C           -3.87232363927088       -0.81858694102298       -0.36731110076776
N           -2.42662191927047        1.09533309914878       -0.08788462955265
C           -2.31038382621704        2.50546468139635       -0.09976800931802
C           -2.62808449274352        3.24934382177743       -1.24282369350355
F           -3.08259982569623        2.58993691166704       -2.32746052538560
C           -2.49256562929895        4.61834577270053       -1.29784393335821
C           -2.01697539005842        5.30158503329358       -0.18527293637756
C           -1.69914590188634        4.60510466276850        0.97433142015508
C           -1.85685232953113        3.23743925872343        1.00565519283434
F           -1.55659413847196        2.56824812612356        2.13722901278950
C            9.54144148772384        1.23993956386469       -0.12003304965189
H           12.53016597051615        0.19594378809114        0.23139504895405
H           12.67500313879957        1.46982444487296       -0.97399871463776
H           11.97262094106845        1.82946206679047        0.60914932316711
H           11.45091972467219       -0.53254777093070       -2.25924813356620
H            9.22182044512956       -1.11784163108207       -3.13583068040888
H            7.19486284002906       -0.20086124683736       -2.08544720182889
H            5.87179934282189        2.27928592507680        2.18152854893722
H            5.80352541925878        4.59701025957313        2.98954806848267
H            7.00754372283034        6.37620640729013        1.77833635051085
H            9.21844789048518        6.62375338476434        0.20150237479954
H            9.03256591130100        5.74054373104951       -1.31897368992616
H            7.80374321830951        6.90372098599112       -0.80659025756629
H            8.33807530673511        3.50606008188904       -1.08567570689192
H            7.11162909232419       -1.14669285714256        0.50440743408784
H            4.64205309155638        2.23866506725467       -0.23842693489119
H            1.44014640311275        5.11735396533626       -1.68136555415295
H            2.09118947870213        6.27736717613842        0.42272984126102
H            2.88987228917781        4.93531500049846        2.36142244093235
H           -0.02131760625718        2.05529965526874        0.02630454577163
H           -0.13100107039101       -2.82381108725800       -0.01842663183221
H            0.75277347705056       -3.95948821971512        1.33681829112174
H            1.29713023479840       -6.30021416408069        1.73090954321479
H            3.17118065834992       -8.12131684161778        0.82935472035399
H            4.77975951770602       -7.69009574863906        1.42474788414055
H            3.41776494242315       -7.82165266502431        2.54551273606378
H            5.40109318694492       -5.48483932582116        0.96433551322236
H            6.55960848578041       -3.58815043681954        2.75836411321147
H            8.89648761308424       -4.40681509121922        2.74765522007325
H           10.09904823186783       -4.67045124400739        0.61765957186602
H            9.97782423330382       -3.39961260938091       -1.94492581208783
H            8.54066509271252       -4.06257823107613       -2.73011945288272
H            9.69567694456385       -5.13826421672344       -1.92918728253079
H            6.64045778021459       -3.32615292086929       -1.49548818604727
H           -1.06034357127090       -3.89256964338136       -1.39111321074770
H           -1.70562016466652       -6.19973728897975       -1.82667580765819
H           -3.87991532466285       -7.61894750354394       -2.66202139797379
H           -5.24742341176289       -7.43956931676576       -1.55458946812224
H           -3.66685641165798       -7.95012090204494       -0.94718019166045
H           -5.77138086742012       -5.21873551401451       -1.05128417430322
H           -6.69758777055859       -3.24303325201043       -2.90425585169143
H           -9.06624320758971       -3.94383586867915       -3.07175232138369
H          -10.43129242323329       -4.16546000640745       -1.03800154357122
H           -9.09073376574899       -3.96682523478199        2.39222811280414
H          -10.47814059015018       -4.45256690790164        1.40394587359240
H          -10.16666485617125       -2.74451000564095        1.71555350618818
H           -7.06951799881278       -3.02791227436671        1.33692317695104
H           -7.29464049323860       -0.81640831560041       -0.46476207336080
H           -9.74726284558949        2.20722688059532       -0.49152800917479
H          -11.68938702592207        1.32785127885206        0.74211443448432
H          -11.36635672690298       -0.10943415382257        2.71282427634952
H           -8.16867856307201       -1.56974597423418        3.69300624736980
H           -8.78156170874314       -0.24766149870582        4.67854679571108
H           -9.89673560566925       -1.47092847888510        4.07380318737837
H           -7.13722164027246        0.19468759810411        2.22488829753938
H           -8.34304701069087        3.87598062332512        1.16519429001826
H           -8.25121922220245        6.16065192321767        0.25725349048587
H           -7.01494748593821        6.62695823299629       -1.82042619608367
H           -5.22566674890161        5.84488563566264       -3.37902885614716
H           -6.38754216325374        4.83126705859184       -4.22840385222451
H           -4.92300358050160        4.10609955282423       -3.57133648070328
H           -5.98580621226324        2.49831265282225       -2.12358564314334
H           -4.67354944234538        2.44672433178699        0.28736647846473
H           -2.74868470090398        5.13722274455006       -2.20667744996056
H           -1.89800984119597        6.37153118327334       -0.21976317426366
H           -1.33503815904131        5.11270246739330        1.85266659775466
H            9.62100163265697        1.90138458614751        0.73097520723472

 projected vibrational frequencies (cm⁻¹)
eigval :       -0.00    -0.00     0.00     0.00     0.00     0.00
eigval :        5.82     6.96     8.94    10.15    12.44    13.37
eigval :       14.67    15.77    16.99    19.78    22.00    22.59
eigval :       26.84    27.19    30.12    32.70    33.40    40.97
eigval :       41.28    41.66    43.00    45.09    47.06    49.30
eigval :       51.68    53.40    56.51    58.87    62.00    62.47
eigval :       64.69    69.27    73.21    73.56    74.26    77.63
eigval :       81.73    83.51    86.52   103.29   111.81   112.79
eigval :      113.96   116.04   119.89   129.26   144.99   153.75
eigval :      157.89   165.53   170.45   173.15   175.94   180.65
eigval :      183.71   191.59   196.38   200.57   201.90   202.76
eigval :      205.12   207.36   207.64   215.17   215.62   219.77
eigval :      223.39   226.27   231.32   232.22   233.41   233.65
eigval :      239.29   243.73   250.23   251.02   267.88   278.46
eigval :      280.75   290.38   295.15   299.09   307.43   314.59
eigval :      317.95   325.38   326.47   328.64   337.23   350.84
eigval :      354.45   357.68   369.37   378.19   383.02   385.72
eigval :      386.66   393.54   405.98   407.97   408.79   411.84
eigval :      413.09   414.65   416.06   417.05   421.99   423.30
eigval :      426.64   429.09   445.09   446.18   453.57   457.22
eigval :      474.16   474.34   474.91   479.76   484.98   497.57
eigval :      500.86   503.23   503.57   504.22   504.60   507.44
eigval :      508.17   509.64   513.35   516.23   518.52   530.31
eigval :      532.09   535.20   537.96   539.76   540.11   540.56
eigval :      541.64   544.28   546.24   550.23   552.32   556.64
eigval :      568.75   572.60   576.25   580.43   588.77   603.39
eigval :      604.91   611.65   614.00   618.67   619.37   628.02
eigval :      630.55   633.58   635.27   648.01   654.74   656.41
eigval :      658.48   661.76   664.95   668.05   672.42   672.78
eigval :      673.74   679.03   687.36   694.78   699.82   703.02
eigval :      704.29   707.03   721.29   733.18   760.98   772.50
eigval :      780.03   781.18   784.32   786.54   787.08   789.71
eigval :      791.10   793.44   798.55   804.05   804.52   805.92
eigval :      808.16   810.14   816.09   816.81   818.89   843.82
eigval :      845.35   846.31   847.73   858.87   862.09   862.74
eigval :      871.56   872.30   880.07   881.31   881.74   881.92
eigval :      883.02   883.27   885.63   886.71   887.80   888.07
eigval :      889.34   892.17   895.08   897.14   898.84   903.59
eigval :      907.04   914.97   918.76   921.07   923.65   926.13
eigval :      927.10   927.90   928.30   928.93   929.57   934.93
eigval :      956.20   977.77   978.18   984.04   985.26   987.25
eigval :      987.79   988.11   989.27   991.63   995.72   997.44
eigval :      999.38  1002.29  1013.21  1016.60  1017.31  1018.58
eigval :     1026.40  1028.19  1029.79  1029.85  1031.19  1031.44
eigval :     1032.00  1032.24  1032.33  1034.83  1036.45  1051.27
eigval :     1054.54  1070.37  1075.93  1081.69  1092.38  1103.38
eigval :     1108.06  1114.90  1127.64  1129.44  1132.72  1134.10
eigval :     1135.36  1135.44  1147.81  1148.64  1150.16  1156.08
eigval :     1164.28  1164.48  1177.39  1177.62  1185.43  1186.20
eigval :     1187.13  1188.29  1188.65  1190.21  1191.94  1195.68
eigval :     1206.49  1208.44  1208.74  1209.08  1209.77  1210.66
eigval :     1218.89  1223.20  1227.11  1235.22  1236.02  1245.09
eigval :     1252.29  1254.28  1263.32  1267.11  1268.20  1269.74
eigval :     1270.81  1272.30  1272.82  1273.67  1275.78  1276.07
eigval :     1282.86  1284.87  1289.95  1294.51  1297.80  1303.10
eigval :     1304.30  1305.42  1312.36  1314.74  1315.69  1321.23
eigval :     1321.76  1322.51  1323.05  1328.88  1330.48  1331.86
eigval :     1332.06  1334.25  1335.79  1351.50  1352.95  1356.69
eigval :     1361.97  1366.45  1372.13  1391.51  1394.77  1395.72
eigval :     1397.54  1401.58  1402.15  1403.66  1403.99  1404.09
eigval :     1404.23  1404.53  1405.03  1405.85  1409.16  1414.09
eigval :     1422.92  1423.92  1434.84  1435.33  1435.84  1436.95
eigval :     1444.27  1444.86  1447.49  1448.59  1449.49  1451.42
eigval :     1458.57  1460.32  1470.60  1472.53  1473.31  1475.33
eigval :     1476.28  1477.82  1478.24  1479.19  1479.70  1480.87
eigval :     1481.18  1481.41  1482.04  1482.25  1482.29  1484.67
eigval :     1485.35  1485.57  1485.77  1488.43  1488.56  1488.61
eigval :     1489.16  1489.86  1499.20  1500.17  1512.06  1517.38
eigval :     1528.34  1528.70  1535.44  1557.09  1573.97  1574.47
eigval :     1577.51  1579.87  1580.19  1581.25  1582.05  1582.53
eigval :     1591.03  1594.53  1596.39  1597.49  1598.47  1599.47
eigval :     2995.48  2997.80  2998.67  2998.88  3003.29  3003.98
eigval :     3005.75  3007.72  3012.56  3012.79  3018.50  3019.82
eigval :     3025.37  3028.29  3032.99  3038.05  3038.20  3038.26
eigval :     3039.25  3042.42  3044.86  3045.53  3048.23  3050.23
eigval :     3069.26  3069.83  3071.82  3072.46  3072.63  3075.70
eigval :     3077.11  3078.59  3078.81  3079.53  3081.06  3081.30
eigval :     3081.63  3081.77  3082.89  3083.42  3084.78  3085.06
eigval :     3086.47  3086.68  3088.27  3088.40  3090.26  3090.55
eigval :     3092.01  3093.70  3094.81  3098.25  3098.33  3100.44
eigval :     3108.17  3108.46  3109.06  3109.51  3110.78  3111.35
eigval :     3116.96  3118.17  3122.28  3123.60  3124.86  3147.20

   temp. (K)  partition function   enthalpy   heat capacity  entropy
                                   cal/mol     cal/K/mol   cal/K/mol   J/K/mol
 298.15  VIB  0.503E+47            53423.897    311.283    343.920
         ROT  0.574E+09              888.752      2.981     43.062
         INT  0.289E+56            54312.649    314.264    386.982
         TR   0.444E+29             1481.254      4.968     47.298
         TOT                       55793.9032   319.2324   434.2804  1817.0290

       T/K    H(0)-H(T)+PV         H(T)/Eh          T*S/Eh         G(T)/Eh
   ------------------------------------------------------------------------
    298.15    0.889132E-01    0.134705E+01    0.206341E+00    0.114070E+01
   ------------------------------------------------------------------------

         :::::::::::::::::::::::::::::::::::::::::::::::::::::
         ::                  THERMODYNAMIC                  ::
         :::::::::::::::::::::::::::::::::::::::::::::::::::::
         :: total free energy        -255.755824371708 Eh   ::
         ::.................................................::
         :: total energy             -256.896528961797 Eh   ::
         :: zero point energy           1.258131956415 Eh   ::
         :: G(RRHO) w/o ZPVE           -0.117427366326 Eh   ::
         :: G(RRHO) contrib.            1.140704590089 Eh   ::
         :::::::::::::::::::::::::::::::::::::::::::::::::::::

           -------------------------------------------------
          | TOTAL ENERGY             -256.896528961797 Eh   |
          | TOTAL ENTHALPY           -255.549483761109 Eh   |
          | TOTAL FREE ENERGY        -255.755824371708 Eh   |
          | GRADIENT NORM               0.000175670985 Eh/α |
           -------------------------------------------------

 * finished run on 2025/08/21 at 22:13:16.886
