   * xtb version 6.7.1 (edcfbbe) compiled by 'albert@albert-system' on 2024-07-22

   ID    Z sym.   atoms
    1    6 C      1, 3-11, 13-16, 18, 20, 22, 24-27, 29-34, 36-41
    2    8 O      2, 12, 28, 35
    3    7 N      17, 19, 21, 23, 42
    4    1 H      43-67

          program call               : xtb data2507/gas/MeOCzPCN/MeOCzPCN_gas_T1_crest.xyz --gfn 2 --spinpol --tblite --uhf 2 --ohess vtight --parallel 40 --molden --ceasefiles --namespace data2507/gas/MeOCzPCN/MeOCzPCN_gas_T1_finalOpt
 * total energy  :  -114.2709877 Eh     change        0.8077180E-08 Eh
 * total energy  :  -114.2710478 Eh     change       -0.6010463E-04 Eh
 * total energy  :  -114.2710795 Eh     change       -0.3171194E-04 Eh
 * total energy  :  -114.2710839 Eh     change       -0.4378849E-05 Eh
 * total energy  :  -114.2710869 Eh     change       -0.3069751E-05 Eh
 * total energy  :  -114.2710884 Eh     change       -0.1498696E-05 Eh
 * total energy  :  -114.2710897 Eh     change       -0.1221955E-05 Eh
 * total energy  :  -114.2710906 Eh     change       -0.9052622E-06 Eh
 * total energy  :  -114.2710913 Eh     change       -0.7721658E-06 Eh
 * total energy  :  -114.2710924 Eh     change       -0.1031339E-05 Eh
 * total energy  :  -114.2710974 Eh     change       -0.1243132E-05 Eh
 * total energy  :  -114.2710980 Eh     change       -0.5536253E-06 Eh
 * total energy  :  -114.2710983 Eh     change       -0.3491126E-06 Eh
 * total energy  :  -114.2710987 Eh     change       -0.4223073E-06 Eh
 * total energy  :  -114.2710992 Eh     change       -0.4569950E-06 Eh
 * total energy  :  -114.2710998 Eh     change       -0.5594831E-06 Eh
 * total energy  :  -114.2711003 Eh     change       -0.5035739E-06 Eh
 * total energy  :  -114.2711007 Eh     change       -0.4543299E-06 Eh
 * total energy  :  -114.2711007 Eh     change       -0.1291284E-07 Eh
   *** GEOMETRY OPTIMIZATION CONVERGED AFTER 22 ITERATIONS ***

 final structure:
================
67
 xtb: 6.7.1 (edcfbbe)
C            8.24776708201245       -2.39156050759820       -1.30895703837514
O            7.13039327691776       -3.13450575504084       -0.88612610809050
C            5.99740657923649       -2.46834369702500       -0.53781952734694
C            4.92984070167104       -3.28552501552526       -0.12601398161605
C            3.71953376191782       -2.75745959469906        0.26057438930796
C            3.57375154337817       -1.37579170131573        0.23860397771135
C            4.63564297111403       -0.54435933497208       -0.18099147720161
C            5.85181058305262       -1.08584743661352       -0.56943970646568
C            4.15715561395638        0.80911632276089       -0.08892616765846
C            4.74212942916494        2.03483643849727       -0.33443116862638
C            4.00464464796283        3.19633238102459       -0.09506792561904
O            4.64452525261427        4.36194424118778       -0.37749136846914
C            3.95207836935316        5.57596690985730       -0.21187672225185
C            2.71007729633697        3.11046513645453        0.42764195131823
C            2.11984753789949        1.88690586695054        0.68042302280953
C            2.82306656662927        0.73055385182180        0.38414684091590
N            2.47357344456919       -0.59645311079395        0.55015309242842
C            1.23157393887539       -1.09690197450431        0.90027698814064
N            1.18779560582011       -2.18842703268451        1.60998898435183
C            0.00299647149873       -2.71963786971246        1.92988577669907
N           -1.17512818386046       -2.17274458144154        1.60982417788756
C           -1.19910344129538       -1.07827483630443        0.90453289922939
N           -2.43156478913493       -0.54907977350772        0.55992058187111
C           -2.76142092955133        0.78698421464493        0.44647421656368
C           -2.03929801365829        1.92129789195586        0.79846805016131
C           -2.62224643757610        3.15156214227686        0.60627387104846
C           -3.92096673773142        3.28164000685121        0.08497706334519
O           -4.35932079602820        4.56060218871317       -0.05548692062763
C           -5.64573716309053        4.77835204859957       -0.58197333089165
C           -4.66869796078774        2.15030544582678       -0.22044903338838
C           -4.08796849295127        0.90619517687983       -0.02819084618334
C           -4.58800253488047       -0.43352427719206       -0.18412396938040
C           -5.79761180581581       -0.95255649439067       -0.60208620577929
C           -5.96406289095558       -2.33878252143267       -0.63136979045720
O           -7.18542302218572       -2.76792398293549       -1.05194208590253
C           -7.43813248085810       -4.15037021221196       -1.11484420213907
C           -4.91751869697746       -3.18403776687413       -0.24639304892934
C           -3.70229540054321       -2.67424283462532        0.17336587151129
C           -3.53930402498286       -1.29995140017992        0.20930429489107
C            0.02038950806019       -0.45570562578140        0.39498498172876
C            0.01573228781333        0.35728745273720       -0.71046624810306
N            0.00383479668177        1.08289860227756       -1.61969843324790
H            9.02281252316107       -3.12408145779535       -1.52860816551731
H            8.02821443813453       -1.81523184855840       -2.21339283108977
H            8.60104399239441       -1.71575639425780       -0.52347140211143
H            5.09221281671384       -4.35127833664110       -0.12219843514438
H            2.90981388727417       -3.39095279690288        0.58335696863272
H            6.64866146812208       -0.43259507286365       -0.88524522277633
H            5.75108422211425        2.12147239224839       -0.70348188098538
H            3.04378914350075        5.60580628114379       -0.82130578856525
H            4.63758895170040        6.35281308326541       -0.54711966016786
H            3.69384990289235        5.75182931498705        0.83744905776709
H            2.15017473832470        4.00418207132307        0.64901594573141
H            1.13267823489240        1.85238019428591        1.10984697844160
H           -0.00268194975375       -3.61270571456714        2.52954326459284
H           -1.05320646097368        1.84974408051913        1.22606937185702
H           -2.09379053818714        4.05638778961809        0.85898896891678
H           -5.76763225359901        5.85949002462822       -0.62498972137014
H           -5.74195817812333        4.36265928071108       -1.58989946572965
H           -6.42128129113224        4.35287402480806        0.06321300962827
H           -5.67898157842025        2.21371823345225       -0.59025504863074
H           -6.61546884107179       -0.32054325041370       -0.90764043036408
H           -7.35330140683516       -4.62044307220167       -0.12989138783006
H           -8.46277096129898       -4.24535049384860       -1.47109595980983
H           -6.76408377127619       -4.65124206595747       -1.81703760441546
H           -5.04463124581891       -4.25415194031944       -0.27145158444846
H           -2.90318617290591       -3.33082277901757        0.47701340801439

 projected vibrational frequencies (cm⁻¹)
eigval :       -0.00    -0.00    -0.00     0.00     0.00     0.00
eigval :       11.79    14.14    19.81    33.63    49.86    52.04
eigval :       62.56    63.13    71.08    75.23    92.49    98.26
eigval :      102.90   109.35   112.54   119.68   130.36   132.77
eigval :      147.67   171.59   179.79   201.95   208.18   211.66
eigval :      215.83   225.23   229.83   236.56   249.34   251.27
eigval :      257.66   262.34   270.24   280.99   299.65   333.85
eigval :      340.93   342.44   358.44   374.32   382.65   390.44
eigval :      393.46   398.58   402.08   416.30   419.56   423.75
eigval :      436.33   466.63   469.70   477.47   497.65   511.71
eigval :      514.13   536.28   544.16   559.53   569.16   576.10
eigval :      577.60   590.76   608.38   608.78   609.88   620.65
eigval :      633.69   644.99   673.08   673.55   685.76   687.03
eigval :      699.80   700.50   722.04   750.25   753.59   784.96
eigval :      787.28   795.18   804.68   807.75   811.73   839.94
eigval :      844.63   853.79   854.50   881.48   888.57   892.85
eigval :      898.98   904.83   915.80   920.49   929.79   938.45
eigval :      951.92  1020.98  1024.62  1036.33  1059.28  1060.32
eigval :     1061.06  1062.26  1112.11  1118.99  1119.29  1119.73
eigval :     1119.75  1128.32  1131.50  1137.75  1147.59  1153.83
eigval :     1154.75  1159.97  1163.53  1176.20  1178.36  1186.82
eigval :     1189.30  1193.23  1198.57  1228.61  1234.38  1245.08
eigval :     1246.72  1259.48  1271.24  1279.34  1283.62  1295.92
eigval :     1307.21  1334.73  1348.77  1351.85  1362.23  1365.97
eigval :     1369.36  1399.19  1399.50  1399.69  1400.09  1415.03
eigval :     1416.23  1420.16  1429.59  1453.41  1454.70  1467.32
eigval :     1469.59  1469.66  1469.80  1470.21  1474.09  1476.99
eigval :     1481.22  1481.71  1482.20  1485.10  1495.64  1554.62
eigval :     1555.88  1565.99  1569.69  1575.00  1576.86  1595.26
eigval :     1602.40  2189.19  2932.98  2933.02  2933.60  2934.44
eigval :     2946.48  2946.83  2947.38  2950.23  3026.88  3027.04
eigval :     3028.35  3028.52  3106.85  3107.30  3109.62  3109.98
eigval :     3110.76  3110.82  3113.67  3113.96  3115.05  3116.54
eigval :     3118.59  3118.93  3120.62

   temp. (K)  partition function   enthalpy   heat capacity  entropy
                                   cal/mol     cal/K/mol   cal/K/mol   J/K/mol
 298.15  VIB  0.896E+16            21496.326    132.177    134.047
         ROT  0.619E+08              888.752      2.981     38.636
         INT  0.555E+24            22385.078    135.158    172.682
         TR   0.127E+29             1481.254      4.968     44.809
         TOT                       23866.3321   140.1261   217.4917   909.9853

       T/K    H(0)-H(T)+PV         H(T)/Eh          T*S/Eh         G(T)/Eh
   ------------------------------------------------------------------------
    298.15    0.380334E-01    0.534078E+00    0.103337E+00    0.430740E+00
   ------------------------------------------------------------------------

         :::::::::::::::::::::::::::::::::::::::::::::::::::::
         ::                  THERMODYNAMIC                  ::
         :::::::::::::::::::::::::::::::::::::::::::::::::::::
         :: total free energy        -113.840360273668 Eh   ::
         ::.................................................::
         :: total energy             -114.271100724377 Eh   ::
         :: zero point energy           0.496044362876 Eh   ::
         :: G(RRHO) w/o ZPVE           -0.065303912167 Eh   ::
         :: G(RRHO) contrib.            0.430740450709 Eh   ::
         :::::::::::::::::::::::::::::::::::::::::::::::::::::

           -------------------------------------------------
          | TOTAL ENERGY             -114.271100724377 Eh   |
          | TOTAL ENTHALPY           -113.737022940326 Eh   |
          | TOTAL FREE ENERGY        -113.840360273668 Eh   |
          | GRADIENT NORM               0.000066856482 Eh/α |
           -------------------------------------------------

 * finished run on 2025/09/10 at 21:23:18.920
