   * xtb version 6.7.1 (edcfbbe) compiled by 'albert@albert-system' on 2024-07-22

   ID    Z sym.   atoms
    1    6 C      1, 3-11, 13-16, 18, 20, 22, 24-27, 29-34, 36-41
    2    8 O      2, 12, 28, 35
    3    7 N      17, 19, 21, 23, 42
    4    1 H      43-67

          program call               : xtb data2507/gas/MeOCzPCN/MeOCzPCN_gas_S0_crest.xyz --gfn 2 --ohess vtight --parallel 40 --molden --ceasefiles --namespace data2507/gas/MeOCzPCN/MeOCzPCN_gas_S0_finalOpt
          :  Hamiltonian                  GFN2-xTB          :
 * total energy  :  -114.3537151 Eh     change       -0.2730829E-08 Eh
 * total energy  :  -114.3537161 Eh     change       -0.1031363E-05 Eh
 * total energy  :  -114.3537167 Eh     change       -0.6353059E-06 Eh
 * total energy  :  -114.3537183 Eh     change       -0.1550403E-05 Eh
 * total energy  :  -114.3537202 Eh     change       -0.1892378E-05 Eh
 * total energy  :  -114.3537218 Eh     change       -0.1612351E-05 Eh
 * total energy  :  -114.3537233 Eh     change       -0.1500545E-05 Eh
 * total energy  :  -114.3537258 Eh     change       -0.2546394E-05 Eh
 * total energy  :  -114.3537294 Eh     change       -0.3555655E-05 Eh
 * total energy  :  -114.3537313 Eh     change       -0.1950907E-05 Eh
 * total energy  :  -114.3537331 Eh     change       -0.1729459E-06 Eh
 * total energy  :  -114.3537332 Eh     change       -0.1250475E-06 Eh
 * total energy  :  -114.3537334 Eh     change       -0.1345183E-06 Eh
 * total energy  :  -114.3537335 Eh     change       -0.1225231E-06 Eh
 * total energy  :  -114.3537336 Eh     change       -0.1054799E-06 Eh
 * total energy  :  -114.3537337 Eh     change       -0.1018221E-06 Eh
 * total energy  :  -114.3537338 Eh     change       -0.1127028E-06 Eh
 * total energy  :  -114.3537339 Eh     change       -0.1169712E-06 Eh
 * total energy  :  -114.3537339 Eh     change       -0.2652953E-08 Eh
   *** GEOMETRY OPTIMIZATION CONVERGED AFTER 22 ITERATIONS ***

 final structure:
================
67
 xtb: 6.7.1 (edcfbbe)
C            8.33607773632847       -2.17899619430445       -1.35178515458299
O            7.25773590020376       -2.97058911690300       -0.91789198342630
C            6.09822748515590       -2.34754843834956       -0.56260148746929
C            5.06896304837766       -3.20155708941653       -0.13943976914935
C            3.83846681315015       -2.72116358381438        0.25418532565501
C            3.63719800027401       -1.35028279737640        0.22691096051776
C            4.65881560764003       -0.48396213108467       -0.19944749109905
C            5.89536576131602       -0.97579148646960       -0.59670592843220
C            4.13865619968038        0.85558201765566       -0.10952786335882
C            4.70396937208231        2.09599647628913       -0.33607816964322
C            3.94968968743714        3.23875193736164       -0.08030677948782
O            4.56719203763954        4.42360829896897       -0.34778869654878
C            3.85420649839350        5.61900102601612       -0.14334970472607
C            2.66257940635786        3.12018130327943        0.44713146694708
C            2.09228272411751        1.87982946109388        0.67728156496749
C            2.80957891534943        0.74429208030343        0.35290502638274
N            2.49183459343754       -0.60403573805502        0.52092917923949
C            1.27093593369696       -1.13754697929723        0.82914048149559
N            1.26705248804489       -2.27659324534707        1.52472324623985
C            0.10219384652522       -2.81556298772865        1.80691165511443
N           -1.08487767543325       -2.31868645613819        1.53528957080585
C           -1.13025141300519       -1.18013261397293        0.84271169122015
N           -2.37154551837056       -0.68128746907288        0.54743251763096
C           -3.48852690479919       -1.45565854778828        0.23000745426715
C           -3.63806120233158       -2.83323335879619        0.20457554347034
C           -4.85160847531417       -3.34329428638686       -0.20243656142416
C           -5.91372073684962       -2.51147693473362       -0.58819314694130
O           -7.05087080073518       -3.16423864079784       -0.96435069774727
C           -8.15994489622687       -2.39926247479137       -1.36542072312431
C           -5.76308284517734       -1.13329927631458       -0.56896922090425
C           -4.54320307868537       -0.60976282431956       -0.15733021162562
C           -4.06888399691891        0.74111990647878       -0.01512009931868
C           -4.69199505918390        1.97067373719867       -0.18741061373365
C           -3.97852469199109        3.11987204625532        0.11756118324437
O           -4.45696135742073        4.38992307516202       -0.00854757291798
C           -5.75210135098937        4.56800618440381       -0.52608772748718
C           -2.67581706554149        3.02331769457426        0.62723626604247
C           -2.05160676109664        1.80741759953432        0.79711902276427
C           -2.73658484745219        0.65851651852603        0.43203095787724
C            0.05635997284908       -0.55642642507991        0.38940038386028
C            0.02423647338321        0.40593955848843       -0.63342323624578
N           -0.00864753878241        1.11161200349790       -1.53906143685043
H            9.14180988709533       -2.87595912906039       -1.57684493466970
H            8.08310950457558       -1.61521426695387       -2.25571212769852
H            8.66567374212919       -1.48550310861816       -0.57115450305363
H            5.27218741585951       -4.26035914058970       -0.12868847311831
H            3.06217609337189       -3.39045033114093        0.58517443598559
H            6.65938189018611       -0.28859538334993       -0.92083174886537
H            5.71429364338990        2.20211825871735       -0.69550247901991
H            2.93970171206863        5.64939549326741       -0.74397272866505
H            4.52213275303021        6.41716657385269       -0.46371873461072
H            3.60239419281161        5.76306432732121        0.91258661682892
H            2.08773885252276        3.99801116267917        0.69279964120378
H            1.11195019428405        1.83029690555701        1.12257099961165
H            0.12153859653916       -3.75692135233465        2.34048688635418
H           -2.83503410872297       -3.48469578766270        0.50651824746298
H           -5.01642015051105       -4.40832202347826       -0.23288776154088
H           -8.51425734487967       -1.74979890238843       -0.55794962884534
H           -7.93212503808556       -1.79163962059636       -2.24757635094678
H           -8.93896208155039       -3.11752996339307       -1.61609006634733
H           -6.55622950014024       -0.46575192300163       -0.86387928525593
H           -5.71126722054558        2.00532416269933       -0.53588484199319
H           -5.84237412282551        4.15183646260250       -1.53473833798253
H           -6.51058380490072        4.11765252374744        0.12304948746094
H           -5.90848491335167        5.64483225500941       -0.56603165908989
H           -2.17252414682309        3.93907665637020        0.89157988595750
H           -1.06442120006209        1.77056764239667        1.22827378754158

          :  Hamiltonian                  GFN2-xTB          :
         :: gradient norm              0.000088154480 Eh/a0 ::
         :: HOMO-LUMO gap              2.092716165044 eV    ::
         :: SCC energy              -116.124132120348 Eh    ::
         :: -> dispersion             -0.090602952150 Eh    ::
         :: repulsion energy           1.770398202685 Eh    ::

    * Orbital Energies and Occupations

         #    Occupation            Energy/Eh            Energy/eV
      -------------------------------------------------------------
         1        2.0000           -0.7180181             -19.5383
       ...           ...                  ...                  ...
        91        2.0000           -0.4274691             -11.6320
        92        2.0000           -0.4237542             -11.5309
        93        2.0000           -0.4227714             -11.5042
        94        2.0000           -0.4194190             -11.4130
        95        2.0000           -0.4179894             -11.3741
        96        2.0000           -0.4073935             -11.0857
        97        2.0000           -0.3996060             -10.8738
        98        2.0000           -0.3961659             -10.7802
        99        2.0000           -0.3836031             -10.4384
       100        2.0000           -0.3783320             -10.2949
       101        2.0000           -0.3776928             -10.2775
       102        2.0000           -0.3658625              -9.9556
       103        2.0000           -0.3628992              -9.8750 (HOMO)
       104                         -0.2859933              -7.7823 (LUMO)
       105                         -0.2733468              -7.4381
       106                         -0.2525963              -6.8735
       107                         -0.2502372              -6.8093
       108                         -0.2220282              -6.0417
       109                         -0.2216202              -6.0306
       110                         -0.2092057              -5.6928
       111                         -0.2024370              -5.5086
       112                         -0.1918164              -5.2196
       113                         -0.1898886              -5.1671
       114                         -0.1871899              -5.0937
       ...                                ...                  ...
       193                          1.1653550              31.7109
      -------------------------------------------------------------
                  HL-Gap            0.0769059 Eh            2.0927 eV

     #   Z          covCN         q      C6AA      α(0)
     1   6 C        3.645     0.037    20.289     6.474
     2   8 O        1.705    -0.268    18.444     5.798
     3   6 C        2.867     0.139    24.964     8.190
     4   6 C        2.926    -0.054    29.350     8.884
     5   6 C        2.910    -0.043    29.059     8.839
     6   6 C        3.062     0.044    26.962     8.515
     7   6 C        3.065    -0.010    28.192     8.707
     8   6 C        2.911    -0.070    29.740     8.942
     9   6 C        3.063    -0.007    28.126     8.697
    10   6 C        2.915    -0.057    29.419     8.894
    11   6 C        2.865     0.141    24.934     8.185
    12   8 O        1.706    -0.267    18.426     5.796
    13   6 C        3.643     0.036    20.304     6.477
    14   6 C        2.921    -0.065    29.617     8.924
    15   6 C        2.912    -0.041    29.013     8.832
    16   6 C        3.056     0.038    27.088     8.535
    17   7 N        2.801    -0.033    21.878     6.947
    18   6 C        2.914     0.170    24.342     8.090
    19   7 N        1.843    -0.274    27.965     7.837
    20   6 C        2.903     0.158    24.575     8.128
    21   7 N        1.843    -0.275    27.975     7.839
    22   6 C        2.917     0.171    24.333     8.089
    23   7 N        2.804    -0.034    21.888     6.949
    24   6 C        3.065     0.044    26.960     8.514
    25   6 C        2.910    -0.042    29.047     8.838
    26   6 C        2.926    -0.054    29.348     8.884
    27   6 C        2.867     0.138    24.980     8.193
    28   8 O        1.706    -0.269    18.454     5.800
    29   6 C        3.644     0.038    20.274     6.472
    30   6 C        2.911    -0.070    29.755     8.945
    31   6 C        3.067    -0.011    28.228     8.712
    32   6 C        3.067    -0.010    28.190     8.706
    33   6 C        2.911    -0.069    29.729     8.941
    34   6 C        2.867     0.140    24.949     8.188
    35   8 O        1.706    -0.267    18.428     5.796
    36   6 C        3.645     0.037    20.282     6.473
    37   6 C        2.925    -0.053    29.315     8.879
    38   6 C        2.911    -0.039    28.968     8.826
    39   6 C        3.061     0.039    27.071     8.532
    40   6 C        2.961    -0.050    29.238     8.869
    41   6 C        1.905     0.112    28.337     8.597
    42   7 N        0.911    -0.247    26.432     7.436
    43   1 H        0.925     0.062     2.171     2.304
    44   1 H        0.924     0.041     2.438     2.442
    45   1 H        0.924     0.041     2.441     2.443
    46   1 H        0.926     0.056     2.249     2.345
    47   1 H        0.926     0.061     2.192     2.315
    48   1 H        0.926     0.043     2.404     2.424
    49   1 H        0.926     0.054     2.267     2.354
    50   1 H        0.924     0.044     2.398     2.422
    51   1 H        0.925     0.063     2.165     2.301
    52   1 H        0.924     0.040     2.453     2.449
    53   1 H        0.926     0.044     2.392     2.419
    54   1 H        0.926     0.030     2.582     2.513
    55   1 H        0.925     0.051     2.307     2.375
    56   1 H        0.926     0.059     2.209     2.324
    57   1 H        0.926     0.056     2.251     2.346
    58   1 H        0.924     0.039     2.458     2.452
    59   1 H        0.924     0.040     2.454     2.450
    60   1 H        0.925     0.062     2.173     2.305
    61   1 H        0.926     0.039     2.457     2.451
    62   1 H        0.926     0.041     2.435     2.440
    63   1 H        0.924     0.041     2.431     2.438
    64   1 H        0.924     0.039     2.458     2.452
    65   1 H        0.925     0.063     2.168     2.302
    66   1 H        0.926     0.055     2.254     2.348
    67   1 H        0.926     0.032     2.562     2.503

molecular dipole:
                 x           y           z       tot (Debye)
 q only:       -0.502       0.751      -0.016
   full:       -0.771       0.979       0.145       3.189

 projected vibrational frequencies (cm⁻¹)
eigval :       -0.00    -0.00    -0.00    -0.00     0.00     0.00
eigval :       13.41    15.86    21.70    34.79    50.92    53.97
eigval :       62.71    64.53    72.86    85.82    93.49    96.27
eigval :      107.80   108.54   119.42   124.32   139.00   142.71
eigval :      156.00   177.37   181.12   199.92   201.31   205.31
eigval :      212.55   220.70   232.43   242.22   248.33   257.34
eigval :      261.25   264.61   271.59   286.96   328.65   339.13
eigval :      349.49   352.41   369.57   383.78   387.24   398.46
eigval :      400.99   411.33   422.83   427.68   431.15   449.07
eigval :      450.86   470.53   477.37   501.87   513.26   527.19
eigval :      536.50   551.42   554.47   559.62   570.02   581.56
eigval :      594.00   608.51   609.53   610.60   620.52   634.52
eigval :      650.77   671.78   672.25   692.87   702.03   702.68
eigval :      719.05   725.78   765.71   788.45   794.04   797.23
eigval :      806.27   808.27   810.33   820.90   845.23   851.44
eigval :      852.32   860.50   884.44   897.00   902.48   906.40
eigval :      906.83   915.43   924.11   929.76   939.68   948.77
eigval :     1025.87  1030.03  1044.55  1063.07  1064.35  1065.33
eigval :     1067.18  1120.67  1121.87  1122.58  1122.79  1123.10
eigval :     1136.11  1140.15  1144.37  1156.52  1156.93  1157.75
eigval :     1165.58  1176.81  1180.39  1184.91  1191.19  1194.60
eigval :     1206.14  1207.95  1233.68  1237.48  1242.13  1249.55
eigval :     1256.77  1283.86  1292.87  1302.07  1303.80  1325.47
eigval :     1345.45  1352.05  1356.56  1358.48  1372.02  1400.70
eigval :     1400.81  1401.81  1401.94  1414.42  1415.80  1422.70
eigval :     1427.51  1430.66  1466.15  1471.47  1471.78  1471.94
eigval :     1472.21  1472.45  1475.20  1482.22  1482.82  1484.83
eigval :     1485.01  1488.38  1491.27  1494.57  1529.79  1573.97
eigval :     1574.78  1580.74  1584.60  1604.17  1605.45  1615.25
eigval :     1619.53  2344.21  2926.71  2927.72  2929.26  2930.45
eigval :     2941.38  2942.73  2943.69  2946.29  3026.43  3027.43
eigval :     3027.45  3027.59  3061.07  3098.51  3101.71  3107.90
eigval :     3110.33  3110.44  3111.78  3113.20  3116.44  3117.40
eigval :     3117.92  3121.58  3122.91

   temp. (K)  partition function   enthalpy   heat capacity  entropy
                                   cal/mol     cal/K/mol   cal/K/mol   J/K/mol
 298.15  VIB  0.293E+16            21076.556    130.049    131.074
         ROT  0.610E+08              888.752      2.981     38.606
         INT  0.179E+24            21965.309    133.029    169.680
         TR   0.127E+29             1481.254      4.968     44.809
         TOT                       23446.5626   137.9976   214.4893   897.4233

       T/K    H(0)-H(T)+PV         H(T)/Eh          T*S/Eh         G(T)/Eh
   ------------------------------------------------------------------------
    298.15    0.373645E-01    0.538321E+00    0.101911E+00    0.436410E+00
   ------------------------------------------------------------------------

         :::::::::::::::::::::::::::::::::::::::::::::::::::::
         ::                  THERMODYNAMIC                  ::
         :::::::::::::::::::::::::::::::::::::::::::::::::::::
         :: total free energy        -113.917323551147 Eh   ::
         ::.................................................::
         :: total energy             -114.353733917662 Eh   ::
         :: zero point energy           0.500956681988 Eh   ::
         :: G(RRHO) w/o ZPVE           -0.064546315472 Eh   ::
         :: G(RRHO) contrib.            0.436410366516 Eh   ::
         :::::::::::::::::::::::::::::::::::::::::::::::::::::

           -------------------------------------------------
          | TOTAL ENERGY             -114.353733917662 Eh   |
          | TOTAL ENTHALPY           -113.815412759777 Eh   |
          | TOTAL FREE ENERGY        -113.917323551147 Eh   |
          | GRADIENT NORM               0.000088201938 Eh/α |
          | HOMO-LUMO GAP               2.092716284166 eV   |
           -------------------------------------------------

 * finished run on 2025/09/10 at 21:16:41.597
