   * xtb version 6.7.1 (edcfbbe) compiled by 'albert@albert-system' on 2024-07-22

   ID    Z sym.   atoms
    1    6 C      1, 3-11, 13-16, 18, 20, 22, 24-27, 29-34, 36-41
    2    8 O      2, 12, 28, 35
    3    7 N      17, 19, 21, 23, 42
    4    1 H      43-67

          program call               : xtb data2507/gas/MeOCzPCN/MeOCzPCN.xyz --gfn 2 --ohess vtight --parallel 40 --molden --ceasefiles --namespace data2507/gas/MeOCzPCN/MeOCzPCN_gas_S0_preOpt
          :  Hamiltonian                  GFN2-xTB          :
 * total energy  :  -114.3268071 Eh     change       -0.3502919E-08 Eh
 * total energy  :  -114.3446942 Eh     change       -0.1788711E-01 Eh
 * total energy  :  -114.3496617 Eh     change       -0.4967464E-02 Eh
 * total energy  :  -114.3508296 Eh     change       -0.1167908E-02 Eh
 * total energy  :  -114.3517645 Eh     change       -0.9348826E-03 Eh
 * total energy  :  -114.3521138 Eh     change       -0.3493496E-03 Eh
 * total energy  :  -114.3523784 Eh     change       -0.2646057E-03 Eh
 * total energy  :  -114.3525964 Eh     change       -0.2179895E-03 Eh
 * total energy  :  -114.3527360 Eh     change       -0.1396144E-03 Eh
 * total energy  :  -114.3528120 Eh     change       -0.7601398E-04 Eh
 * total energy  :  -114.3531246 Eh     change       -0.8147769E-06 Eh
 * total energy  :  -114.3531252 Eh     change       -0.5934357E-06 Eh
 * total energy  :  -114.3531257 Eh     change       -0.4433562E-06 Eh
 * total energy  :  -114.3531260 Eh     change       -0.3540904E-06 Eh
 * total energy  :  -114.3531263 Eh     change       -0.3091841E-06 Eh
 * total energy  :  -114.3531266 Eh     change       -0.2979092E-06 Eh
 * total energy  :  -114.3531270 Eh     change       -0.3123539E-06 Eh
 * total energy  :  -114.3531273 Eh     change       -0.3535198E-06 Eh
 * total energy  :  -114.3531273 Eh     change       -0.3120391E-08 Eh
   *** GEOMETRY OPTIMIZATION CONVERGED AFTER 68 ITERATIONS ***

 final structure:
================
67
 xtb: 6.7.1 (edcfbbe)
C            5.74853192096807       -4.76431398587679       -0.66944485726593
O            4.45907627134266       -4.59571069411138       -0.13366792557424
C            3.99424977057693       -3.32840661936597        0.04761180367294
C            2.69661929185467       -3.23845277348902        0.57111782440824
C            2.08668501381596       -2.02379131514287        0.79584271526025
C            2.78162340361149       -0.86827202537377        0.47267371117771
C            4.10834336827474       -0.94813964745978        0.01058591766551
C            4.71761954240725       -2.17461145649320       -0.21677415711224
C            4.59969491222871        0.40197225741885       -0.08298811067660
C            5.81130185242976        0.93533809246971       -0.48190093284087
C            5.98240057990543        2.31715028173650       -0.45011491268195
O            7.20588412466175        2.76597246012829       -0.85527208307540
C            7.45223409295858        4.15026695864387       -0.85806757321931
C            4.93944977316873        3.14261102503929       -0.02398505683486
C            3.72186500682189        2.61680572572778        0.37550675889633
C            3.55585028253692        1.24608948738744        0.34928130079343
N            2.43204891661689        0.47129226644575        0.64567939758315
C            1.20082444899341        0.97416853589720        0.96767331569322
N            1.17642398202713        2.09596248988445        1.69035661898669
C           -0.00000087712415        2.60454803875732        1.98279848434874
N           -1.17642668578264        2.09596567346679        1.69035458558333
C           -1.20082767030720        0.97417102311143        0.96767276492403
N           -2.43205190659081        0.47129479182544        0.64567766186949
C           -2.78162593091567       -0.86827039979060        0.47268023182006
C           -2.08668776916180       -2.02378676617683        0.79586019651012
C           -2.69662217349603       -3.23844998821387        0.57114638362123
C           -3.99425246065958       -3.32840825292085        0.04764049157910
O           -4.45907771375973       -4.59571407571902       -0.13363134193620
C           -5.74852911210365       -4.76432225100924       -0.66941692191085
C           -4.71762082671580       -2.17461545320749       -0.21675960124097
C           -4.10834491036745       -0.94814150261881        0.01059067634719
C           -4.59969490604158        0.40197004714154       -0.08299763496211
C           -5.81130000302751        0.93533377578746       -0.48191913094737
C           -5.98239853926596        2.31714623378351       -0.45014250152008
O           -7.20587995287714        2.76596602477026       -0.85530921574282
C           -7.45222884263381        4.15026066529930       -0.85811783846751
C           -4.93944815917839        3.14260982670398       -0.02401702315275
C           -3.72186457965824        2.61680692929637        0.37548150799580
C           -3.55585126904289        1.24609029641745        0.34926861392700
C           -0.00000198233755        0.38030507438111        0.51057577926316
C           -0.00000450542369       -0.55613396481952       -0.53685147932316
N           -0.00000920205347       -1.23336167784761       -1.46437076087762
H            5.83420460887730       -4.30813534272762       -1.66091349701411
H            6.51635623562486       -4.34722856785632       -0.00933238618228
H            5.89418925908880       -5.84002149370221       -0.75428272193094
H            2.18365977441517       -4.15811832953813        0.80080353726498
H            1.10252768930248       -1.99651057805013        1.23438919940328
H            5.73341084025469       -2.20204784434899       -0.57511379735102
H            6.62353566715985        0.31227279084478       -0.81857778132885
H            8.47400912170576        4.26566471578995       -1.21662991168063
H            7.37300465386596        4.57655639761362        0.14738918207458
H            6.77179005341167        4.67999982139366       -1.53289072214570
H            5.06688125978248        4.21279993955531        0.00330644469841
H            2.92965380838986        3.26579102996712        0.71029803696423
H           -0.00000004093377        3.53080251324017        2.54287387405819
H           -1.10253381299452       -1.99650095936580        1.23441441429838
H           -2.18366475779023       -4.15811364178446        0.80084497857282
H           -6.51635828142754       -4.34723181286144       -0.00931347724778
H           -5.83419439634207       -4.30815121477568       -1.66088976183325
H           -5.89418564160314       -5.84003052556592       -0.75424697476253
H           -5.73340998603946       -2.20205502877982       -0.57510511713267
H           -6.62353346001556        0.31226640907358       -0.81859306412592
H           -7.37300269270631        4.57655868720713        0.14733542989928
H           -6.77178195484771        4.67998744207170       -1.53294294626211
H           -8.47400261044506        4.26565619422989       -1.21668450512855
H           -5.06687840770608        4.21279925876320        0.00326341732502
H           -2.92965450570767        3.26579400770476        0.71027246701087

          :  Hamiltonian                  GFN2-xTB          :
         :: gradient norm              0.000046772422 Eh/a0 ::
         :: HOMO-LUMO gap              2.084853793765 eV    ::
         :: SCC energy              -116.123554205529 Eh    ::
         :: -> dispersion             -0.090468529876 Eh    ::
         :: repulsion energy           1.770426897192 Eh    ::

    * Orbital Energies and Occupations

         #    Occupation            Energy/Eh            Energy/eV
      -------------------------------------------------------------
         1        2.0000           -0.7160396             -19.4844
       ...           ...                  ...                  ...
        91        2.0000           -0.4265313             -11.6065
        92        2.0000           -0.4227798             -11.5044
        93        2.0000           -0.4224682             -11.4959
        94        2.0000           -0.4189795             -11.4010
        95        2.0000           -0.4173403             -11.3564
        96        2.0000           -0.4068194             -11.0701
        97        2.0000           -0.3959920             -10.7755
        98        2.0000           -0.3959285             -10.7738
        99        2.0000           -0.3835092             -10.4358
       100        2.0000           -0.3780882             -10.2883
       101        2.0000           -0.3778544             -10.2819
       102        2.0000           -0.3642969              -9.9130
       103        2.0000           -0.3616909              -9.8421 (HOMO)
       104                         -0.2850739              -7.7573 (LUMO)
       105                         -0.2725932              -7.4176
       106                         -0.2517298              -6.8499
       107                         -0.2496976              -6.7946
       108                         -0.2212957              -6.0218
       109                         -0.2212477              -6.0205
       110                         -0.2078729              -5.6565
       111                         -0.2018675              -5.4931
       112                         -0.1901175              -5.1734
       113                         -0.1893128              -5.1515
       114                         -0.1861810              -5.0662
       ...                                ...                  ...
       193                          1.1666637              31.7465
      -------------------------------------------------------------
                  HL-Gap            0.0766170 Eh            2.0849 eV

     #   Z          covCN         q      C6AA      α(0)
     1   6 C        3.645     0.036    20.297     6.475
     2   8 O        1.706    -0.265    18.399     5.791
     3   6 C        2.868     0.141    24.926     8.184
     4   6 C        2.925    -0.052    29.299     8.877
     5   6 C        2.911    -0.039    28.966     8.825
     6   6 C        3.058     0.039    27.070     8.532
     7   6 C        3.065    -0.009    28.166     8.703
     8   6 C        2.911    -0.069    29.716     8.939
     9   6 C        3.063    -0.008    28.157     8.701
    10   6 C        2.915    -0.058    29.439     8.897
    11   6 C        2.864     0.138    24.982     8.193
    12   8 O        1.706    -0.270    18.474     5.803
    13   6 C        3.643     0.037    20.285     6.475
    14   6 C        2.922    -0.067    29.671     8.933
    15   6 C        2.911    -0.045    29.113     8.848
    16   6 C        3.061     0.043    26.967     8.516
    17   7 N        2.802    -0.034    21.893     6.949
    18   6 C        2.916     0.170    24.339     8.090
    19   7 N        1.843    -0.276    28.017     7.844
    20   6 C        2.903     0.158    24.580     8.129
    21   7 N        1.843    -0.276    28.017     7.844
    22   6 C        2.916     0.170    24.339     8.090
    23   7 N        2.802    -0.034    21.893     6.949
    24   6 C        3.058     0.039    27.070     8.532
    25   6 C        2.911    -0.039    28.966     8.825
    26   6 C        2.925    -0.052    29.299     8.877
    27   6 C        2.868     0.141    24.926     8.184
    28   8 O        1.706    -0.265    18.399     5.791
    29   6 C        3.645     0.036    20.297     6.475
    30   6 C        2.911    -0.069    29.716     8.939
    31   6 C        3.065    -0.009    28.166     8.703
    32   6 C        3.063    -0.008    28.157     8.701
    33   6 C        2.915    -0.058    29.439     8.897
    34   6 C        2.864     0.138    24.982     8.193
    35   8 O        1.706    -0.270    18.474     5.803
    36   6 C        3.643     0.037    20.285     6.475
    37   6 C        2.922    -0.067    29.671     8.933
    38   6 C        2.911    -0.045    29.113     8.848
    39   6 C        3.061     0.043    26.967     8.516
    40   6 C        2.961    -0.050    29.230     8.868
    41   6 C        1.905     0.111    28.352     8.599
    42   7 N        0.911    -0.244    26.372     7.427
    43   1 H        0.924     0.042     2.418     2.432
    44   1 H        0.924     0.040     2.444     2.445
    45   1 H        0.925     0.063     2.161     2.299
    46   1 H        0.926     0.058     2.221     2.331
    47   1 H        0.926     0.033     2.542     2.493
    48   1 H        0.926     0.045     2.386     2.416
    49   1 H        0.926     0.053     2.285     2.364
    50   1 H        0.925     0.062     2.175     2.306
    51   1 H        0.924     0.040     2.446     2.446
    52   1 H        0.924     0.040     2.452     2.449
    53   1 H        0.926     0.041     2.430     2.438
    54   1 H        0.926     0.056     2.249     2.345
    55   1 H        0.925     0.049     2.332     2.388
    56   1 H        0.926     0.033     2.542     2.493
    57   1 H        0.926     0.058     2.221     2.331
    58   1 H        0.924     0.040     2.444     2.445
    59   1 H        0.924     0.042     2.418     2.432
    60   1 H        0.925     0.063     2.161     2.299
    61   1 H        0.926     0.045     2.386     2.416
    62   1 H        0.926     0.053     2.285     2.364
    63   1 H        0.924     0.040     2.446     2.446
    64   1 H        0.924     0.040     2.452     2.449
    65   1 H        0.925     0.062     2.175     2.306
    66   1 H        0.926     0.041     2.430     2.438
    67   1 H        0.926     0.056     2.249     2.345

molecular dipole:
                 x           y           z       tot (Debye)
 q only:        0.000       0.738      -0.015
   full:        0.000       1.238       0.165       3.174

 projected vibrational frequencies (cm⁻¹)
eigval :       -0.00    -0.00    -0.00     0.00     0.00     0.00
eigval :       13.17    16.22    21.05    34.67    51.18    55.32
eigval :       64.16    71.17    75.41    77.44    93.43   100.57
eigval :      102.30   108.80   109.66   116.68   134.51   146.99
eigval :      161.91   181.83   182.00   208.31   211.78   211.97
eigval :      220.75   225.04   229.98   238.79   245.83   253.60
eigval :      256.97   265.64   272.46   287.75   304.74   341.95
eigval :      352.22   353.16   375.62   385.19   389.35   396.80
eigval :      397.71   407.38   415.98   425.17   429.71   437.84
eigval :      449.17   471.70   477.06   505.04   520.36   531.38
eigval :      539.06   551.04   554.21   559.16   574.99   585.63
eigval :      594.81   602.39   609.93   610.13   622.55   643.11
eigval :      650.30   671.82   671.87   691.32   702.50   702.60
eigval :      719.14   726.68   760.43   785.46   795.75   802.24
eigval :      804.95   805.15   809.32   821.60   843.75   852.05
eigval :      861.16   861.30   893.66   894.09   894.43   897.34
eigval :      905.67   917.12   922.51   924.65   936.73   947.72
eigval :     1027.58  1028.34  1042.38  1062.51  1063.28  1065.40
eigval :     1066.29  1122.14  1122.15  1122.34  1122.34  1124.45
eigval :     1135.77  1141.80  1145.57  1156.49  1158.06  1162.52
eigval :     1168.83  1177.82  1178.37  1188.96  1190.12  1192.99
eigval :     1201.16  1204.44  1231.00  1241.78  1248.10  1251.53
eigval :     1255.43  1286.86  1289.93  1296.79  1299.90  1323.02
eigval :     1348.80  1354.94  1358.67  1366.96  1367.11  1400.49
eigval :     1400.88  1401.88  1401.95  1414.78  1416.24  1423.22
eigval :     1426.51  1428.90  1465.45  1466.92  1471.40  1471.43
eigval :     1472.88  1472.88  1473.59  1481.82  1482.26  1485.39
eigval :     1485.65  1487.52  1489.39  1490.28  1531.42  1573.73
eigval :     1574.17  1584.41  1585.46  1606.48  1607.00  1618.63
eigval :     1618.90  2344.90  2928.57  2928.59  2929.52  2929.58
eigval :     2942.61  2942.70  2944.68  2944.79  3025.76  3025.79
eigval :     3027.81  3027.86  3058.59  3099.68  3102.49  3107.27
eigval :     3107.36  3113.18  3113.20  3116.21  3116.30  3118.76
eigval :     3119.18  3119.43  3119.52

   temp. (K)  partition function   enthalpy   heat capacity  entropy
                                   cal/mol     cal/K/mol   cal/K/mol   J/K/mol
 298.15  VIB  0.289E+16            21074.111    130.129    131.122
         ROT  0.627E+08              888.752      2.981     38.659
         INT  0.181E+24            21962.863    133.110    169.782
         TR   0.127E+29             1481.254      4.968     44.809
         TOT                       23444.1173   138.0784   214.5909   897.8484

       T/K    H(0)-H(T)+PV         H(T)/Eh          T*S/Eh         G(T)/Eh
   ------------------------------------------------------------------------
    298.15    0.373606E-01    0.538317E+00    0.101959E+00    0.436358E+00
   ------------------------------------------------------------------------

         :::::::::::::::::::::::::::::::::::::::::::::::::::::
         ::                  THERMODYNAMIC                  ::
         :::::::::::::::::::::::::::::::::::::::::::::::::::::
         :: total free energy        -113.916769544274 Eh   ::
         ::.................................................::
         :: total energy             -114.353127308336 Eh   ::
         :: zero point energy           0.500956251195 Eh   ::
         :: G(RRHO) w/o ZPVE           -0.064598487133 Eh   ::
         :: G(RRHO) contrib.            0.436357764063 Eh   ::
         :::::::::::::::::::::::::::::::::::::::::::::::::::::

           -------------------------------------------------
          | TOTAL ENERGY             -114.353127308336 Eh   |
          | TOTAL ENTHALPY           -113.814810478128 Eh   |
          | TOTAL FREE ENERGY        -113.916769544274 Eh   |
          | GRADIENT NORM               0.000046792686 Eh/α |
          | HOMO-LUMO GAP               2.084853379647 eV   |
           -------------------------------------------------

 * finished run on 2025/09/10 at 21:11:58.003
