   * xtb version 6.7.1 (edcfbbe) compiled by 'albert@albert-system' on 2024-07-22

   ID    Z sym.   atoms
    1    6 C      1, 3-11, 13-16, 18, 20, 22, 24-27, 29-34, 36-41
    2    8 O      2, 12, 28, 35
    3    7 N      17, 19, 21, 23, 42
    4    1 H      43-67

          program call               : xtb data2507/gas/MeOCzPCN/MeOCzPCN_gas_S0_finalOpt.xtbopt.xyz --gfn 2 --spinpol --tblite --uhf 2 --ohess vtight --parallel 40 --molden --ceasefiles --namespace data2507/gas/MeOCzPCN/MeOCzPCN_gas_T1_preOpt
 * total energy  :  -114.2645009 Eh     change       -0.2037412E-07 Eh
 * total energy  :  -114.2678101 Eh     change       -0.3309173E-02 Eh
 * total energy  :  -114.2702523 Eh     change       -0.2442288E-02 Eh
 * total energy  :  -114.2706393 Eh     change       -0.3869293E-03 Eh
 * total energy  :  -114.2708443 Eh     change       -0.2050668E-03 Eh
 * total energy  :  -114.2709112 Eh     change       -0.6680562E-04 Eh
 * total energy  :  -114.2709680 Eh     change       -0.5687120E-04 Eh
 * total energy  :  -114.2710011 Eh     change       -0.3311169E-04 Eh
 * total energy  :  -114.2710144 Eh     change       -0.1328498E-04 Eh
 * total energy  :  -114.2710190 Eh     change       -0.4578370E-05 Eh
 * total energy  :  -114.2710261 Eh     change       -0.4379098E-06 Eh
 * total energy  :  -114.2710263 Eh     change       -0.2138252E-06 Eh
 * total energy  :  -114.2710265 Eh     change       -0.2063682E-06 Eh
 * total energy  :  -114.2710267 Eh     change       -0.2209461E-06 Eh
 * total energy  :  -114.2710269 Eh     change       -0.1887028E-06 Eh
 * total energy  :  -114.2710271 Eh     change       -0.2219709E-06 Eh
 * total energy  :  -114.2710273 Eh     change       -0.2064996E-06 Eh
 * total energy  :  -114.2710273 Eh     change        0.4261878E-08 Eh
 * total energy  :  -114.2710273 Eh     change       -0.6807653E-08 Eh
   *** GEOMETRY OPTIMIZATION CONVERGED AFTER 23 ITERATIONS ***

 final structure:
================
67
 xtb: 6.7.1 (edcfbbe)
C            8.33058854102614       -2.20828835290740       -1.36038757680185
O            7.23518661311159       -2.98588944264581       -0.94214753002768
C            6.08543651213339       -2.35528246311763       -0.58425353188360
C            5.04048466844193       -3.20619791911458       -0.18254147530713
C            3.81684444723011       -2.71594563685799        0.21163126190413
C            3.63426552561293       -1.33840779724406        0.20825426287428
C            4.67314960172880       -0.47323163634628       -0.20086437443584
C            5.90285021251154       -0.97667183004197       -0.59733837439934
C            4.15890081120019        0.86572537678337       -0.08956068104916
C            4.71063522222385        2.10990812930844       -0.31808544175761
C            3.94279861442169        3.24795955609971       -0.06117621424384
O            4.55096888062089        4.43392719477919       -0.32733523966130
C            3.82684850641409        5.62671995716889       -0.14344998343713
C            2.65174193993808        3.12017927541459        0.46169852352084
C            2.09475918239485        1.87780287578585        0.69743941535222
C            2.82805883089630        0.74498025799943        0.38381867244792
N            2.51436145807054       -0.59301465468458        0.53184593022307
C            1.28685534065104       -1.13101426870248        0.87703627161527
N            1.27307544794548       -2.23218252399860        1.57304540313964
C            0.10404583767599       -2.79852927405292        1.88958964724419
N           -1.08800083061881       -2.27616510124161        1.58136875869343
C           -1.14365485187415       -1.17471562700506        0.88920412517222
N           -2.39053576361686       -0.67147067638171        0.55983025277570
C           -3.48500210201793       -1.44455025987244        0.21687618821788
C           -3.61919639569429       -2.82647053994218        0.17770977798857
C           -4.82613730409690       -3.34668945799512       -0.22980062599103
C           -5.90045187889714       -2.52017635533277       -0.60258794569172
O           -7.02949162068650       -3.18004235649723       -0.97866450186413
C           -8.15223211916261       -2.42912673059095       -1.36991124770144
C           -5.76673842230841       -1.13698016253892       -0.57185133713170
C           -4.55370611343840       -0.60197744652877       -0.16133695620205
C           -4.08459886835516        0.74796313702375       -0.00492260982365
C           -4.69508014570890        1.98057895369459       -0.18506466609491
C           -3.97142251632367        3.12692525259945        0.12052833505788
O           -4.44045880240342        4.39710166517100       -0.00908938054042
C           -5.73524878219267        4.58864600027246       -0.52358459862309
C           -2.66637350435549        3.02428736811108        0.63061081954130
C           -2.05365279917912        1.80643873602963        0.81035973939755
C           -2.75125079751121        0.65793869355820        0.45691674065745
C            0.05813270657654       -0.51646439098664        0.38130565744967
C            0.03083217201733        0.30793240178515       -0.71526470484289
N            0.00012879735648        1.04354684284007       -1.61599709612011
H            9.12393900809411       -2.91716377732696       -1.59188697365983
H            8.09174637343956       -1.62737500467382       -2.25694872676954
H            8.66909873906648       -1.53270320796172       -0.56826008558795
H            5.23129348886203       -4.26715925095656       -0.19308497262786
H            3.02458562578262       -3.37521458834245        0.52604005729234
H            6.68174649836448       -0.29825152174044       -0.90472559944466
H            5.71640714635820        2.22877134345564       -0.68680926902372
H            2.91746819355832        5.64137850456080       -0.75179915319795
H            4.49122587482718        6.42623824505417       -0.46771898368921
H            3.56516592703440        5.78029464110147        0.90849691796283
H            2.06867310402656        3.99539754943289        0.69673066118622
H            1.10973574934872        1.81058683593636        1.12783308092407
H            0.12306227191667       -3.69943135440761        2.47684101221308
H           -2.80358441552434       -3.46701995955800        0.47057934993506
H           -4.98053727707993       -4.41268554926997       -0.27329203474155
H           -8.51279211366212       -1.79141039540479       -0.55611371457756
H           -7.93698793805005       -1.81194453697773       -2.24829301115546
H           -8.92096938494137       -3.15763774650203       -1.62263386932128
H           -6.57183157798612       -0.47919522902374       -0.85687214615047
H           -5.70988070695592        2.02564317545472       -0.54592326089123
H           -5.83086047973067        4.17662942444181       -1.53325627896921
H           -6.49606161433103        4.14284408801604        0.12572511846138
H           -5.88192818798822        5.66696508839833       -0.55975110195234
H           -2.15709793592112        3.93958409925609        0.88474858254973
H           -1.06307767965989        1.75565430922908        1.23030274428269

 projected vibrational frequencies (cm⁻¹)
eigval :       -0.00     0.00     0.00     0.00     0.00     0.00
eigval :       12.30    13.88    20.01    33.05    49.03    51.96
eigval :       61.85    63.32    69.16    83.69    91.57    94.48
eigval :      104.33   107.71   114.99   120.03   130.39   138.72
eigval :      146.25   170.56   182.63   198.28   199.78   203.35
eigval :      211.43   221.45   230.27   234.39   249.83   253.58
eigval :      260.15   261.19   268.45   284.91   323.30   332.70
eigval :      339.85   341.76   359.52   371.91   378.97   391.41
eigval :      394.53   399.37   403.98   418.76   421.88   427.20
eigval :      448.49   466.36   467.54   476.64   498.43   501.92
eigval :      513.91   528.07   543.67   560.60   566.68   571.24
eigval :      576.92   589.95   607.28   608.51   609.86   620.93
eigval :      633.37   641.62   672.86   673.67   686.38   687.30
eigval :      699.27   700.30   721.03   751.48   753.15   785.95
eigval :      789.94   794.82   806.27   809.40   811.86   837.96
eigval :      842.93   844.72   853.69   881.14   889.83   898.68
eigval :      904.31   905.07   915.49   922.21   932.60   942.11
eigval :      951.66  1020.68  1026.42  1036.96  1059.65  1060.63
eigval :     1062.12  1063.28  1110.15  1118.89  1119.53  1120.38
eigval :     1120.47  1125.96  1130.50  1135.46  1148.63  1153.64
eigval :     1154.28  1155.99  1160.50  1174.10  1178.85  1188.45
eigval :     1191.03  1197.12  1199.04  1228.47  1234.52  1239.45
eigval :     1246.91  1258.18  1270.64  1274.04  1285.54  1297.25
eigval :     1307.51  1336.66  1348.79  1349.90  1359.68  1364.28
eigval :     1369.67  1399.13  1399.49  1399.93  1400.04  1415.21
eigval :     1416.64  1420.97  1433.50  1454.36  1460.47  1467.47
eigval :     1469.49  1469.65  1470.41  1470.69  1473.96  1478.51
eigval :     1481.03  1481.73  1482.20  1486.53  1497.71  1555.09
eigval :     1555.90  1562.62  1567.08  1573.51  1574.68  1593.31
eigval :     1601.26  2188.48  2929.98  2930.36  2933.32  2934.70
eigval :     2943.82  2945.12  2946.74  2950.36  3027.23  3028.09
eigval :     3028.33  3028.77  3105.38  3107.88  3108.92  3109.76
eigval :     3109.85  3110.40  3110.99  3114.11  3117.00  3118.65
eigval :     3118.97  3119.13  3120.86

   temp. (K)  partition function   enthalpy   heat capacity  entropy
                                   cal/mol     cal/K/mol   cal/K/mol   J/K/mol
 298.15  VIB  0.873E+16            21495.277    132.169    133.981
         ROT  0.611E+08              888.752      2.981     38.610
         INT  0.533E+24            22384.029    135.150    172.591
         TR   0.127E+29             1481.254      4.968     44.809
         TOT                       23865.2834   140.1184   217.4000   909.6018

       T/K    H(0)-H(T)+PV         H(T)/Eh          T*S/Eh         G(T)/Eh
   ------------------------------------------------------------------------
    298.15    0.380317E-01    0.534044E+00    0.103294E+00    0.430750E+00
   ------------------------------------------------------------------------

         :::::::::::::::::::::::::::::::::::::::::::::::::::::
         ::                  THERMODYNAMIC                  ::
         :::::::::::::::::::::::::::::::::::::::::::::::::::::
         :: total free energy        -113.840277301810 Eh   ::
         ::.................................................::
         :: total energy             -114.271027310802 Eh   ::
         :: zero point energy           0.496012032078 Eh   ::
         :: G(RRHO) w/o ZPVE           -0.065262023086 Eh   ::
         :: G(RRHO) contrib.            0.430750008992 Eh   ::
         :::::::::::::::::::::::::::::::::::::::::::::::::::::

           -------------------------------------------------
          | TOTAL ENERGY             -114.271027310802 Eh   |
          | TOTAL ENTHALPY           -113.736983528794 Eh   |
          | TOTAL FREE ENERGY        -113.840277301810 Eh   |
          | GRADIENT NORM               0.000070544001 Eh/α |
           -------------------------------------------------

 * finished run on 2025/09/10 at 21:16:48.043
