   * xtb version 6.7.1 (edcfbbe) compiled by 'albert@albert-system' on 2024-07-22

   ID    Z sym.   atoms
    1   35 Br     1
    2    6 C      2-7, 9-13, 15, 16, 18-22
    3    7 N      8, 14, 17, 23, 24
    4    1 H      25-34

          program call               : xtb data2507/toluene/bpipH/bpipH.xyz --gfn 2 --gbsa toluene --ohess vtight --parallel 40 --molden --ceasefiles --namespace data2507/toluene/bpipH/bpipH_toluene_S0_preOpt
      * Solvation model:               GBSA
        Solvent                        toluene
        Solvent mass                       9.2140E+01 g/mol
          :  Hamiltonian                  GFN2-xTB          :
 * total energy  :   -62.3905066 Eh     change       -0.6763088E-09 Eh
 * total energy  :   -62.4013864 Eh     change       -0.1087977E-01 Eh
 * total energy  :   -62.4042325 Eh     change       -0.2846100E-02 Eh
 * total energy  :   -62.4045800 Eh     change       -0.3475469E-03 Eh
 * total energy  :   -62.4047230 Eh     change       -0.1430120E-03 Eh
 * total energy  :   -62.4047389 Eh     change       -0.1591431E-04 Eh
 * total energy  :   -62.4047431 Eh     change       -0.4145481E-05 Eh
 * total energy  :   -62.4047442 Eh     change       -0.1099859E-05 Eh
 * total energy  :   -62.4047447 Eh     change       -0.5528799E-06 Eh
 * total energy  :   -62.4047450 Eh     change       -0.2935367E-06 Eh
 * total energy  :   -62.4047453 Eh     change       -0.2192465E-06 Eh
 * total energy  :   -62.4047454 Eh     change       -0.1646587E-06 Eh
 * total energy  :   -62.4047455 Eh     change       -0.1167118E-06 Eh
 * total energy  :   -62.4047456 Eh     change       -0.7434144E-07 Eh
   *** GEOMETRY OPTIMIZATION CONVERGED AFTER 14 ITERATIONS ***

 final structure:
================
34
 xtb: 6.7.1 (edcfbbe)
Br           5.72947009009285        3.04589505722044       -0.00002540341786
C            4.98109759284495        1.29088722799586        0.00002678399193
C            5.82086560481674        0.18596849547926        0.00000916304489
C            5.20311759259855       -1.05473869248458       -0.00001085512650
C            3.81988471076045       -1.13264760004636       -0.00000513262644
C            3.07482534371664        0.05224580771249       -0.00000744538140
C            1.62561511626355        0.07220054070875       -0.00000461212278
N            0.88991747831401        1.16015125596986        0.00000207316610
C           -0.39925903830066        0.74436986296794       -0.00000040026421
C           -1.59332652939103        1.52259556371633        0.00000028478840
C           -1.60814111993443        2.92253262930023        0.00000034676198
C           -2.82110898240447        3.57136501836867       -0.00000007944688
C           -3.98617843232271        2.79732681052909        0.00000025875414
N           -3.99437380887456        1.48657962706546        0.00000238437492
C           -2.82923266082508        0.83175314353672        0.00000162826972
C           -2.87037090354158       -0.61996486057225        0.00000231902496
N           -4.06635894636640       -1.21091112190081        0.00000407443279
C           -4.13586514077146       -2.51982511822990        0.00000266272307
C           -3.01710744704855       -3.35811534017995        0.00000103962904
C           -1.76989143270016       -2.77849615302351       -0.00000040992702
C           -1.66907853888943       -1.37992548035717       -0.00000006275372
C           -0.45144876840851       -0.65311084211912       -0.00000123899351
N            0.84996043278356       -1.06277281692139       -0.00000183247810
N            3.67661656154272        1.24236375114903        0.00000214866723
H            6.89242747954576        0.29755729754768        0.00000930389365
H            5.79927660548659       -1.95465323206586        0.00000299522626
H            3.33932195318237       -2.09770631847026        0.00000178691743
H           -0.66788425288633        3.45313521352347       -0.00000012236803
H           -2.88075106098247        4.64841970039563       -0.00000051260701
H           -4.96215259611866        3.26619969465424       -0.00000217020411
H           -5.13650018332310       -2.93233707854859        0.00000201115865
H           -3.13584255099683       -4.43005352426902       -0.00000043497735
H           -0.87770310209192       -3.38886204174314       -0.00000111133469
H            1.17018093422958       -2.01742947690924       -0.00000644079555

          :  Hamiltonian                  GFN2-xTB          :
         :: gradient norm              0.000039920625 Eh/a0 ::
         :: HOMO-LUMO gap              1.874337885738 eV    ::
         :: SCC energy               -63.387245799868 Eh    ::
         :: -> dispersion             -0.044232466480 Eh    ::
         :: -> Gsolv                  -0.032365047208 Eh    ::
         :: repulsion energy           0.982500190488 Eh    ::

    * Orbital Energies and Occupations

         #    Occupation            Energy/Eh            Energy/eV
      -------------------------------------------------------------
         1        2.0000           -0.8476215             -23.0650
       ...           ...                  ...                  ...
        45        2.0000           -0.4628115             -12.5937
        46        2.0000           -0.4571624             -12.4400
        47        2.0000           -0.4510978             -12.2750
        48        2.0000           -0.4441452             -12.0858
        49        2.0000           -0.4402848             -11.9808
        50        2.0000           -0.4234814             -11.5235
        51        2.0000           -0.4194339             -11.4134
        52        2.0000           -0.4117402             -11.2040
        53        2.0000           -0.4041311             -10.9970
        54        2.0000           -0.4012824             -10.9194
        55        2.0000           -0.3960730             -10.7777
        56        2.0000           -0.3754913             -10.2176
        57        2.0000           -0.3706348             -10.0855 (HOMO)
        58                         -0.3017545              -8.2112 (LUMO)
        59                         -0.2820767              -7.6757
        60                         -0.2785351              -7.5793
        61                         -0.2748970              -7.4803
        62                         -0.2404994              -6.5443
        63                         -0.2167321              -5.8976
        64                         -0.2152681              -5.8577
        65                         -0.2027306              -5.5166
        66                         -0.1704245              -4.6375
        67                         -0.1315073              -3.5785
        68                         -0.1237704              -3.3680
       ...                                ...                  ...
       111                          0.6857341              18.6598
      -------------------------------------------------------------
                  HL-Gap            0.0688803 Eh            1.8743 eV

     #   Z          covCN         q      C6AA      α(0)
     1  35 Br       1.109    -0.154   189.306    22.184
     2   6 C        2.909     0.172    24.313     8.085
     3   6 C        2.981    -0.044    29.093     8.848
     4   6 C        2.932    -0.008    28.228     8.713
     5   6 C        2.916    -0.053    29.319     8.879
     6   6 C        2.963     0.089    26.024     8.368
     7   6 C        3.190     0.133    24.644     8.097
     8   7 N        1.898    -0.265    27.728     7.807
     9   6 C        3.204     0.061    26.076     8.318
    10   6 C        2.978    -0.010    28.259     8.720
    11   6 C        2.924    -0.014    28.364     8.734
    12   6 C        2.913    -0.038    28.949     8.823
    13   6 C        2.904     0.061    26.632     8.462
    14   7 N        1.841    -0.221    26.660     7.652
    15   6 C        2.971     0.078    26.254     8.405
    16   6 C        2.971     0.083    26.156     8.389
    17   7 N        1.841    -0.215    26.524     7.632
    18   6 C        2.903     0.061    26.634     8.462
    19   6 C        2.912    -0.040    28.982     8.828
    20   6 C        2.924    -0.021    28.543     8.761
    21   6 C        2.974    -0.019    28.468     8.752
    22   6 C        3.078     0.031    27.231     8.555
    23   7 N        2.792    -0.118    23.569     7.210
    24   7 N        1.969    -0.229    26.814     7.679
    25   1 H        0.926     0.076     2.021     2.223
    26   1 H        0.926     0.072     2.069     2.249
    27   1 H        0.926     0.051     2.305     2.374
    28   1 H        0.926     0.060     2.196     2.317
    29   1 H        0.926     0.053     2.286     2.364
    30   1 H        0.925     0.048     2.342     2.393
    31   1 H        0.925     0.050     2.318     2.381
    32   1 H        0.926     0.053     2.278     2.360
    33   1 H        0.926     0.041     2.435     2.440
    34   1 H        0.860     0.177     1.232     1.739

molecular dipole:
                 x           y           z       tot (Debye)
 q only:        0.579      -2.111       0.000
   full:        0.954      -3.360       0.000       8.878

 projected vibrational frequencies (cm⁻¹)
eigval :       -0.00    -0.00    -0.00    -0.00     0.00     0.00
eigval :       -9.25    36.57    44.05    78.96    89.36   112.78
eigval :      127.79   142.25   175.84   190.80   218.44   253.52
eigval :      270.76   286.46   297.29   329.59   387.25   398.36
eigval :      401.23   417.64   442.62   456.30   480.58   502.08
eigval :      530.77   539.35   549.54   592.73   602.55   623.17
eigval :      656.70   670.75   675.35   684.41   696.18   704.69
eigval :      734.87   755.61   777.90   787.02   802.72   806.27
eigval :      871.17   905.41   913.77   915.29   923.93   927.86
eigval :      952.23   953.80  1001.50  1039.55  1057.25  1082.80
eigval :     1088.45  1102.42  1118.26  1122.59  1136.78  1151.62
eigval :     1168.65  1188.09  1212.37  1218.64  1256.43  1262.09
eigval :     1296.53  1299.41  1322.68  1323.82  1337.40  1375.25
eigval :     1377.06  1382.99  1407.13  1412.79  1423.46  1485.63
eigval :     1501.62  1527.18  1534.91  1551.73  1556.78  1565.20
eigval :     1571.02  1582.06  3049.77  3056.77  3063.35  3088.75
eigval :     3089.13  3098.70  3100.37  3102.62  3117.03  3460.81

   temp. (K)  partition function   enthalpy   heat capacity  entropy
                                   cal/mol     cal/K/mol   cal/K/mol   J/K/mol
 298.15  VIB  0.998E+07             9739.795     63.783     59.443
         ROT  0.167E+08              888.752      2.981     36.031
         INT  0.167E+15            10628.548     66.764     95.474
         TR   0.706E+28             1481.254      4.968     43.648
         TOT                       12109.8016    71.7319   139.1216   582.0849

       T/K    H(0)-H(T)+PV         H(T)/Eh          T*S/Eh         G(T)/Eh
   ------------------------------------------------------------------------
    298.15    0.192982E-01    0.256167E+00    0.661012E-01    0.190065E+00
   ------------------------------------------------------------------------

         :::::::::::::::::::::::::::::::::::::::::::::::::::::
         ::                  THERMODYNAMIC                  ::
         :::::::::::::::::::::::::::::::::::::::::::::::::::::
         :: total free energy         -62.214680174192 Eh   ::
         ::.................................................::
         :: total energy              -62.404745611187 Eh   ::
         :: zero point energy           0.236868420568 Eh   ::
         :: G(RRHO) w/o ZPVE           -0.046802983573 Eh   ::
         :: G(RRHO) contrib.            0.190065436995 Eh   ::
         :::::::::::::::::::::::::::::::::::::::::::::::::::::

           -------------------------------------------------
          | TOTAL ENERGY              -62.404745611187 Eh   |
          | TOTAL ENTHALPY            -62.148578993390 Eh   |
          | TOTAL FREE ENERGY         -62.214680174192 Eh   |
          | GRADIENT NORM               0.000040069372 Eh/α |
          | HOMO-LUMO GAP               1.874328777240 eV   |
           -------------------------------------------------

 * finished run on 2025/09/08 at 07:48:37.100
