   * xtb version 6.7.1 (edcfbbe) compiled by 'albert@albert-system' on 2024-07-22

   ID    Z sym.   atoms
    1   35 Br     1
    2    6 C      2-7, 9-13, 15, 16, 18-22
    3    7 N      8, 14, 17, 23, 24
    4    1 H      25-34

          program call               : xtb data2507/toluene/bpipH/bpipH_toluene_T1_crest.xyz --gfn 2 --uhf 2 --gbsa toluene --ohess vtight --parallel 40 --molden --ceasefiles --namespace data2507/toluene/bpipH/bpipH_toluene_T1_finalOpt
      * Solvation model:               GBSA
        Solvent                        toluene
        Solvent mass                       9.2140E+01 g/mol
          :  Hamiltonian                  GFN2-xTB          :
 * total energy  :   -62.3290397 Eh     change       -0.5520604E-08 Eh
 * total energy  :   -62.3290691 Eh     change       -0.2938699E-04 Eh
 * total energy  :   -62.3290767 Eh     change       -0.7602762E-05 Eh
 * total energy  :   -62.3290779 Eh     change       -0.1262441E-05 Eh
 * total energy  :   -62.3290787 Eh     change       -0.8073946E-06 Eh
 * total energy  :   -62.3290793 Eh     change       -0.5414748E-06 Eh
 * total energy  :   -62.3290797 Eh     change       -0.4628607E-06 Eh
 * total energy  :   -62.3290801 Eh     change       -0.3704007E-06 Eh
 * total energy  :   -62.3290804 Eh     change       -0.3202929E-06 Eh
 * total energy  :   -62.3290807 Eh     change       -0.2402668E-06 Eh
 * total energy  :   -62.3290808 Eh     change       -0.1428300E-06 Eh
 * total energy  :   -62.3290809 Eh     change       -0.8092216E-07 Eh
   *** GEOMETRY OPTIMIZATION CONVERGED AFTER 12 ITERATIONS ***

 final structure:
================
34
 xtb: 6.7.1 (edcfbbe)
Br           5.10308405568419       -1.04329877153988        0.00520324551566
C            3.92620034075112        0.47282043209636        0.00948494656101
C            4.47026561906445        1.74741360766926        0.02635380171424
C            3.55760460394747        2.81443631764900        0.02222873446842
C            2.21189198617814        2.55445871762133        0.00391899522254
C            1.76945120244307        1.20839141445056       -0.01012615527873
C            0.40907970293862        0.85544678883753       -0.01065203202970
N           -0.64340053700577        1.68717991483527       -0.02001720813405
C           -1.72828020689422        0.91614504393062       -0.07641856761216
C           -3.09952722201100        1.31285214041795       -0.04491673444871
C           -3.52681984664159        2.63617401554936       -0.03521695287431
C           -4.88473175387050        2.92069349415923        0.03216391572437
C           -5.77393097608911        1.85222726405660        0.05380187121235
N           -5.37629162792978        0.60284857858035        0.05893798847510
C           -4.08312555206560        0.28043983325665        0.01664513441733
C           -3.70571142243686       -1.10441490953496       -0.00434349417512
N           -4.64966329672711       -2.03695925030243        0.00836673103198
C           -4.37346439872426       -3.30722132035458        0.02006971043038
C           -3.04450504712393       -3.78778591205920        0.05762208887029
C           -2.02746010238722       -2.87726813474138       -0.02243060852766
C           -2.31050260745891       -1.49432539598726       -0.06346097080011
C           -1.36871177971421       -0.46771585465359       -0.08456034982993
N           -0.00882886624108       -0.47093170914004       -0.00734432706337
N            2.65861520325614        0.17479338811148       -0.01108291385754
H            5.53553219400832        1.90328255067223        0.03637999625195
H            3.92736560416672        3.82831986682308        0.03368595236690
H            1.46968246135600        3.33504301353994        0.00741065896878
H           -2.78580951980391        3.41870241619039       -0.09526289945669
H           -5.24701040324575        3.93505189075785        0.05139388041036
H           -6.84416568696259        2.00708761235115        0.07311497945710
H           -5.21258058085622       -3.98691936629173       -0.01925612100947
H           -2.85693613893484       -4.84806135886341        0.09261645567955
H           -0.99862485549508       -3.20374423371954       -0.07785675059558
H            0.63180477342528       -1.24402773616820       -0.02885348838516

          :  Hamiltonian                  GFN2-xTB          :
         :: gradient norm              0.000087365777 Eh/a0 ::
         :: HOMO-LUMO gap              0.336467667224 eV    ::
         :: SCC energy               -63.305342365175 Eh    ::
         :: -> dispersion             -0.044214006752 Eh    ::
         :: -> Gsolv                  -0.031804036598 Eh    ::
         :: repulsion energy           0.976261469704 Eh    ::

    * Orbital Energies and Occupations

         #    Occupation            Energy/Eh            Energy/eV
      -------------------------------------------------------------
         1        2.0000           -0.8454263             -23.0052
       ...           ...                  ...                  ...
        46        2.0000           -0.4565668             -12.4238
        47        2.0000           -0.4553799             -12.3915
        48        2.0000           -0.4501827             -12.2501
        49        2.0000           -0.4420886             -12.0298
        50        2.0000           -0.4208828             -11.4528
        51        2.0000           -0.4174395             -11.3591
        52        2.0000           -0.4151813             -11.2977
        53        2.0000           -0.4088522             -11.1254
        54        1.9996           -0.3989426             -10.8558
        55        1.9877           -0.3956002             -10.7648
        56        1.8367           -0.3929840             -10.6936
        57        1.1760           -0.3899652             -10.6115
        58        0.9985           -0.3025197              -8.2320 (HOMO)
        59        0.0015           -0.2901550              -7.8955 (LUMO)
        60        0.0000           -0.2835618              -7.7161
        61                         -0.2602812              -7.0826
        62                         -0.2441790              -6.6444
        63                         -0.2238748              -6.0919
        64                         -0.2117025              -5.7607
        65                         -0.1955242              -5.3205
        66                         -0.1778880              -4.8406
        67                         -0.1375594              -3.7432
        68                         -0.1129240              -3.0728
        69                         -0.0733278              -1.9954
       ...                                ...                  ...
       111                          0.6956981              18.9309
      -------------------------------------------------------------
                  HL-Gap            0.0123648 Eh            0.3365 eV

     #   Z          covCN         q      C6AA      α(0)
     1  35 Br       1.110    -0.183   190.125    22.232
     2   6 C        2.900     0.171    24.334     8.088
     3   6 C        2.979    -0.061    29.508     8.910
     4   6 C        2.926    -0.018    28.455     8.748
     5   6 C        2.913    -0.045    29.127     8.850
     6   6 C        2.959     0.068    26.473     8.439
     7   6 C        3.166     0.132    24.796     8.137
     8   7 N        1.880    -0.292    28.429     7.904
     9   6 C        3.183     0.077    25.853     8.298
    10   6 C        2.974    -0.007    28.183     8.708
    11   6 C        2.924    -0.016    28.415     8.742
    12   6 C        2.912    -0.041    29.013     8.832
    13   6 C        2.887     0.059    26.673     8.467
    14   7 N        1.845    -0.165    25.370     7.465
    15   6 C        2.952     0.074    26.337     8.417
    16   6 C        2.956     0.066    26.531     8.448
    17   7 N        1.843    -0.149    25.019     7.413
    18   6 C        2.890     0.054    26.784     8.485
    19   6 C        2.909    -0.041    29.026     8.834
    20   6 C        2.920    -0.016    28.398     8.739
    21   6 C        2.969    -0.028    28.691     8.786
    22   6 C        3.047     0.046    26.929     8.511
    23   7 N        2.775    -0.132    23.867     7.256
    24   7 N        1.967    -0.298    28.535     7.922
    25   1 H        0.926     0.054     2.271     2.357
    26   1 H        0.926     0.055     2.259     2.350
    27   1 H        0.926     0.060     2.204     2.322
    28   1 H        0.926     0.071     2.078     2.254
    29   1 H        0.926     0.067     2.122     2.278
    30   1 H        0.925     0.068     2.107     2.270
    31   1 H        0.926     0.067     2.122     2.278
    32   1 H        0.926     0.064     2.149     2.293
    33   1 H        0.926     0.052     2.292     2.367
    34   1 H        0.860     0.188     1.170     1.694

molecular dipole:
                 x           y           z       tot (Debye)
 q only:       -2.349       0.169      -0.016
   full:       -2.042       0.484      -0.048       5.336

 projected vibrational frequencies (cm⁻¹)
eigval :       -0.00    -0.00    -0.00    -0.00     0.00     0.00
eigval :       23.80    37.21    42.52    82.22    94.49   111.49
eigval :      128.47   148.82   175.24   189.90   195.45   245.14
eigval :      258.30   263.35   287.53   290.73   371.57   384.51
eigval :      390.20   400.95   407.18   456.28   459.38   468.56
eigval :      477.06   485.58   508.88   551.53   601.07   603.55
eigval :      607.12   646.02   654.35   654.70   661.28   671.30
eigval :      712.95   720.74   743.61   744.76   762.25   776.87
eigval :      826.49   863.94   872.12   876.33   888.93   890.37
eigval :      906.08   909.12   949.12   993.34  1013.91  1047.61
eigval :     1068.92  1087.79  1089.94  1099.92  1105.86  1127.60
eigval :     1142.00  1154.78  1165.74  1195.24  1201.71  1241.74
eigval :     1249.97  1264.84  1291.15  1299.21  1300.10  1314.48
eigval :     1338.93  1347.57  1374.48  1393.69  1400.91  1411.30
eigval :     1433.16  1445.21  1467.01  1477.67  1516.79  1537.25
eigval :     1547.31  1553.32  3060.90  3068.87  3070.03  3087.84
eigval :     3092.85  3110.54  3111.29  3118.75  3121.15  3490.50

   temp. (K)  partition function   enthalpy   heat capacity  entropy
                                   cal/mol     cal/K/mol   cal/K/mol   J/K/mol
 298.15  VIB  0.614E+07            10160.998     66.745     60.922
         ROT  0.167E+08              888.752      2.981     36.025
         INT  0.102E+15            11049.750     69.726     96.948
         TR   0.706E+28             1481.254      4.968     43.648
         TOT                       12531.0043    74.6945   140.5952   588.2504

       T/K    H(0)-H(T)+PV         H(T)/Eh          T*S/Eh         G(T)/Eh
   ------------------------------------------------------------------------
    298.15    0.199694E-01    0.251232E+00    0.668013E-01    0.184431E+00
   ------------------------------------------------------------------------

         :::::::::::::::::::::::::::::::::::::::::::::::::::::
         ::                  THERMODYNAMIC                  ::
         :::::::::::::::::::::::::::::::::::::::::::::::::::::
         :: total free energy         -62.144650110365 Eh   ::
         ::.................................................::
         :: total energy              -62.329080899215 Eh   ::
         :: zero point energy           0.231262689135 Eh   ::
         :: G(RRHO) w/o ZPVE           -0.046831900284 Eh   ::
         :: G(RRHO) contrib.            0.184430788851 Eh   ::
         :::::::::::::::::::::::::::::::::::::::::::::::::::::

           -------------------------------------------------
          | TOTAL ENERGY              -62.329080899215 Eh   |
          | TOTAL ENTHALPY            -62.077848783660 Eh   |
          | TOTAL FREE ENERGY         -62.144650110365 Eh   |
          | GRADIENT NORM               0.000088556427 Eh/α |
          | HOMO-LUMO GAP               0.336462075809 eV   |
           -------------------------------------------------

 * finished run on 2025/09/08 at 07:51:31.853
