   * xtb version 6.7.1 (edcfbbe) compiled by 'albert@albert-system' on 2024-07-22

   ID    Z sym.   atoms
    1   35 Br     1
    2    6 C      2-7, 9-13, 15, 16, 18-22
    3    7 N      8, 14, 17, 23, 24
    4    1 H      25-34

          program call               : xtb data2507/toluene/bpipH/bpipH_toluene_S0_crest.xyz --gfn 2 --gbsa toluene --ohess vtight --parallel 40 --molden --ceasefiles --namespace data2507/toluene/bpipH/bpipH_toluene_S0_finalOpt
      * Solvation model:               GBSA
        Solvent                        toluene
        Solvent mass                       9.2140E+01 g/mol
          :  Hamiltonian                  GFN2-xTB          :
 * total energy  :   -62.4154105 Eh     change       -0.1049258E-08 Eh
 * total energy  :   -62.4154282 Eh     change       -0.1771893E-04 Eh
 * total energy  :   -62.4154308 Eh     change       -0.2546418E-05 Eh
 * total energy  :   -62.4154315 Eh     change       -0.7089417E-06 Eh
 * total energy  :   -62.4154316 Eh     change       -0.6907776E-07 Eh
   *** GEOMETRY OPTIMIZATION CONVERGED AFTER 5 ITERATIONS ***

 final structure:
================
34
 xtb: 6.7.1 (edcfbbe)
Br           5.09053388866540       -1.05099019792925       -0.00271096248195
C            3.93767779124310        0.47215193421017        0.00168976036792
C            4.47648426879785        1.74872055213000        0.00560423434125
C            3.57771110982086        2.80747369288867        0.00900048616057
C            2.21844441334508        2.54822429969785        0.00808834305997
C            1.79359151352824        1.21807842158410        0.00427925163246
C            0.39508562654343        0.85947325871653        0.00318291909080
N           -0.62142822191510        1.69480305316253        0.00194912081927
C           -1.73324852324460        0.91588395686190        0.00097015567685
C           -3.10307775950100        1.30890200803421       -0.00146891432805
C           -3.53039002753987        2.64215558529686       -0.00384501553369
C           -4.88034459506019        2.90604476180411       -0.00700850301930
C           -5.76595756119283        1.82361039781385       -0.00762195534832
N           -5.38763273824936        0.56867045337886       -0.00516903762511
C           -4.08185182308800        0.28513745176337       -0.00211177056669
C           -3.69500204430344       -1.11470144287723        0.00039750402640
N           -4.66494285298334       -2.03080614688195        0.00101910867762
C           -4.34578849133417       -3.30209588727926        0.00337319492771
C           -3.02974344517546       -3.77445350223701        0.00513204957823
C           -2.00775073095234       -2.85404669189812        0.00447573608960
C           -2.32420417391161       -1.48814209617495        0.00218839469074
C           -1.37221453112377       -0.43700128790507        0.00193306555104
N           -0.01076872253723       -0.44553344573187        0.00317928123845
N            2.65661615652158        0.19672667489941        0.00129150098156
H            5.54325065560432        1.90089519692120        0.00596949627159
H            3.94274827194920        3.82303656748365        0.01203177695220
H            1.48041528118484        3.33237454201991        0.01024431816323
H           -2.78955566697927        3.42745203307480       -0.00331527525430
H           -5.25417968341167        3.91788163297329       -0.00909432150838
H           -6.83655019297485        1.98459749293291       -0.01035052248708
H           -5.18037451160301       -3.99113725256505        0.00391533015190
H           -2.82765050531800       -4.83380851030578        0.00701209872425
H           -0.97451333103564       -3.17162049249619        0.00584611616601
H            0.61903046533087       -1.23080154436644        0.00361614281324

          :  Hamiltonian                  GFN2-xTB          :
         :: gradient norm              0.000132854707 Eh/a0 ::
         :: HOMO-LUMO gap              1.859017221202 eV    ::
         :: SCC energy               -63.398424919561 Eh    ::
         :: -> dispersion             -0.044296882210 Eh    ::
         :: -> Gsolv                  -0.030959448248 Eh    ::
         :: repulsion energy           0.982993358182 Eh    ::

    * Orbital Energies and Occupations

         #    Occupation            Energy/Eh            Energy/eV
      -------------------------------------------------------------
         1        2.0000           -0.8537643             -23.2321
       ...           ...                  ...                  ...
        45        2.0000           -0.4632713             -12.6063
        46        2.0000           -0.4575404             -12.4503
        47        2.0000           -0.4517992             -12.2941
        48        2.0000           -0.4456997             -12.1281
        49        2.0000           -0.4420878             -12.0298
        50        2.0000           -0.4303769             -11.7112
        51        2.0000           -0.4240065             -11.5378
        52        2.0000           -0.4153767             -11.3030
        53        2.0000           -0.4124638             -11.2237
        54        2.0000           -0.4096249             -11.1465
        55        2.0000           -0.3966294             -10.7928
        56        2.0000           -0.3755240             -10.2185
        57        2.0000           -0.3716386             -10.1128 (HOMO)
        58                         -0.3033211              -8.2538 (LUMO)
        59                         -0.2822063              -7.6792
        60                         -0.2799975              -7.6191
        61                         -0.2765450              -7.5252
        62                         -0.2410949              -6.5605
        63                         -0.2212038              -6.0193
        64                         -0.2173175              -5.9135
        65                         -0.2030522              -5.5253
        66                         -0.1720985              -4.6830
        67                         -0.1322290              -3.5981
        68                         -0.1243680              -3.3842
       ...                                ...                  ...
       111                          0.6856390              18.6572
      -------------------------------------------------------------
                  HL-Gap            0.0683175 Eh            1.8590 eV

     #   Z          covCN         q      C6AA      α(0)
     1  35 Br       1.104    -0.160   189.486    22.195
     2   6 C        2.909     0.170    24.348     8.091
     3   6 C        2.978    -0.044    29.085     8.846
     4   6 C        2.932    -0.006    28.164     8.703
     5   6 C        2.916    -0.042    29.050     8.838
     6   6 C        2.968     0.088    26.042     8.371
     7   6 C        3.209     0.135    24.488     8.056
     8   7 N        1.894    -0.292    28.412     7.902
     9   6 C        3.213     0.061    26.014     8.300
    10   6 C        2.978    -0.012    28.297     8.726
    11   6 C        2.925    -0.015    28.389     8.738
    12   6 C        2.912    -0.039    28.961     8.824
    13   6 C        2.904     0.061    26.639     8.463
    14   7 N        1.841    -0.219    26.625     7.647
    15   6 C        2.971     0.078    26.259     8.406
    16   6 C        2.972     0.082    26.171     8.391
    17   7 N        1.841    -0.214    26.502     7.629
    18   6 C        2.903     0.061    26.632     8.462
    19   6 C        2.912    -0.039    28.967     8.825
    20   6 C        2.924    -0.021    28.533     8.760
    21   6 C        2.974    -0.019    28.471     8.752
    22   6 C        3.085     0.032    27.182     8.547
    23   7 N        2.794    -0.108    23.355     7.178
    24   7 N        1.966    -0.262    27.643     7.797
    25   1 H        0.926     0.075     2.032     2.229
    26   1 H        0.926     0.075     2.032     2.229
    27   1 H        0.926     0.076     2.021     2.223
    28   1 H        0.926     0.058     2.219     2.330
    29   1 H        0.926     0.053     2.278     2.360
    30   1 H        0.925     0.049     2.331     2.388
    31   1 H        0.925     0.052     2.300     2.372
    32   1 H        0.926     0.055     2.261     2.351
    33   1 H        0.926     0.042     2.425     2.435
    34   1 H        0.860     0.190     1.157     1.685

molecular dipole:
                 x           y           z       tot (Debye)
 q only:        0.408       0.724       0.005
   full:        0.929       1.000       0.008       3.470

 projected vibrational frequencies (cm⁻¹)
eigval :       -0.00    -0.00    -0.00    -0.00     0.00     0.00
eigval :       20.27    38.36    40.78    81.00    89.03   116.41
eigval :      128.62   153.70   176.41   192.55   222.37   247.72
eigval :      268.11   285.75   294.40   330.95   387.94   400.46
eigval :      401.06   417.46   444.88   460.14   479.95   505.34
eigval :      531.49   545.72   593.00   603.42   615.23   623.13
eigval :      660.08   672.43   675.26   688.72   701.45   705.40
eigval :      738.01   757.11   790.06   791.38   802.71   805.50
eigval :      887.53   907.98   911.40   917.86   923.59   929.30
eigval :      954.97   955.33  1008.05  1039.72  1046.56  1085.98
eigval :     1091.55  1095.44  1103.94  1121.63  1137.04  1151.47
eigval :     1153.79  1188.16  1209.43  1215.06  1256.06  1262.99
eigval :     1299.30  1300.69  1323.25  1324.15  1349.08  1375.67
eigval :     1381.37  1393.02  1401.10  1406.75  1422.80  1485.83
eigval :     1511.03  1530.14  1534.31  1551.01  1556.56  1567.69
eigval :     1571.68  1582.18  3051.45  3055.80  3068.87  3088.62
eigval :     3093.58  3099.46  3100.72  3115.39  3128.66  3462.13

   temp. (K)  partition function   enthalpy   heat capacity  entropy
                                   cal/mol     cal/K/mol   cal/K/mol   J/K/mol
 298.15  VIB  0.420E+07             9666.668     63.522     58.268
         ROT  0.166E+08              888.752      2.981     36.017
         INT  0.697E+14            10555.421     66.502     94.285
         TR   0.706E+28             1481.254      4.968     43.648
         TOT                       12036.6745    71.4706   137.9324   577.1093

       T/K    H(0)-H(T)+PV         H(T)/Eh          T*S/Eh         G(T)/Eh
   ------------------------------------------------------------------------
    298.15    0.191817E-01    0.256500E+00    0.655362E-01    0.190964E+00
   ------------------------------------------------------------------------

         :::::::::::::::::::::::::::::::::::::::::::::::::::::
         ::                  THERMODYNAMIC                  ::
         :::::::::::::::::::::::::::::::::::::::::::::::::::::
         :: total free energy         -62.224467277231 Eh   ::
         ::.................................................::
         :: total energy              -62.415431563311 Eh   ::
         :: zero point energy           0.237318775792 Eh   ::
         :: G(RRHO) w/o ZPVE           -0.046354489712 Eh   ::
         :: G(RRHO) contrib.            0.190964286080 Eh   ::
         :::::::::::::::::::::::::::::::::::::::::::::::::::::

           -------------------------------------------------
          | TOTAL ENERGY              -62.415431563311 Eh   |
          | TOTAL ENTHALPY            -62.158931125707 Eh   |
          | TOTAL FREE ENERGY         -62.224467277231 Eh   |
          | GRADIENT NORM               0.000160743698 Eh/α |
          | HOMO-LUMO GAP               1.859013985015 eV   |
           -------------------------------------------------

 * finished run on 2025/09/08 at 07:49:47.024
