   * xtb version 6.7.1 (edcfbbe) compiled by 'albert@albert-system' on 2024-07-22

   ID    Z sym.   atoms
    1   35 Br     1
    2    6 C      2-7, 9-13, 15, 16, 18-22
    3    7 N      8, 14, 17, 23, 24
    4    1 H      25-34

          program call               : xtb data2507/toluene/bpipH/bpipH_toluene_S0_finalOpt.xtbopt.xyz --gfn 2 --uhf 2 --gbsa toluene --ohess vtight --parallel 40 --molden --ceasefiles --namespace data2507/toluene/bpipH/bpipH_toluene_T1_preOpt
      * Solvation model:               GBSA
        Solvent                        toluene
        Solvent mass                       9.2140E+01 g/mol
          :  Hamiltonian                  GFN2-xTB          :
 * total energy  :   -62.3234369 Eh     change       -0.2299316E-07 Eh
 * total energy  :   -62.3271807 Eh     change       -0.3743846E-02 Eh
 * total energy  :   -62.3286800 Eh     change       -0.1499299E-02 Eh
 * total energy  :   -62.3287445 Eh     change       -0.6445105E-04 Eh
 * total energy  :   -62.3287788 Eh     change       -0.3435320E-04 Eh
 * total energy  :   -62.3287847 Eh     change       -0.5898518E-05 Eh
 * total energy  :   -62.3287901 Eh     change       -0.5338611E-05 Eh
 * total energy  :   -62.3287908 Eh     change       -0.7453263E-06 Eh
 * total energy  :   -62.3287904 Eh     change        0.4374610E-06 Eh
 * total energy  :   -62.3287911 Eh     change       -0.7253569E-06 Eh
 * total energy  :   -62.3290683 Eh     change       -0.6279145E-05 Eh
 * total energy  :   -62.3290738 Eh     change       -0.5443607E-05 Eh
 * total energy  :   -62.3290769 Eh     change       -0.3089837E-05 Eh
 * total energy  :   -62.3290793 Eh     change       -0.2460293E-05 Eh
 * total energy  :   -62.3290808 Eh     change       -0.1471904E-05 Eh
 * total energy  :   -62.3290811 Eh     change       -0.3034769E-06 Eh
 * total energy  :   -62.3290809 Eh     change        0.1913156E-06 Eh
 * total energy  :   -62.3290812 Eh     change       -0.2645245E-06 Eh
 * total energy  :   -62.3290812 Eh     change       -0.2814028E-07 Eh
   *** GEOMETRY OPTIMIZATION CONVERGED AFTER 34 ITERATIONS ***

 final structure:
================
34
 xtb: 6.7.1 (edcfbbe)
Br           5.10993895435413       -1.03402875614599        0.03010949128344
C            3.93147467391819        0.48087965932328        0.02396374923608
C            4.47412634655941        1.75611280181825        0.03899660052907
C            3.56033141616630        2.82212038166360        0.02698390170497
C            2.21497860924191        2.56065418186856        0.00398717953096
C            1.77401309753110        1.21404990015332       -0.00695835971140
C            0.41407975301406        0.85950620829355       -0.01026199726072
N           -0.63946594844491        1.68987892324400       -0.02379408407773
C           -1.72325657340327        0.91731893967106       -0.07955104776854
C           -3.09506866713017        1.31231384785104       -0.05054126942110
C           -3.52404892349112        2.63513498430045       -0.04407263525786
C           -4.88238523351342        2.91799933553962        0.02136611751256
C           -5.77022942422123        1.84844457863994        0.04442259466061
N           -5.37103702621972        0.59956258202409        0.05248867553728
C           -4.07739879241724        0.27883129239926        0.01227376783718
C           -3.69820030195764       -1.10563975463574       -0.00494866298518
N           -4.64096458564103       -2.03930126426078        0.00878049256173
C           -4.36320802901238       -3.30919899828355        0.02434991456689
C           -3.03370356137960       -3.78794967724890        0.06544103427061
C           -2.01768608532844       -2.87639542784813       -0.01558231140456
C           -2.30240848458363       -1.49389313531207       -0.06096361111488
C           -1.36193218892155       -0.46616096064489       -0.08333390082959
N           -0.00216103669717       -0.46739768454670       -0.00409184768095
N            2.66432347000684        0.18141805022216       -0.00107792359851
H            5.53916880245294        1.91314168182184        0.05334683294413
H            3.92894823381672        3.83644146594377        0.03633994481481
H            1.47194380071809        3.34044431900413        0.00160577608849
H           -2.78398601422009        3.41850578436568       -0.10484108188815
H           -5.24600956095039        3.93192195537282        0.03816453743571
H           -6.84068088391507        2.00197660312017        0.06237595343244
H           -5.20139280029019       -3.99004997438756       -0.01468764405757
H           -2.84484816234949       -4.84788423651730        0.10370904814357
H           -0.98836037914906       -3.20173189636937       -0.06855459448834
H            0.63958080341846       -1.23966759066373       -0.02163509463979

          :  Hamiltonian                  GFN2-xTB          :
         :: gradient norm              0.000040808581 Eh/a0 ::
         :: HOMO-LUMO gap              0.336574041123 eV    ::
         :: SCC energy               -63.305335445901 Eh    ::
         :: -> dispersion             -0.044214018147 Eh    ::
         :: -> Gsolv                  -0.031805401853 Eh    ::
         :: repulsion energy           0.976254241556 Eh    ::

    * Orbital Energies and Occupations

         #    Occupation            Energy/Eh            Energy/eV
      -------------------------------------------------------------
         1        2.0000           -0.8454264             -23.0052
       ...           ...                  ...                  ...
        46        2.0000           -0.4565661             -12.4238
        47        2.0000           -0.4553776             -12.3915
        48        2.0000           -0.4501805             -12.2500
        49        2.0000           -0.4420881             -12.0298
        50        2.0000           -0.4208828             -11.4528
        51        2.0000           -0.4174452             -11.3593
        52        2.0000           -0.4151816             -11.2977
        53        2.0000           -0.4088494             -11.1254
        54        1.9996           -0.3989440             -10.8558
        55        1.9878           -0.3956029             -10.7649
        56        1.8364           -0.3929793             -10.6935
        57        1.1762           -0.3899640             -10.6115
        58        0.9985           -0.3025222              -8.2320 (HOMO)
        59        0.0015           -0.2901537              -7.8955 (LUMO)
        60        0.0000           -0.2835661              -7.7162
        61                         -0.2602805              -7.0826
        62                         -0.2441812              -6.6445
        63                         -0.2238779              -6.0920
        64                         -0.2117075              -5.7609
        65                         -0.1955232              -5.3205
        66                         -0.1778934              -4.8407
        67                         -0.1375603              -3.7432
        68                         -0.1129287              -3.0729
        69                         -0.0733364              -1.9956
       ...                                ...                  ...
       111                          0.6957157              18.9314
      -------------------------------------------------------------
                  HL-Gap            0.0123685 Eh            0.3366 eV

     #   Z          covCN         q      C6AA      α(0)
     1  35 Br       1.110    -0.183   190.125    22.232
     2   6 C        2.900     0.171    24.334     8.088
     3   6 C        2.979    -0.061    29.508     8.910
     4   6 C        2.926    -0.018    28.455     8.748
     5   6 C        2.913    -0.045    29.127     8.850
     6   6 C        2.959     0.068    26.473     8.439
     7   6 C        3.166     0.132    24.796     8.137
     8   7 N        1.880    -0.292    28.429     7.904
     9   6 C        3.183     0.077    25.852     8.298
    10   6 C        2.974    -0.007    28.184     8.708
    11   6 C        2.924    -0.016    28.415     8.742
    12   6 C        2.912    -0.041    29.013     8.832
    13   6 C        2.887     0.059    26.673     8.467
    14   7 N        1.845    -0.165    25.371     7.465
    15   6 C        2.952     0.074    26.336     8.417
    16   6 C        2.956     0.066    26.531     8.448
    17   7 N        1.843    -0.149    25.018     7.413
    18   6 C        2.890     0.054    26.785     8.485
    19   6 C        2.909    -0.041    29.025     8.834
    20   6 C        2.920    -0.016    28.399     8.739
    21   6 C        2.969    -0.028    28.691     8.786
    22   6 C        3.047     0.046    26.929     8.511
    23   7 N        2.775    -0.132    23.868     7.256
    24   7 N        1.967    -0.298    28.535     7.922
    25   1 H        0.926     0.054     2.271     2.357
    26   1 H        0.926     0.055     2.259     2.350
    27   1 H        0.926     0.060     2.204     2.322
    28   1 H        0.926     0.071     2.078     2.254
    29   1 H        0.926     0.067     2.122     2.278
    30   1 H        0.925     0.068     2.107     2.270
    31   1 H        0.926     0.067     2.122     2.278
    32   1 H        0.926     0.064     2.149     2.292
    33   1 H        0.926     0.052     2.292     2.367
    34   1 H        0.860     0.188     1.170     1.694

molecular dipole:
                 x           y           z       tot (Debye)
 q only:       -2.349       0.166      -0.023
   full:       -2.042       0.481      -0.056       5.335

 projected vibrational frequencies (cm⁻¹)
eigval :       -0.00    -0.00    -0.00     0.00     0.00     0.00
eigval :       23.97    37.14    42.59    81.99    94.60   111.38
eigval :      128.43   148.71   175.28   189.96   195.42   244.93
eigval :      258.33   263.31   287.35   290.61   371.54   384.34
eigval :      390.04   400.92   407.16   456.15   459.23   468.53
eigval :      476.97   485.45   508.81   551.49   600.99   603.57
eigval :      607.10   645.97   654.34   654.62   661.32   671.32
eigval :      713.16   720.68   743.74   744.90   762.22   776.78
eigval :      826.44   863.87   872.05   876.31   888.97   890.17
eigval :      905.97   909.09   949.07   993.29  1013.86  1047.56
eigval :     1069.08  1087.65  1089.43  1099.94  1105.61  1127.62
eigval :     1142.00  1154.67  1165.38  1195.22  1201.58  1241.68
eigval :     1249.90  1264.83  1291.04  1299.13  1300.00  1314.40
eigval :     1338.96  1347.48  1374.48  1393.62  1400.93  1411.28
eigval :     1433.11  1445.32  1466.96  1477.65  1516.75  1537.25
eigval :     1547.30  1553.38  3060.88  3068.93  3070.09  3087.83
eigval :     3092.60  3110.49  3111.39  3118.64  3121.15  3490.56

   temp. (K)  partition function   enthalpy   heat capacity  entropy
                                   cal/mol     cal/K/mol   cal/K/mol   J/K/mol
 298.15  VIB  0.612E+07            10162.326     66.751     60.930
         ROT  0.167E+08              888.752      2.981     36.025
         INT  0.102E+15            11051.079     69.732     96.956
         TR   0.706E+28             1481.254      4.968     43.648
         TOT                       12532.3325    74.7004   140.6033   588.2840

       T/K    H(0)-H(T)+PV         H(T)/Eh          T*S/Eh         G(T)/Eh
   ------------------------------------------------------------------------
    298.15    0.199715E-01    0.251224E+00    0.668051E-01    0.184419E+00
   ------------------------------------------------------------------------

         :::::::::::::::::::::::::::::::::::::::::::::::::::::
         ::                  THERMODYNAMIC                  ::
         :::::::::::::::::::::::::::::::::::::::::::::::::::::
         :: total free energy         -62.144662178021 Eh   ::
         ::.................................................::
         :: total energy              -62.329081208426 Eh   ::
         :: zero point energy           0.231252631983 Eh   ::
         :: G(RRHO) w/o ZPVE           -0.046833601577 Eh   ::
         :: G(RRHO) contrib.            0.184419030405 Eh   ::
         :::::::::::::::::::::::::::::::::::::::::::::::::::::

           -------------------------------------------------
          | TOTAL ENERGY              -62.329081208426 Eh   |
          | TOTAL ENTHALPY            -62.077857033392 Eh   |
          | TOTAL FREE ENERGY         -62.144662178021 Eh   |
          | GRADIENT NORM               0.000043425628 Eh/α |
          | HOMO-LUMO GAP               0.336564875729 eV   |
           -------------------------------------------------

 * finished run on 2025/09/08 at 07:49:49.341
