   * xtb version 6.7.1 (edcfbbe) compiled by 'albert@albert-system' on 2024-07-22

   ID    Z sym.   atoms
    1    8 O      1
    2   15 P      2
    3    6 C      3-36
    4    1 H      37-59

          program call               : xtb data2507/toluene/CH3OH–CHCl3/CH3OH–CHCl3_toluene_S0_finalOpt.xtbopt.xyz --gfn 2 --uhf 2 --gbsa toluene --ohess vtight --parallel 40 --molden --ceasefiles --namespace data2507/toluene/CH3OH–CHCl3/CH3OH–CHCl3_toluene_T1_preOpt
      * Solvation model:               GBSA
        Solvent                        toluene
        Solvent mass                       9.2140E+01 g/mol
          :  Hamiltonian                  GFN2-xTB          :
 * total energy  :   -91.1362497 Eh     change       -0.2031257E-08 Eh
 * total energy  :   -91.1430109 Eh     change       -0.6761198E-02 Eh
 * total energy  :   -91.1445183 Eh     change       -0.1507445E-02 Eh
 * total energy  :   -91.1446405 Eh     change       -0.1222088E-03 Eh
 * total energy  :   -91.1447741 Eh     change       -0.1335968E-03 Eh
 * total energy  :   -91.1448553 Eh     change       -0.8115203E-04 Eh
 * total energy  :   -91.1449408 Eh     change       -0.8547789E-04 Eh
 * total energy  :   -91.1450096 Eh     change       -0.6879052E-04 Eh
 * total energy  :   -91.1450545 Eh     change       -0.4493395E-04 Eh
 * total energy  :   -91.1450911 Eh     change       -0.3660338E-04 Eh
 * total energy  :   -91.1454315 Eh     change       -0.1777823E-05 Eh
 * total energy  :   -91.1454328 Eh     change       -0.1234734E-05 Eh
 * total energy  :   -91.1454338 Eh     change       -0.1085121E-05 Eh
 * total energy  :   -91.1454347 Eh     change       -0.8992278E-06 Eh
 * total energy  :   -91.1454355 Eh     change       -0.7726125E-06 Eh
 * total energy  :   -91.1454361 Eh     change       -0.5737129E-06 Eh
 * total energy  :   -91.1454366 Eh     change       -0.5528628E-06 Eh
 * total energy  :   -91.1454370 Eh     change       -0.4064694E-06 Eh
 * total energy  :   -91.1454370 Eh     change       -0.5554469E-08 Eh
   *** GEOMETRY OPTIMIZATION CONVERGED AFTER 44 ITERATIONS ***

 final structure:
================
59
 xtb: 6.7.1 (edcfbbe)
O           -2.60317539717466       -0.04697190292906       -2.29541453476290
P           -2.86351705831936       -0.13217111888083       -0.84455908310083
C           -2.32299494520041       -1.71170344906326       -0.11567391633535
C           -2.26224073374847       -2.81445878297334       -0.95650576386963
C           -1.87336187607564       -4.04565361043411       -0.45894985205481
C           -1.54779376062378       -4.17499359406458        0.88189036663999
C           -1.60324749596938       -3.07362044013911        1.72216525569245
C           -1.98834124341226       -1.84074590968617        1.22649642654324
C           -4.62794621853850        0.03141196212989       -0.42954905118569
C           -5.13187553454998       -0.27739755628453        0.82838428952959
C           -6.48457816301742       -0.13408611484995        1.07829792412957
C           -7.33431855768630        0.31433435324162        0.07817386961098
C           -6.83321633901165        0.61846768306623       -1.17731338853783
C           -5.48021700532839        0.47560122316330       -1.43111421268203
C           -1.96491143740554        1.13826323080159        0.10758932573701
C           -2.57289417411777        2.09069001224421        0.91579706997028
C           -1.77847495855797        3.03514664501243        1.55244171341805
C           -0.40842707156917        3.02210315505404        1.39908658314371
C            0.22647679817732        2.05337220520255        0.60084038276314
C            1.66281725225322        2.05004914195550        0.43212058748547
C            2.33917557152791        3.26916971394641        0.26354061861867
C            3.66036442813752        3.32357616464465       -0.07613625390696
C            4.42761892285559        2.12475299787615       -0.24658371423791
C            5.76769873613693        2.15754554064474       -0.62051242110064
C            6.50117909638605        0.98414936038502       -0.76025243066488
C            5.91806663459372       -0.25788680002718       -0.49493846694850
C            6.65181982203798       -1.47317855833420       -0.60361622501211
C            6.05533778435931       -2.68790014666289       -0.32197789381420
C            4.73822878411088       -2.75166667343985        0.08160631073988
C            3.95817769013376       -1.56413488049872        0.20565313536313
C            2.63286691249463       -1.58745258037058        0.63868785529025
C            1.88884622367644       -0.41448551388717        0.73694977781521
C            2.42641547102166        0.81902438808382        0.37354609954045
C            3.79663073762003        0.87696527641404        0.00086168052130
C            4.55534307690903       -0.31275803160681       -0.09818471208135
C           -0.59132778110285        1.12167805176608       -0.05295828917205
H           -2.51357168363673       -2.68420595412373       -2.00045101195483
H           -1.82423152446852       -4.90224149946133       -1.11533535051470
H           -1.24455859726865       -5.13528835700721        1.27268339161593
H           -1.33992634370126       -3.17513828626857        2.76508429638065
H           -2.01757712459981       -0.97493699312493        1.87385777482630
H           -4.46638944637609       -0.63019873948434        1.60250303534714
H           -6.87871010252564       -0.37369325458124        2.05514367859323
H           -8.39013118541090        0.42360198486426        0.27800580176709
H           -7.49475699724995        0.96489832070242       -1.95788616820042
H           -5.06384542291629        0.69948387009178       -2.40368739215838
H           -3.64599658591913        2.09691878130108        1.03820174698828
H           -2.24025766803013        3.78298419364028        2.18100463244164
H            0.19458140266091        3.74472188019052        1.92838286392940
H            1.77258805989920        4.18662874845457        0.33453906856463
H            4.14617447526168        4.27248018407621       -0.24781652952448
H            6.24161017459050        3.11140081433577       -0.80306528485450
H            7.53583713596766        1.02850635811606       -1.06767420804623
H            7.68744984456137       -1.42685989824121       -0.90534375239751
H            6.63160336531951       -3.59800448228393       -0.41246655467567
H            4.27603567418341       -3.69978077028833        0.31186883996671
H            2.17766905301859       -2.53078294698169        0.90265035006915
H            0.88048227473425       -0.46989816932213        1.11727370418193
H           -0.16135570291756        0.40330323223342       -0.73962006914269

          :  Hamiltonian                  GFN2-xTB          :
         :: gradient norm              0.000055576034 Eh/a0 ::
         :: HOMO-LUMO gap              0.937324921177 eV    ::
         :: SCC energy               -92.839115759718 Eh    ::
         :: -> dispersion             -0.084385865414 Eh    ::
         :: -> Gsolv                  -0.042126827506 Eh    ::
         :: repulsion energy           1.693678710747 Eh    ::

    * Orbital Energies and Occupations

         #    Occupation            Energy/Eh            Energy/eV
      -------------------------------------------------------------
         1        2.0000           -0.6974429             -18.9784
       ...           ...                  ...                  ...
        74        2.0000           -0.4189594             -11.4005
        75        2.0000           -0.4171505             -11.3512
        76        2.0000           -0.4168582             -11.3433
        77        2.0000           -0.4132824             -11.2460
        78        2.0000           -0.4112111             -11.1896
        79        2.0000           -0.4080838             -11.1045
        80        2.0000           -0.4055583             -11.0358
        81        2.0000           -0.4039536             -10.9921
        82        2.0000           -0.4031930             -10.9714
        83        2.0000           -0.4016339             -10.9290
        84        2.0000           -0.3949626             -10.7475
        85        1.0000           -0.3576821              -9.7330
        86        1.0000           -0.2904059              -7.9023 (HOMO)
        87                         -0.2559598              -6.9650 (LUMO)
        88                         -0.2460539              -6.6955
        89                         -0.2420237              -6.5858
        90                         -0.2395561              -6.5187
        91                         -0.2357099              -6.4140
        92                         -0.2348815              -6.3915
        93                         -0.2323105              -6.3215
        94                         -0.2282266              -6.2104
        95                         -0.2013579              -5.4792
        96                         -0.1802395              -4.9046
        97                         -0.1329993              -3.6191
       ...                                ...                  ...
       172                          1.1786884              32.0737
      -------------------------------------------------------------
                  HL-Gap            0.0344461 Eh            0.9373 eV

     #   Z          covCN         q      C6AA      α(0)
     1   8 O        0.808    -0.401    21.729     6.249
     2  15 P        4.090     0.051   157.966    22.577
     3   6 C        2.920     0.011    27.775     8.642
     4   6 C        3.022    -0.019    28.453     8.750
     5   6 C        2.918    -0.026    28.653     8.778
     6   6 C        2.920    -0.024    28.595     8.769
     7   6 C        2.919    -0.026    28.659     8.779
     8   6 C        2.976    -0.024    28.602     8.773
     9   6 C        2.920     0.012    27.742     8.637
    10   6 C        2.976    -0.026    28.640     8.778
    11   6 C        2.919    -0.027    28.671     8.781
    12   6 C        2.920    -0.024    28.595     8.769
    13   6 C        2.918    -0.026    28.664     8.780
    14   6 C        3.023    -0.019    28.455     8.750
    15   6 C        2.917     0.011    27.780     8.643
    16   6 C        2.962    -0.031    28.775     8.799
    17   6 C        2.916    -0.028    28.695     8.784
    18   6 C        2.924    -0.033    28.824     8.804
    19   6 C        2.972     0.015    27.681     8.630
    20   6 C        2.971     0.001    28.010     8.681
    21   6 C        2.911    -0.033    28.815     8.802
    22   6 C        2.912    -0.039    28.958     8.824
    23   6 C        2.978     0.010    27.788     8.647
    24   6 C        2.915    -0.037    28.930     8.820
    25   6 C        2.916    -0.039    28.961     8.825
    26   6 C        2.977     0.012    27.744     8.640
    27   6 C        2.917    -0.038    28.941     8.822
    28   6 C        2.906    -0.028    28.702     8.785
    29   6 C        2.916    -0.038    28.946     8.823
    30   6 C        2.977     0.012    27.735     8.639
    31   6 C        2.916    -0.038    28.957     8.824
    32   6 C        2.915    -0.036    28.889     8.814
    33   6 C        2.974     0.007    27.849     8.656
    34   6 C        2.993     0.003    27.950     8.672
    35   6 C        2.996     0.002    27.964     8.674
    36   6 C        3.057    -0.023    28.529     8.759
    37   1 H        0.925     0.045     2.385     2.415
    38   1 H        0.926     0.043     2.404     2.424
    39   1 H        0.926     0.046     2.364     2.404
    40   1 H        0.926     0.046     2.370     2.407
    41   1 H        0.925     0.040     2.444     2.445
    42   1 H        0.926     0.047     2.358     2.401
    43   1 H        0.926     0.046     2.367     2.406
    44   1 H        0.926     0.047     2.363     2.404
    45   1 H        0.926     0.044     2.401     2.423
    46   1 H        0.925     0.048     2.342     2.393
    47   1 H        0.926     0.037     2.489     2.467
    48   1 H        0.926     0.043     2.404     2.425
    49   1 H        0.926     0.046     2.373     2.409
    50   1 H        0.926     0.037     2.486     2.465
    51   1 H        0.926     0.037     2.490     2.468
    52   1 H        0.926     0.036     2.507     2.476
    53   1 H        0.926     0.035     2.510     2.478
    54   1 H        0.926     0.035     2.510     2.477
    55   1 H        0.926     0.034     2.529     2.487
    56   1 H        0.926     0.035     2.520     2.482
    57   1 H        0.926     0.033     2.541     2.493
    58   1 H        0.926     0.033     2.538     2.492
    59   1 H        0.925     0.041     2.442     2.444

molecular dipole:
                 x           y           z       tot (Debye)
 q only:        0.060      -0.251       1.876
   full:       -0.028      -0.274       1.941       4.983

 projected vibrational frequencies (cm⁻¹)
eigval :       -0.00    -0.00    -0.00    -0.00     0.00     0.00
eigval :        4.07    13.95    24.75    27.22    38.62    40.07
eigval :       50.38    55.33    67.63    96.76   104.19   144.55
eigval :      154.66   157.04   181.91   190.84   205.83   226.32
eigval :      231.75   236.74   254.78   258.36   279.62   284.21
eigval :      321.23   358.60   362.11   364.84   367.41   392.23
eigval :      397.66   411.00   418.09   433.62   434.88   447.04
eigval :      454.66   486.14   491.88   498.41   508.23   510.23
eigval :      533.46   545.80   578.25   584.84   585.96   615.22
eigval :      623.75   652.48   655.84   659.84   661.17   668.16
eigval :      676.61   683.28   714.29   722.27   726.89   737.57
eigval :      742.61   749.32   756.28   761.34   779.53   795.68
eigval :      799.20   812.15   834.41   852.71   870.85   873.88
eigval :      877.53   879.30   879.92   901.89   902.82   907.69
eigval :      910.19   913.35   920.97   925.03   928.26   932.08
eigval :      933.41   963.14   972.78   974.36   981.80  1014.54
eigval :     1075.42  1077.34  1108.57  1109.84  1114.65  1116.41
eigval :     1120.20  1123.34  1124.48  1126.24  1137.75  1149.60
eigval :     1159.55  1177.45  1177.98  1183.22  1185.37  1187.19
eigval :     1191.37  1202.48  1206.39  1217.50  1223.21  1231.04
eigval :     1254.87  1261.41  1266.53  1271.70  1301.35  1308.48
eigval :     1319.66  1320.14  1321.30  1335.71  1361.94  1368.14
eigval :     1379.55  1388.15  1399.79  1414.49  1421.13  1422.62
eigval :     1439.25  1450.65  1451.98  1453.90  1474.56  1486.83
eigval :     1506.67  1510.60  1516.58  1526.99  1559.17  1578.00
eigval :     1580.78  1581.80  1583.88  1585.39  3049.99  3061.31
eigval :     3065.18  3067.12  3068.59  3069.58  3070.88  3072.11
eigval :     3074.70  3075.08  3077.01  3078.41  3079.22  3080.61
eigval :     3081.25  3082.95  3084.62  3085.52  3089.26  3089.94
eigval :     3090.82  3092.75  3094.38

   temp. (K)  partition function   enthalpy   heat capacity  entropy
                                   cal/mol     cal/K/mol   cal/K/mol   J/K/mol
 298.15  VIB  0.198E+14            16660.120    106.477    103.283
         ROT  0.333E+08              888.752      2.981     37.402
         INT  0.659E+21            17548.873    109.458    140.686
         TR   0.101E+29             1481.254      4.968     44.364
         TOT                       19030.1267   114.4261   185.0503   774.2506

       T/K    H(0)-H(T)+PV         H(T)/Eh          T*S/Eh         G(T)/Eh
   ------------------------------------------------------------------------
    298.15    0.303264E-01    0.476557E+00    0.879234E-01    0.388633E+00
   ------------------------------------------------------------------------

         :::::::::::::::::::::::::::::::::::::::::::::::::::::
         ::                  THERMODYNAMIC                  ::
         :::::::::::::::::::::::::::::::::::::::::::::::::::::
         :: total free energy         -90.756803858588 Eh   ::
         ::.................................................::
         :: total energy              -91.145437051533 Eh   ::
         :: zero point energy           0.446230139828 Eh   ::
         :: G(RRHO) w/o ZPVE           -0.057596946883 Eh   ::
         :: G(RRHO) contrib.            0.388633192945 Eh   ::
         :::::::::::::::::::::::::::::::::::::::::::::::::::::

           -------------------------------------------------
          | TOTAL ENERGY              -91.145437051533 Eh   |
          | TOTAL ENTHALPY            -90.668880474390 Eh   |
          | TOTAL FREE ENERGY         -90.756803858588 Eh   |
          | GRADIENT NORM               0.000055571928 Eh/α |
          | HOMO-LUMO GAP               0.937325131139 eV   |
           -------------------------------------------------

 * finished run on 2025/09/10 at 05:56:18.701
