   * xtb version 6.7.1 (edcfbbe) compiled by 'albert@albert-system' on 2024-07-22

   ID    Z sym.   atoms
    1    8 O      1
    2   15 P      2
    3    6 C      3-36
    4    1 H      37-59

          program call               : xtb data2507/toluene/CH3OH–CHCl3/CH3OH–CHCl3_toluene_T1_crest.xyz --gfn 2 --uhf 2 --gbsa toluene --ohess vtight --parallel 40 --molden --ceasefiles --namespace data2507/toluene/CH3OH–CHCl3/CH3OH–CHCl3_toluene_T1_finalOpt
      * Solvation model:               GBSA
        Solvent                        toluene
        Solvent mass                       9.2140E+01 g/mol
          :  Hamiltonian                  GFN2-xTB          :
 * total energy  :   -91.1453755 Eh     change       -0.9561347E-09 Eh
 * total energy  :   -91.1454712 Eh     change       -0.9564807E-04 Eh
 * total energy  :   -91.1455194 Eh     change       -0.4824978E-04 Eh
 * total energy  :   -91.1455434 Eh     change       -0.2398768E-04 Eh
 * total energy  :   -91.1455700 Eh     change       -0.2660357E-04 Eh
 * total energy  :   -91.1456133 Eh     change       -0.4330750E-04 Eh
 * total energy  :   -91.1456397 Eh     change       -0.2637025E-04 Eh
 * total energy  :   -91.1456631 Eh     change       -0.2340673E-04 Eh
 * total energy  :   -91.1456751 Eh     change       -0.1203533E-04 Eh
 * total energy  :   -91.1456968 Eh     change       -0.2168780E-04 Eh
 * total energy  :   -91.1459977 Eh     change       -0.2218374E-06 Eh
 * total energy  :   -91.1459979 Eh     change       -0.1956995E-06 Eh
 * total energy  :   -91.1459981 Eh     change       -0.1989844E-06 Eh
 * total energy  :   -91.1459983 Eh     change       -0.1830969E-06 Eh
 * total energy  :   -91.1459985 Eh     change       -0.1447357E-06 Eh
 * total energy  :   -91.1459986 Eh     change       -0.1211696E-06 Eh
 * total energy  :   -91.1459987 Eh     change       -0.1148795E-06 Eh
 * total energy  :   -91.1459988 Eh     change       -0.1368901E-06 Eh
 * total energy  :   -91.1459988 Eh     change       -0.1442928E-08 Eh
   *** GEOMETRY OPTIMIZATION CONVERGED AFTER 68 ITERATIONS ***

 final structure:
================
59
 xtb: 6.7.1 (edcfbbe)
O           -4.47352866140421       -0.36585811725010        1.75672362375990
P           -3.39918300095765       -0.26939107440276        0.74934260702786
C           -4.02930943801565        0.04914723996753       -0.93141136860213
C           -3.29107838601116        0.70822461626653       -1.90595524179732
C           -3.83557824041787        0.90290669458920       -3.16327193167275
C           -5.11158263405660        0.44315444068067       -3.44901431415958
C           -5.85084262187672       -0.20966475562515       -2.47527286724164
C           -5.30961381431928       -0.40606273642702       -1.21735543573451
C           -2.40615434643345       -1.79338891164792        0.62710157490888
C           -1.72274017740353       -2.16447577483094       -0.52391721260721
C           -0.98323948007023       -3.33405624046970       -0.53498187042808
C           -0.92556210120584       -4.13277049975137        0.59635738005970
C           -1.60973692416910       -3.76514391319186        1.74417671179710
C           -2.35025573893721       -2.59659084296345        1.75849678307536
C           -2.21911711299245        1.07486810526437        1.09773017025761
C           -2.70777227576019        2.17212370797400        1.80091559343693
C           -1.86870194320594        3.24593707374153        2.05612423872517
C           -0.55890051615785        3.22381688288228        1.62376968106274
C           -0.03805182407960        2.11249040438869        0.93810142885863
C            1.33193380984504        2.09966157073997        0.47312790571998
C            1.87844854186934        3.26186253775860       -0.09533597951107
C            3.09085964184378        3.25951343965404       -0.72313429817417
C            3.87664181889393        2.06322013544747       -0.80469583255574
C            5.09801975977590        2.03003211271095       -1.47101432567987
C            5.85591759488758        0.86478419830697       -1.51921934768073
C            5.42617200329583       -0.29404561826434       -0.86656219528770
C            6.19542306239296       -1.49204985998778       -0.87274226757593
C            5.75377168073882       -2.62033210130305       -0.20722549392298
C            4.56369055822256       -2.60959324881754        0.48957038210752
C            3.75655797872382       -1.43462264980828        0.53082595627281
C            2.56710650449589       -1.37441985944809        1.25635702431146
C            1.78525558420376       -0.22203824172725        1.25970355271106
C            2.14611475089224        0.90106051476152        0.51733023104150
C            3.39581628154399        0.89332783404788       -0.15924576350748
C            4.18965547480259       -0.27723218847263       -0.16778827980705
C           -0.90381777119838        1.03974781799938        0.67519080291573
H           -2.30074547781476        1.07533325768409       -1.67644273791617
H           -3.26327646357687        1.41694206763945       -3.92177660130527
H           -5.53248534163340        0.59842913436888       -4.43152527758765
H           -6.84734282469741       -0.56383481691903       -2.69529450168512
H           -5.87021988509475       -0.90267288377139       -0.43702131900980
H           -1.78007864420314       -1.54630817508862       -1.40851011222572
H           -0.45117867868799       -3.62368026598552       -1.42936553648277
H           -0.34828103075684       -5.04560147045154        0.58186049704797
H           -1.56898665551953       -4.38877609403196        2.62539480408478
H           -2.90256263874684       -2.29354086624723        2.63772562052782
H           -3.73460977292596        2.16375796621852        2.13770658577200
H           -2.24151278062200        4.10134320990862        2.60086997628881
H            0.09255590097399        4.05380361412606        1.85302643317512
H            1.28367958857642        4.16413545593962       -0.09577497329591
H            3.46904551523625        4.15477490974115       -1.19369586976689
H            5.45967865987957        2.92567097274643       -1.95566402878062
H            6.79325317852879        0.85327131210927       -2.05614773076823
H            7.13579365692412       -1.50053970195135       -1.40320143658997
H            6.35341779343441       -3.51956975456642       -0.22735621626385
H            4.22528539024548       -3.48760303199214        1.01885093985188
H            2.24859662024425       -2.23443672963975        1.82712216406448
H            0.89328355579889       -0.20063644001704        1.86760890553197
H           -0.54608588291792        0.19486749748979        0.10456324052458

          :  Hamiltonian                  GFN2-xTB          :
         :: gradient norm              0.000034815540 Eh/a0 ::
         :: HOMO-LUMO gap              1.054707962799 eV    ::
         :: SCC energy               -92.839339435809 Eh    ::
         :: -> dispersion             -0.084162970410 Eh    ::
         :: -> Gsolv                  -0.042365196519 Eh    ::
         :: repulsion energy           1.693340602409 Eh    ::

    * Orbital Energies and Occupations

         #    Occupation            Energy/Eh            Energy/eV
      -------------------------------------------------------------
         1        2.0000           -0.6970688             -18.9682
       ...           ...                  ...                  ...
        74        2.0000           -0.4207675             -11.4497
        75        2.0000           -0.4163939             -11.3307
        76        2.0000           -0.4161973             -11.3253
        77        2.0000           -0.4139752             -11.2648
        78        2.0000           -0.4116164             -11.2007
        79        2.0000           -0.4087735             -11.1233
        80        2.0000           -0.4059150             -11.0455
        81        2.0000           -0.4039642             -10.9924
        82        2.0000           -0.4028823             -10.9630
        83        2.0000           -0.4014249             -10.9233
        84        2.0000           -0.3955485             -10.7634
        85        1.0000           -0.3583454              -9.7511
        86        1.0000           -0.2911119              -7.9216 (HOMO)
        87                         -0.2523521              -6.8669 (LUMO)
        88                         -0.2506719              -6.8211
        89                         -0.2435859              -6.6283
        90                         -0.2368743              -6.4457
        91                         -0.2350150              -6.3951
        92                         -0.2345092              -6.3813
        93                         -0.2329559              -6.3391
        94                         -0.2289624              -6.2304
        95                         -0.2021809              -5.5016
        96                         -0.1810692              -4.9271
        97                         -0.1344062              -3.6574
       ...                                ...                  ...
       172                          1.1657740              31.7223
      -------------------------------------------------------------
                  HL-Gap            0.0387598 Eh            1.0547 eV

     #   Z          covCN         q      C6AA      α(0)
     1   8 O        0.808    -0.402    21.743     6.251
     2  15 P        4.076     0.052   157.917    22.574
     3   6 C        2.920     0.011    27.762     8.640
     4   6 C        2.972    -0.026    28.649     8.780
     5   6 C        2.920    -0.027    28.670     8.781
     6   6 C        2.920    -0.024    28.602     8.770
     7   6 C        2.919    -0.026    28.662     8.779
     8   6 C        3.026    -0.019    28.454     8.750
     9   6 C        2.920     0.012    27.755     8.639
    10   6 C        2.972    -0.026    28.637     8.778
    11   6 C        2.919    -0.026    28.653     8.778
    12   6 C        2.920    -0.023    28.588     8.768
    13   6 C        2.918    -0.026    28.658     8.779
    14   6 C        3.026    -0.019    28.452     8.749
    15   6 C        2.916     0.010    27.795     8.645
    16   6 C        3.024    -0.025    28.591     8.771
    17   6 C        2.915    -0.028    28.691     8.784
    18   6 C        2.923    -0.032    28.807     8.802
    19   6 C        2.973     0.015    27.674     8.629
    20   6 C        2.971     0.000    28.018     8.683
    21   6 C        2.911    -0.033    28.819     8.803
    22   6 C        2.912    -0.039    28.960     8.824
    23   6 C        2.978     0.010    27.786     8.647
    24   6 C        2.915    -0.037    28.930     8.820
    25   6 C        2.916    -0.039    28.959     8.824
    26   6 C        2.977     0.012    27.742     8.640
    27   6 C        2.917    -0.038    28.940     8.822
    28   6 C        2.906    -0.028    28.700     8.784
    29   6 C        2.916    -0.038    28.944     8.822
    30   6 C        2.977     0.013    27.727     8.637
    31   6 C        2.916    -0.038    28.953     8.824
    32   6 C        2.915    -0.036    28.887     8.813
    33   6 C        2.975     0.008    27.847     8.656
    34   6 C        2.993     0.003    27.948     8.672
    35   6 C        2.996     0.002    27.961     8.674
    36   6 C        2.982    -0.032    28.790     8.802
    37   1 H        0.926     0.044     2.400     2.422
    38   1 H        0.926     0.046     2.376     2.410
    39   1 H        0.926     0.046     2.364     2.404
    40   1 H        0.926     0.044     2.400     2.423
    41   1 H        0.925     0.046     2.376     2.411
    42   1 H        0.926     0.043     2.404     2.425
    43   1 H        0.926     0.045     2.382     2.413
    44   1 H        0.926     0.046     2.365     2.405
    45   1 H        0.926     0.044     2.400     2.423
    46   1 H        0.925     0.046     2.372     2.408
    47   1 H        0.926     0.043     2.413     2.429
    48   1 H        0.926     0.042     2.426     2.436
    49   1 H        0.926     0.046     2.377     2.411
    50   1 H        0.926     0.037     2.484     2.465
    51   1 H        0.926     0.037     2.495     2.470
    52   1 H        0.926     0.035     2.511     2.478
    53   1 H        0.926     0.035     2.517     2.481
    54   1 H        0.926     0.035     2.515     2.480
    55   1 H        0.926     0.034     2.534     2.489
    56   1 H        0.926     0.035     2.520     2.483
    57   1 H        0.926     0.033     2.547     2.496
    58   1 H        0.926     0.032     2.558     2.501
    59   1 H        0.926     0.046     2.372     2.409

molecular dipole:
                 x           y           z       tot (Debye)
 q only:        1.796       0.027      -1.469
   full:        1.835       0.032      -1.526       6.066

 projected vibrational frequencies (cm⁻¹)
eigval :       -0.00    -0.00    -0.00     0.00     0.00     0.00
eigval :        9.57    19.98    24.52    32.41    39.29    50.26
eigval :       52.21    57.76    70.16    97.61   113.33   147.36
eigval :      157.88   164.26   185.31   191.54   215.98   223.87
eigval :      227.07   233.62   241.52   258.78   277.49   283.40
eigval :      325.24   359.32   362.93   364.03   368.82   392.31
eigval :      397.25   415.91   419.06   428.75   443.72   447.26
eigval :      455.94   475.79   491.36   498.42   509.58   514.19
eigval :      531.06   545.92   578.23   585.13   585.79   613.85
eigval :      624.83   653.78   657.22   658.31   661.40   668.16
eigval :      676.73   685.07   713.74   720.16   725.59   739.60
eigval :      741.36   746.72   755.12   761.01   775.68   797.43
eigval :      800.14   811.63   828.81   852.09   871.06   874.55
eigval :      876.45   877.02   880.50   903.22   905.53   907.48
eigval :      913.27   916.50   920.39   925.32   928.39   931.97
eigval :      934.51   963.39   971.67   974.01   981.79  1014.94
eigval :     1077.25  1077.90  1108.32  1112.43  1114.44  1117.25
eigval :     1120.17  1122.71  1123.88  1124.94  1136.98  1149.27
eigval :     1159.81  1178.69  1179.14  1180.68  1186.30  1189.64
eigval :     1192.07  1203.68  1206.82  1219.28  1223.82  1231.35
eigval :     1253.40  1261.56  1268.77  1272.55  1301.52  1308.85
eigval :     1319.19  1319.36  1320.28  1334.87  1362.20  1369.10
eigval :     1379.94  1388.92  1402.82  1414.60  1421.21  1422.18
eigval :     1436.25  1451.36  1451.89  1453.82  1474.46  1487.09
eigval :     1506.68  1510.44  1516.17  1525.83  1557.66  1577.57
eigval :     1581.15  1581.30  1584.25  1585.09  3065.32  3065.76
eigval :     3067.04  3069.82  3070.01  3070.04  3070.98  3072.20
eigval :     3075.17  3076.24  3077.15  3077.76  3078.61  3081.27
eigval :     3081.90  3082.29  3083.12  3086.48  3088.31  3090.04
eigval :     3091.12  3091.69  3092.12

   temp. (K)  partition function   enthalpy   heat capacity  entropy
                                   cal/mol     cal/K/mol   cal/K/mol   J/K/mol
 298.15  VIB  0.334E+13            16591.215    106.883    101.657
         ROT  0.318E+08              888.752      2.981     37.312
         INT  0.106E+21            17479.968    109.864    138.969
         TR   0.101E+29             1481.254      4.968     44.364
         TOT                       18961.2218   114.8322   183.3334   767.0667

       T/K    H(0)-H(T)+PV         H(T)/Eh          T*S/Eh         G(T)/Eh
   ------------------------------------------------------------------------
    298.15    0.302166E-01    0.476635E+00    0.871076E-01    0.389528E+00
   ------------------------------------------------------------------------

         :::::::::::::::::::::::::::::::::::::::::::::::::::::
         ::                  THERMODYNAMIC                  ::
         :::::::::::::::::::::::::::::::::::::::::::::::::::::
         :: total free energy         -90.756471082389 Eh   ::
         ::.................................................::
         :: total energy              -91.145998835997 Eh   ::
         :: zero point energy           0.446418715360 Eh   ::
         :: G(RRHO) w/o ZPVE           -0.056890961751 Eh   ::
         :: G(RRHO) contrib.            0.389527753608 Eh   ::
         :::::::::::::::::::::::::::::::::::::::::::::::::::::

           -------------------------------------------------
          | TOTAL ENERGY              -91.145998835997 Eh   |
          | TOTAL ENTHALPY            -90.669363490405 Eh   |
          | TOTAL FREE ENERGY         -90.756471082389 Eh   |
          | GRADIENT NORM               0.000034806573 Eh/α |
          | HOMO-LUMO GAP               1.054707775625 eV   |
           -------------------------------------------------

 * finished run on 2025/09/10 at 06:01:11.918
