   * xtb version 6.7.1 (edcfbbe) compiled by 'albert@albert-system' on 2024-07-22

   ID    Z sym.   atoms
    1    8 O      1
    2   15 P      2
    3    6 C      3-36
    4    1 H      37-59

          program call               : xtb data2507/toluene/CH3OH–CHCl3/CH3OH–CHCl3.xyz --gfn 2 --gbsa toluene --ohess vtight --parallel 40 --molden --ceasefiles --namespace data2507/toluene/CH3OH–CHCl3/CH3OH–CHCl3_toluene_S0_preOpt
      * Solvation model:               GBSA
        Solvent                        toluene
        Solvent mass                       9.2140E+01 g/mol
          :  Hamiltonian                  GFN2-xTB          :
 * total energy  :   -91.2063478 Eh     change       -0.3110188E-09 Eh
 * total energy  :   -91.2161993 Eh     change       -0.9851496E-02 Eh
 * total energy  :   -91.2186112 Eh     change       -0.2411921E-02 Eh
 * total energy  :   -91.2188824 Eh     change       -0.2712416E-03 Eh
 * total energy  :   -91.2190135 Eh     change       -0.1310286E-03 Eh
 * total energy  :   -91.2190552 Eh     change       -0.4177304E-04 Eh
 * total energy  :   -91.2191046 Eh     change       -0.4937001E-04 Eh
 * total energy  :   -91.2191649 Eh     change       -0.6032968E-04 Eh
 * total energy  :   -91.2192056 Eh     change       -0.4063742E-04 Eh
 * total energy  :   -91.2192714 Eh     change       -0.6583246E-04 Eh
 * total energy  :   -91.2207817 Eh     change       -0.2278705E-05 Eh
 * total energy  :   -91.2207833 Eh     change       -0.1603620E-05 Eh
 * total energy  :   -91.2207840 Eh     change       -0.6828647E-06 Eh
 * total energy  :   -91.2207843 Eh     change       -0.2859368E-06 Eh
 * total energy  :   -91.2207845 Eh     change       -0.2116185E-06 Eh
 * total energy  :   -91.2207847 Eh     change       -0.2086183E-06 Eh
 * total energy  :   -91.2207849 Eh     change       -0.1875162E-06 Eh
 * total energy  :   -91.2207850 Eh     change       -0.1274473E-06 Eh
 * total energy  :   -91.2207851 Eh     change       -0.7772796E-07 Eh
   *** GEOMETRY OPTIMIZATION CONVERGED AFTER 84 ITERATIONS ***

 final structure:
================
59
 xtb: 6.7.1 (edcfbbe)
O           -1.93006840479906       -0.54431674709732       -2.04915980578105
P           -2.71265731237490       -0.17066242474743       -0.85529245728927
C           -4.03641700458106       -1.36402979791827       -0.47216256032838
C           -3.83023069397191       -2.67797613054868       -0.87128243179393
C           -4.78465230463733       -3.64274360374134       -0.60244186431718
C           -5.94739627546524       -3.29392930489403        0.06632714309835
C           -6.15704068657346       -1.98165435217782        0.46051304094426
C           -5.20428234184214       -1.01417287436023        0.19331218850734
C           -3.53721966264116        1.44638637540036       -1.02027755763138
C           -3.87967211843098        1.84547915360965       -2.30547308885151
C           -4.52498281084578        3.05229557580560       -2.50820496000568
C           -4.82792496833155        3.86189790204690       -1.42477498118189
C           -4.48118734141086        3.46747390686779       -0.14198549708458
C           -3.83540042123313        2.26095760529070        0.06447346116251
C           -1.69565989642474       -0.06401276152461        0.65318786549235
C           -2.20715278609821       -0.25908739984856        1.93008423023786
C           -1.36559380475577       -0.14394931182106        3.02284737809261
C           -0.02537414506600        0.15338831199287        2.84549460779577
C            0.50231633872579        0.33024581186893        1.56800908919248
C            1.92868795492236        0.65570292987138        1.39054821194756
C            2.44117585416925        1.77261539715011        2.04468238549936
C            3.75646304924697        2.15718666517689        1.88855492998456
C            4.61891830524299        1.42562995830444        1.07032547902800
C            5.98004031083256        1.80377384987359        0.87698397030757
C            6.80473203141004        1.07946982456008        0.08601083589478
C            6.34387042654276       -0.09415210605992       -0.58083289191859
C            7.17828107471871       -0.85796415768697       -1.39913295271134
C            6.70387016156657       -1.99436214643842       -2.02896450305918
C            5.39182032477039       -2.39668115253093       -1.85790157145724
C            4.52099389586744       -1.66164813169913       -1.05130705673494
C            3.16669749186826       -2.05213463335413       -0.83946218682181
C            2.33476803994909       -1.32225339113116       -0.06069004520911
C            2.77259760685962       -0.12340425820751        0.57894385133056
C            4.12654959297814        0.26893157597031        0.41558850892055
C            4.99515086282217       -0.49391513159871       -0.40441627667177
C           -0.35224557949775        0.22757467409244        0.47461241237742
H           -2.91990596437351       -2.92248574797476       -1.40166631785252
H           -4.62277828222295       -4.66424496651295       -0.91431056957848
H           -6.69440392283435       -4.04524988817348        0.27620585136532
H           -7.06687986804700       -1.71057424117693        0.97606184435395
H           -5.36881416357182        0.01197933925118        0.48983058903790
H           -3.62260821851855        1.20056234863053       -3.13479968842268
H           -4.79058942082172        3.36116953191843       -3.50864537002453
H           -5.33125524457964        4.80473626006763       -1.58068328204813
H           -4.71291866532547        4.10310581764223        0.70023847972353
H           -3.55424489796354        1.95487297034238        1.06206550602794
H           -3.25014916818995       -0.50703297379276        2.06363411666995
H           -1.75593232905531       -0.29223624925148        4.01925589491421
H            0.62902544033950        0.22993199794362        3.70175937765451
H            1.78146922341434        2.35893230791549        2.66885618346313
H            4.12746760912988        3.03575557059695        2.39690252295348
H            6.33671492302826        2.69070809532572        1.38186042588914
H            7.83498114238497        1.37459978505380       -0.05617766359217
H            8.20536274529980       -0.55070409614446       -1.53680538719112
H            7.36434918880953       -2.57335230218330       -2.65878795892899
H            5.02774173485177       -3.28740705390586       -2.35016087932779
H            2.81622977662855       -2.95720106085974       -1.31580841902011
H            1.31674138579213       -1.64783806906191        0.09527784457078
H            0.01862321230228        0.37600992384525       -0.53083800162414

          :  Hamiltonian                  GFN2-xTB          :
         :: gradient norm              0.000039633814 Eh/a0 ::
         :: HOMO-LUMO gap              2.316280778031 eV    ::
         :: SCC energy               -92.932643305907 Eh    ::
         :: -> dispersion             -0.082695085166 Eh    ::
         :: -> Gsolv                  -0.042635346076 Eh    ::
         :: repulsion energy           1.711858178253 Eh    ::

    * Orbital Energies and Occupations

         #    Occupation            Energy/Eh            Energy/eV
      -------------------------------------------------------------
         1        2.0000           -0.6977183             -18.9859
       ...           ...                  ...                  ...
        73        2.0000           -0.4222814             -11.4909
        74        2.0000           -0.4205734             -11.4444
        75        2.0000           -0.4167744             -11.3410
        76        2.0000           -0.4165650             -11.3353
        77        2.0000           -0.4142276             -11.2717
        78        2.0000           -0.4113052             -11.1922
        79        2.0000           -0.4083733             -11.1124
        80        2.0000           -0.4059381             -11.0461
        81        2.0000           -0.4043728             -11.0035
        82        2.0000           -0.4028785             -10.9629
        83        2.0000           -0.4005781             -10.9003
        84        2.0000           -0.3910853             -10.6420
        85        2.0000           -0.3639477              -9.9035 (HOMO)
        86                         -0.2788260              -7.5872 (LUMO)
        87                         -0.2526016              -6.8736
        88                         -0.2518727              -6.8538
        89                         -0.2438262              -6.6348
        90                         -0.2386134              -6.4930
        91                         -0.2353925              -6.4054
        92                         -0.2349080              -6.3922
        93                         -0.2336352              -6.3575
        94                         -0.2208508              -6.0097
        95                         -0.1999533              -5.4410
        96                         -0.1807827              -4.9193
       ...                                ...                  ...
       172                          1.1628864              31.6437
      -------------------------------------------------------------
                  HL-Gap            0.0851218 Eh            2.3163 eV

     #   Z          covCN         q      C6AA      α(0)
     1   8 O        0.808    -0.401    21.730     6.249
     2  15 P        4.077     0.054   157.846    22.569
     3   6 C        2.920     0.011    27.765     8.641
     4   6 C        3.026    -0.019    28.452     8.749
     5   6 C        2.919    -0.026    28.660     8.779
     6   6 C        2.920    -0.024    28.601     8.770
     7   6 C        2.919    -0.027    28.669     8.780
     8   6 C        2.972    -0.026    28.653     8.780
     9   6 C        2.920     0.011    27.761     8.640
    10   6 C        3.027    -0.019    28.451     8.749
    11   6 C        2.919    -0.026    28.658     8.779
    12   6 C        2.920    -0.024    28.601     8.770
    13   6 C        2.919    -0.027    28.670     8.781
    14   6 C        2.972    -0.026    28.655     8.781
    15   6 C        2.919     0.010    27.805     8.647
    16   6 C        2.971    -0.030    28.739     8.793
    17   6 C        2.918    -0.028    28.696     8.784
    18   6 C        2.925    -0.030    28.747     8.793
    19   6 C        2.976     0.017    27.637     8.623
    20   6 C        2.976     0.001    27.996     8.679
    21   6 C        2.920    -0.035    28.879     8.813
    22   6 C        2.918    -0.038    28.950     8.823
    23   6 C        2.982     0.009    27.801     8.649
    24   6 C        2.913    -0.037    28.914     8.817
    25   6 C        2.913    -0.037    28.908     8.817
    26   6 C        2.982     0.010    27.777     8.645
    27   6 C        2.920    -0.038    28.938     8.822
    28   6 C        2.913    -0.031    28.771     8.796
    29   6 C        2.920    -0.037    28.927     8.820
    30   6 C        2.981     0.011    27.773     8.645
    31   6 C        2.913    -0.036    28.893     8.814
    32   6 C        2.912    -0.034    28.857     8.809
    33   6 C        2.982     0.007    27.855     8.657
    34   6 C        2.995     0.002    27.970     8.675
    35   6 C        2.997     0.002    27.968     8.675
    36   6 C        3.036    -0.022    28.529     8.761
    37   1 H        0.925     0.045     2.377     2.411
    38   1 H        0.926     0.044     2.401     2.423
    39   1 H        0.926     0.047     2.364     2.404
    40   1 H        0.926     0.046     2.371     2.408
    41   1 H        0.926     0.044     2.390     2.417
    42   1 H        0.925     0.045     2.379     2.412
    43   1 H        0.926     0.044     2.401     2.423
    44   1 H        0.926     0.047     2.363     2.404
    45   1 H        0.926     0.046     2.370     2.407
    46   1 H        0.926     0.045     2.385     2.415
    47   1 H        0.926     0.044     2.395     2.420
    48   1 H        0.926     0.046     2.376     2.411
    49   1 H        0.926     0.045     2.379     2.412
    50   1 H        0.926     0.034     2.527     2.486
    51   1 H        0.926     0.036     2.499     2.472
    52   1 H        0.926     0.035     2.521     2.483
    53   1 H        0.926     0.034     2.526     2.485
    54   1 H        0.926     0.034     2.534     2.489
    55   1 H        0.926     0.032     2.552     2.498
    56   1 H        0.926     0.032     2.552     2.498
    57   1 H        0.926     0.031     2.565     2.505
    58   1 H        0.926     0.030     2.583     2.513
    59   1 H        0.925     0.046     2.375     2.410

molecular dipole:
                 x           y           z       tot (Debye)
 q only:       -0.852       0.527       1.559
   full:       -0.968       0.536       1.614       4.974

 projected vibrational frequencies (cm⁻¹)
eigval :       -0.00    -0.00    -0.00     0.00     0.00     0.00
eigval :        5.09    19.39    21.81    24.72    37.03    46.65
eigval :       48.73    57.62    64.77    90.21   108.77   154.98
eigval :      157.49   159.78   183.26   204.22   216.71   222.51
eigval :      226.88   236.95   244.77   269.84   282.96   285.96
eigval :      326.30   362.12   363.55   370.74   372.08   393.87
eigval :      409.89   413.54   430.23   442.39   452.78   472.42
eigval :      477.90   484.51   495.07   507.48   511.94   516.84
eigval :      538.86   565.44   585.35   586.06   600.19   626.46
eigval :      651.53   655.57   657.77   658.62   672.45   678.91
eigval :      682.98   691.60   714.18   730.75   741.53   743.39
eigval :      757.91   759.70   773.60   790.69   801.56   820.16
eigval :      835.93   850.79   862.75   877.72   880.84   885.91
eigval :      897.50   900.56   903.74   908.18   914.12   920.20
eigval :      924.67   926.61   927.41   930.12   931.59   933.81
eigval :      936.65   970.11   974.31   974.57   994.83  1029.96
eigval :     1076.86  1077.28  1107.80  1111.82  1113.56  1116.25
eigval :     1119.28  1123.34  1125.10  1126.64  1146.58  1161.21
eigval :     1177.25  1177.85  1180.87  1183.72  1188.35  1191.21
eigval :     1196.71  1206.88  1221.36  1222.91  1234.63  1251.11
eigval :     1260.24  1268.46  1271.81  1285.95  1310.97  1316.53
eigval :     1319.02  1319.27  1330.55  1359.53  1385.42  1388.28
eigval :     1406.31  1412.06  1417.74  1421.20  1422.19  1447.80
eigval :     1450.77  1452.13  1457.90  1487.96  1502.37  1540.04
eigval :     1561.03  1564.78  1577.59  1581.16  1581.22  1582.93
eigval :     1584.12  1585.06  1603.43  1606.36  3062.71  3065.16
eigval :     3065.43  3065.96  3066.14  3066.88  3067.53  3070.15
eigval :     3071.26  3071.38  3072.51  3075.66  3076.58  3076.75
eigval :     3079.05  3079.76  3081.95  3082.28  3082.43  3086.30
eigval :     3088.82  3091.55  3091.98

   temp. (K)  partition function   enthalpy   heat capacity  entropy
                                   cal/mol     cal/K/mol   cal/K/mol   J/K/mol
 298.15  VIB  0.100E+14            16406.763    104.901    101.519
         ROT  0.382E+08              888.752      2.981     37.676
         INT  0.382E+21            17295.516    107.882    139.194
         TR   0.101E+29             1481.254      4.968     44.364
         TOT                       18776.7696   112.8497   183.5589   768.0103

       T/K    H(0)-H(T)+PV         H(T)/Eh          T*S/Eh         G(T)/Eh
   ------------------------------------------------------------------------
    298.15    0.299227E-01    0.479615E+00    0.872147E-01    0.392400E+00
   ------------------------------------------------------------------------

         :::::::::::::::::::::::::::::::::::::::::::::::::::::
         ::                  THERMODYNAMIC                  ::
         :::::::::::::::::::::::::::::::::::::::::::::::::::::
         :: total free energy         -90.828385362183 Eh   ::
         ::.................................................::
         :: total energy              -91.220785126750 Eh   ::
         :: zero point energy           0.449691821505 Eh   ::
         :: G(RRHO) w/o ZPVE           -0.057292056938 Eh   ::
         :: G(RRHO) contrib.            0.392399764567 Eh   ::
         :::::::::::::::::::::::::::::::::::::::::::::::::::::

           -------------------------------------------------
          | TOTAL ENERGY              -91.220785126750 Eh   |
          | TOTAL ENTHALPY            -90.741170618288 Eh   |
          | TOTAL FREE ENERGY         -90.828385362183 Eh   |
          | GRADIENT NORM               0.000039619372 Eh/α |
          | HOMO-LUMO GAP               2.316280793686 eV   |
           -------------------------------------------------

 * finished run on 2025/09/10 at 05:51:33.511
