   * xtb version 6.7.1 (edcfbbe) compiled by 'albert@albert-system' on 2024-07-22

   ID    Z sym.   atoms
    1    8 O      1
    2   15 P      2
    3    6 C      3-36
    4    1 H      37-59

          program call               : xtb data2507/toluene/CH3OH–CHCl3/CH3OH–CHCl3_toluene_S0_crest.xyz --gfn 2 --gbsa toluene --ohess vtight --parallel 40 --molden --ceasefiles --namespace data2507/toluene/CH3OH–CHCl3/CH3OH–CHCl3_toluene_S0_finalOpt
      * Solvation model:               GBSA
        Solvent                        toluene
        Solvent mass                       9.2140E+01 g/mol
          :  Hamiltonian                  GFN2-xTB          :
 * total energy  :   -91.2208321 Eh     change       -0.2456474E-08 Eh
 * total energy  :   -91.2209159 Eh     change       -0.8375108E-04 Eh
 * total energy  :   -91.2209503 Eh     change       -0.3443084E-04 Eh
 * total energy  :   -91.2209633 Eh     change       -0.1298028E-04 Eh
 * total energy  :   -91.2209785 Eh     change       -0.1515086E-04 Eh
 * total energy  :   -91.2210024 Eh     change       -0.2390358E-04 Eh
 * total energy  :   -91.2210153 Eh     change       -0.1288855E-04 Eh
 * total energy  :   -91.2210242 Eh     change       -0.8907277E-05 Eh
 * total energy  :   -91.2210307 Eh     change       -0.6528029E-05 Eh
 * total energy  :   -91.2210411 Eh     change       -0.1036569E-04 Eh
 * total energy  :   -91.2213055 Eh     change       -0.6814539E-06 Eh
 * total energy  :   -91.2213058 Eh     change       -0.3682564E-06 Eh
 * total energy  :   -91.2213060 Eh     change       -0.1716163E-06 Eh
 * total energy  :   -91.2213061 Eh     change       -0.1311060E-06 Eh
 * total energy  :   -91.2213063 Eh     change       -0.1698848E-06 Eh
 * total energy  :   -91.2213065 Eh     change       -0.1941760E-06 Eh
 * total energy  :   -91.2213066 Eh     change       -0.1474978E-06 Eh
 * total energy  :   -91.2213067 Eh     change       -0.1024025E-06 Eh
 * total energy  :   -91.2213067 Eh     change       -0.1026123E-08 Eh
   *** GEOMETRY OPTIMIZATION CONVERGED AFTER 94 ITERATIONS ***

 final structure:
================
59
 xtb: 6.7.1 (edcfbbe)
O           -2.77743317872338        0.00556507488465       -2.33836540603763
P           -2.96664605157319       -0.11923045044830       -0.87963011689054
C           -2.42363240739919       -1.72931095780804       -0.22288387807234
C           -2.44999198608317       -2.81427101622729       -1.08828229803139
C           -2.06132791584443       -4.06553839640226       -0.64348529712739
C           -1.64732219217651       -4.23239692081873        0.66854405287352
C           -1.61708015851817       -3.14927748453321        1.53317655729832
C           -2.00340490192418       -1.89675583043030        1.09062459721777
C           -4.70202181916823        0.07064225951008       -0.36628656091675
C           -5.14564319036851       -0.27631504519167        0.90443155424426
C           -6.47685731236691       -0.10168228333139        1.23634762732177
C           -7.36512429782342        0.41488793861125        0.30494294515761
C           -6.92463900763682        0.75499308609784       -0.96402318335796
C           -5.59317713095388        0.58179238375400       -1.29969371189297
C           -1.99285060215448        1.09858557239373        0.06786197494937
C           -2.52640893575907        1.98895157086218        0.98729970548991
C           -1.68302316115823        2.87224299802921        1.64196797562284
C           -0.32328928901922        2.85985319171616        1.38929389550087
C            0.22439583087730        1.96493868547624        0.47010245540583
C            1.67061727234633        1.97726431073698        0.19147195924044
C            2.26413762609102        3.18483611917785       -0.16711517752811
C            3.60506749887052        3.26350139790005       -0.47888329803341
C            4.41244907554886        2.12552162660253       -0.43867829399352
C            5.79876763914720        2.17106383904653       -0.76844767405366
C            6.56889997752249        1.05977116894670       -0.72072938364385
C            6.02198186364323       -0.19966738764906       -0.33477675025086
C            6.79845549342635       -1.35864823816556       -0.27827549178771
C            6.24084574542383       -2.56612545239467        0.10142352527032
C            4.90151064381644       -2.64684683892820        0.43641772346225
C            4.08751434466970       -1.51337691835033        0.39449941787687
C            2.70887122450405       -1.55243854302973        0.75354045283781
C            1.93402386247417       -0.44428905509723        0.70025912141017
C            2.45622640581796        0.81266013771173        0.26933540412377
C            3.83581050674483        0.88879300047074       -0.05540662818557
C            4.64648616082344       -0.27256243722541        0.00107086035299
C           -0.63045834086164        1.09298972022675       -0.19511582952488
H           -2.76737532983232       -2.65509843671121       -2.11000101545796
H           -2.08017114433457       -4.90836195700718       -1.31891255185031
H           -1.34299919985201       -5.20824156779992        1.01751243724010
H           -1.28692591413085       -3.28008566805529        2.55355499364350
H           -1.96798975238316       -1.04567227091377        1.75685178403943
H           -4.45012245384158       -0.68307163145894        1.62384074898504
H           -6.82411271647427       -0.36984369182091        2.22348380736639
H           -8.40382072716486        0.54913947322559        0.56884009027596
H           -7.61673648219056        1.15385138872235       -1.69116381450513
H           -5.22417779910922        0.83365701730960       -2.28448433145825
H           -3.58841514160385        1.99227425800154        1.18609533676383
H           -2.09067966005454        3.57191148315099        2.35708270342495
H            0.32993743698525        3.54068904957064        1.91550282742328
H            1.64817223127144        4.07130426120038       -0.22327272196677
H            4.03923746330849        4.21078683604755       -0.76532999737516
H            6.21953993286844        3.12313311854929       -1.06025703620788
H            7.61909413225612        1.10327408688503       -0.97335799318974
H            7.84646668908579       -1.30279301644853       -0.53676662223755
H            6.85724106443766       -3.45312502729055        0.13806516180061
H            4.47234537754735       -3.59255231207728        0.73578672040977
H            2.29399163037566       -2.49579156382080        1.07991852657675
H            0.89711441832925       -0.49696893529409        0.99639496778794
H           -0.24842001254672        0.41039078493021       -0.94417891341900

          :  Hamiltonian                  GFN2-xTB          :
         :: gradient norm              0.000031199305 Eh/a0 ::
         :: HOMO-LUMO gap              2.309681637004 eV    ::
         :: SCC energy               -92.933267326103 Eh    ::
         :: -> dispersion             -0.084220286848 Eh    ::
         :: -> Gsolv                  -0.042225451296 Eh    ::
         :: repulsion energy           1.711960582607 Eh    ::

    * Orbital Energies and Occupations

         #    Occupation            Energy/Eh            Energy/eV
      -------------------------------------------------------------
         1        2.0000           -0.6980504             -18.9949
       ...           ...                  ...                  ...
        73        2.0000           -0.4222587             -11.4902
        74        2.0000           -0.4195549             -11.4167
        75        2.0000           -0.4172630             -11.3543
        76        2.0000           -0.4171079             -11.3501
        77        2.0000           -0.4137439             -11.2585
        78        2.0000           -0.4118801             -11.2078
        79        2.0000           -0.4083477             -11.1117
        80        2.0000           -0.4065208             -11.0620
        81        2.0000           -0.4055841             -11.0365
        82        2.0000           -0.4040459             -10.9946
        83        2.0000           -0.4011261             -10.9152
        84        2.0000           -0.3916220             -10.6566
        85        2.0000           -0.3645988              -9.9212 (HOMO)
        86                         -0.2797196              -7.6116 (LUMO)
        87                         -0.2559891              -6.9658
        88                         -0.2473667              -6.7312
        89                         -0.2442618              -6.6467
        90                         -0.2408233              -6.5531
        91                         -0.2360108              -6.4222
        92                         -0.2354010              -6.4056
        93                         -0.2335380              -6.3549
        94                         -0.2217500              -6.0341
        95                         -0.2001923              -5.4475
        96                         -0.1810765              -4.9273
       ...                                ...                  ...
       172                          1.1759349              31.9988
      -------------------------------------------------------------
                  HL-Gap            0.0848792 Eh            2.3097 eV

     #   Z          covCN         q      C6AA      α(0)
     1   8 O        0.808    -0.401    21.716     6.247
     2  15 P        4.084     0.054   157.861    22.570
     3   6 C        2.920     0.011    27.781     8.643
     4   6 C        3.021    -0.019    28.454     8.750
     5   6 C        2.919    -0.026    28.652     8.778
     6   6 C        2.920    -0.024    28.592     8.769
     7   6 C        2.919    -0.026    28.658     8.779
     8   6 C        2.976    -0.024    28.607     8.773
     9   6 C        2.920     0.012    27.751     8.639
    10   6 C        2.977    -0.026    28.642     8.779
    11   6 C        2.919    -0.027    28.669     8.780
    12   6 C        2.920    -0.024    28.593     8.769
    13   6 C        2.919    -0.026    28.661     8.779
    14   6 C        3.022    -0.019    28.455     8.750
    15   6 C        2.919     0.011    27.779     8.643
    16   6 C        2.963    -0.029    28.713     8.789
    17   6 C        2.918    -0.027    28.686     8.783
    18   6 C        2.925    -0.030    28.757     8.794
    19   6 C        2.976     0.017    27.631     8.622
    20   6 C        2.976     0.001    27.989     8.678
    21   6 C        2.921    -0.035    28.869     8.811
    22   6 C        2.918    -0.038    28.939     8.822
    23   6 C        2.982     0.010    27.797     8.648
    24   6 C        2.913    -0.037    28.909     8.817
    25   6 C        2.913    -0.036    28.907     8.816
    26   6 C        2.982     0.011    27.774     8.645
    27   6 C        2.920    -0.038    28.934     8.821
    28   6 C        2.913    -0.031    28.771     8.796
    29   6 C        2.920    -0.037    28.932     8.821
    30   6 C        2.982     0.011    27.775     8.645
    31   6 C        2.913    -0.037    28.913     8.817
    32   6 C        2.912    -0.036    28.890     8.814
    33   6 C        2.981     0.007    27.859     8.658
    34   6 C        2.995     0.002    27.969     8.675
    35   6 C        2.997     0.002    27.967     8.675
    36   6 C        3.052    -0.022    28.497     8.755
    37   1 H        0.925     0.045     2.384     2.415
    38   1 H        0.926     0.044     2.400     2.423
    39   1 H        0.926     0.047     2.361     2.403
    40   1 H        0.926     0.046     2.368     2.407
    41   1 H        0.925     0.040     2.444     2.445
    42   1 H        0.926     0.047     2.356     2.400
    43   1 H        0.926     0.046     2.365     2.405
    44   1 H        0.926     0.047     2.361     2.403
    45   1 H        0.926     0.044     2.398     2.422
    46   1 H        0.925     0.048     2.342     2.393
    47   1 H        0.926     0.040     2.450     2.448
    48   1 H        0.926     0.045     2.379     2.412
    49   1 H        0.926     0.046     2.370     2.408
    50   1 H        0.926     0.034     2.532     2.488
    51   1 H        0.926     0.036     2.502     2.474
    52   1 H        0.926     0.034     2.524     2.484
    53   1 H        0.926     0.034     2.526     2.485
    54   1 H        0.926     0.034     2.535     2.490
    55   1 H        0.926     0.033     2.549     2.497
    56   1 H        0.926     0.033     2.542     2.493
    57   1 H        0.926     0.032     2.555     2.500
    58   1 H        0.926     0.030     2.582     2.513
    59   1 H        0.925     0.040     2.447     2.446

molecular dipole:
                 x           y           z       tot (Debye)
 q only:       -0.051      -0.241       1.923
   full:       -0.130      -0.260       1.996       5.127

 projected vibrational frequencies (cm⁻¹)
eigval :       -0.00    -0.00    -0.00     0.00     0.00     0.00
eigval :       10.01    15.99    26.46    30.59    39.13    44.53
eigval :       48.86    55.16    67.32    90.29   107.04   151.64
eigval :      156.28   156.90   184.94   204.12   214.16   225.82
eigval :      230.83   238.03   248.35   269.69   280.24   284.23
eigval :      326.76   362.72   363.88   367.18   369.97   393.93
eigval :      410.60   412.56   434.37   437.24   452.87   471.21
eigval :      477.35   490.83   495.88   507.01   511.03   515.97
eigval :      538.97   564.46   584.96   585.84   601.16   627.16
eigval :      651.06   654.95   657.25   659.23   673.65   678.95
eigval :      684.54   692.23   714.88   730.32   741.50   745.86
eigval :      757.53   759.52   772.00   790.60   801.40   819.51
eigval :      838.89   851.29   862.34   880.04   881.69   882.65
eigval :      897.28   899.28   905.42   911.56   914.44   919.18
eigval :      923.67   926.66   928.28   930.61   935.80   936.17
eigval :      937.68   970.44   974.36   975.41   994.87  1029.48
eigval :     1075.61  1077.30  1107.99  1110.33  1114.67  1116.75
eigval :     1119.36  1123.82  1124.82  1127.42  1146.58  1159.34
eigval :     1177.45  1177.80  1180.38  1184.91  1187.83  1191.70
eigval :     1195.95  1206.87  1218.87  1222.49  1234.62  1252.65
eigval :     1260.80  1266.46  1271.58  1284.98  1310.83  1315.84
eigval :     1319.99  1320.29  1331.25  1359.42  1384.88  1387.88
eigval :     1405.57  1411.76  1417.58  1421.17  1422.57  1447.98
eigval :     1450.33  1452.01  1459.65  1488.00  1502.17  1539.67
eigval :     1561.05  1565.84  1577.39  1580.65  1581.68  1583.68
eigval :     1584.26  1585.49  1603.41  1606.45  3049.37  3062.35
eigval :     3062.56  3065.19  3065.43  3068.05  3068.18  3068.42
eigval :     3071.32  3073.42  3074.31  3075.51  3075.86  3079.13
eigval :     3079.81  3080.46  3081.10  3082.75  3084.86  3089.02
eigval :     3090.74  3091.15  3092.71

   temp. (K)  partition function   enthalpy   heat capacity  entropy
                                   cal/mol     cal/K/mol   cal/K/mol   J/K/mol
 298.15  VIB  0.431E+13            16393.043    104.961    100.828
         ROT  0.337E+08              888.752      2.981     37.426
         INT  0.145E+21            17281.795    107.942    138.255
         TR   0.101E+29             1481.254      4.968     44.364
         TOT                       18763.0490   112.9099   182.6190   764.0780

       T/K    H(0)-H(T)+PV         H(T)/Eh          T*S/Eh         G(T)/Eh
   ------------------------------------------------------------------------
    298.15    0.299008E-01    0.479627E+00    0.867682E-01    0.392858E+00
   ------------------------------------------------------------------------

         :::::::::::::::::::::::::::::::::::::::::::::::::::::
         ::                  THERMODYNAMIC                  ::
         :::::::::::::::::::::::::::::::::::::::::::::::::::::
         :: total free energy         -90.828448377612 Eh   ::
         ::.................................................::
         :: total energy              -91.221306743865 Eh   ::
         :: zero point energy           0.449725741162 Eh   ::
         :: G(RRHO) w/o ZPVE           -0.056867374909 Eh   ::
         :: G(RRHO) contrib.            0.392858366253 Eh   ::
         :::::::::::::::::::::::::::::::::::::::::::::::::::::

           -------------------------------------------------
          | TOTAL ENERGY              -91.221306743865 Eh   |
          | TOTAL ENTHALPY            -90.741680180922 Eh   |
          | TOTAL FREE ENERGY         -90.828448377612 Eh   |
          | GRADIENT NORM               0.000031201665 Eh/α |
          | HOMO-LUMO GAP               2.309681639993 eV   |
           -------------------------------------------------

 * finished run on 2025/09/10 at 05:56:14.545
