   * xtb version 6.7.1 (edcfbbe) compiled by 'albert@albert-system' on 2024-07-22

   ID    Z sym.   atoms
    1    7 N      1, 6, 9, 13, 16
    2    6 C      2-5, 7, 8, 10-12, 14, 15, 17-26
    3    1 H      27-33

          program call               : xtb data2507/gas/AQTC/AQTC_gas_S0_crest.xyz --gfn 2 --ohess vtight --parallel 40 --molden --ceasefiles --namespace data2507/gas/AQTC/AQTC_gas_S0_finalOpt
          :  Hamiltonian                  GFN2-xTB          :
 * total energy  :   -63.0429986 Eh     change       -0.1074611E-08 Eh
 * total energy  :   -63.0429950 Eh     change        0.3645405E-05 Eh
 * total energy  :   -63.0429987 Eh     change       -0.3733220E-05 Eh
 * total energy  :   -63.0429990 Eh     change       -0.3332251E-06 Eh
 * total energy  :   -63.0429964 Eh     change        0.2637474E-05 Eh
 * total energy  :   -63.0430003 Eh     change       -0.3933361E-05 Eh
 * total energy  :   -63.0429965 Eh     change        0.3866356E-05 Eh
 * total energy  :   -63.0430000 Eh     change       -0.3513165E-05 Eh
 * total energy  :   -63.0429922 Eh     change        0.7806093E-05 Eh
 * total energy  :   -63.0430002 Eh     change       -0.8048951E-05 Eh
 * total energy  :   -63.0430011 Eh     change       -0.8732518E-06 Eh
 * total energy  :   -63.0430006 Eh     change        0.5037709E-06 Eh
 * total energy  :   -63.0430015 Eh     change       -0.8697452E-06 Eh
 * total energy  :   -63.0430014 Eh     change        0.1048649E-06 Eh
 * total energy  :   -63.0430015 Eh     change       -0.1938308E-06 Eh
 * total energy  :   -63.0430015 Eh     change        0.2909711E-07 Eh
 * total energy  :   -63.0430016 Eh     change       -0.1281145E-06 Eh
 * total energy  :   -63.0430017 Eh     change       -0.8627704E-07 Eh
   *** GEOMETRY OPTIMIZATION CONVERGED AFTER 18 ITERATIONS ***

 final structure:
================
33
 xtb: 6.7.1 (edcfbbe)
N            5.64712551323702        2.62373062594885        0.00163545946319
C            4.70140290564854        1.97836292813313        0.00037800547468
C            3.51859015746877        1.19877084323198       -0.00090031592987
C            2.28423842727132        1.81369215595936       -0.00213284288641
C            1.10923793468011        1.04537988504022       -0.00262153030148
N           -0.08699961189284        1.68709906675636       -0.00220992941081
C           -1.13845554066357        0.92103688348513       -0.00171539577392
C           -1.04847400378971       -0.53391289873868       -0.00248329853726
N            0.09025986450952       -1.16390555768156       -0.00307108048609
C            1.19269015382543       -0.37844693178710       -0.00274295912189
C            2.46775489560150       -0.99497313602120       -0.00180355981033
C            2.55349766617976       -2.40744981448864       -0.00160170782509
N            2.62518877615321       -3.55023078349610       -0.00164754098916
C            3.61882680187167       -0.21642267803695       -0.00051141628316
C            4.89542617832560       -0.82785797301181        0.00164902655906
N            5.93096601674654       -1.31651095303795        0.00377271204354
C           -2.39606628517712       -1.06853425039717       -0.00126192993784
C           -2.94726982467941       -2.32680536885922       -0.00100439842900
C           -4.34978868498216       -2.43533405646152        0.00154442647284
C           -5.18288934408106       -1.34055666521096        0.00380300606891
C           -4.64804321720561       -0.03205444663238        0.00351064810478
C           -5.34503330479883        1.19751298087680        0.00594332033762
C           -4.65738842117822        2.38885601655166        0.00549915686058
C           -3.25238409832625        2.45874114477043        0.00272873141916
C           -2.54469817350214        1.28158536820343        0.00041839101096
C           -3.25349823791998        0.05703063668518        0.00080678813081
H            2.19887821290079        2.88957345968864       -0.00235029829774
H           -2.32771346981111       -3.20987412438561       -0.00265890847199
H           -4.78451345161654       -3.42417620270484        0.00186789259943
H           -6.25475135292143       -1.47507221557539        0.00585582788513
H           -6.42526833229878        1.19512995080042        0.00834157288717
H           -5.21387973341198        3.31472645001462        0.00747537599166
H           -2.75228037156302        3.41459765258086        0.00260507728249

          :  Hamiltonian                  GFN2-xTB          :
         :: gradient norm              0.000133081300 Eh/a0 ::
         :: HOMO-LUMO gap              1.210108996009 eV    ::
         :: SCC energy               -64.280952535090 Eh    ::
         :: -> dispersion             -0.046170063033 Eh    ::
         :: repulsion energy           1.237950799951 Eh    ::

    * Orbital Energies and Occupations

         #    Occupation            Energy/Eh            Energy/eV
      -------------------------------------------------------------
         1        2.0000           -0.7131523             -19.4059
       ...           ...                  ...                  ...
        46        2.0000           -0.4761884             -12.9577
        47        2.0000           -0.4675295             -12.7221
        48        2.0000           -0.4528610             -12.3230
        49        2.0000           -0.4513108             -12.2808
        50        2.0000           -0.4480552             -12.1922
        51        2.0000           -0.4468203             -12.1586
        52        2.0000           -0.4451635             -12.1135
        53        2.0000           -0.4405370             -11.9876
        54        2.0000           -0.4390123             -11.9461
        55        2.0000           -0.4386675             -11.9368
        56        2.0000           -0.4322785             -11.7629
        57        2.0000           -0.4184693             -11.3871
        58        2.0000           -0.3830442             -10.4232 (HOMO)
        59                         -0.3385734              -9.2131 (LUMO)
        60                         -0.3283818              -8.9357
        61                         -0.3025559              -8.2330
        62                         -0.2818832              -7.6704
        63                         -0.2628808              -7.1534
        64                         -0.2335465              -6.3551
        65                         -0.2318367              -6.3086
        66                         -0.2297949              -6.2530
        67                         -0.2189187              -5.9571
        68                         -0.2092006              -5.6926
        69                         -0.2041874              -5.5562
       ...                                ...                  ...
       111                          1.1775033              32.0415
      -------------------------------------------------------------
                  HL-Gap            0.0444708 Eh            1.2101 eV

     #   Z          covCN         q      C6AA      α(0)
     1   7 N        0.911    -0.200    25.339     7.280
     2   6 C        1.911     0.115    28.259     8.585
     3   6 C        2.973     0.027    27.405     8.587
     4   6 C        2.927    -0.024    28.610     8.772
     5   6 C        2.985     0.083    26.143     8.387
     6   7 N        1.839    -0.229    26.847     7.679
     7   6 C        3.057     0.094    25.860     8.340
     8   6 C        3.063     0.096    25.814     8.332
     9   7 N        1.838    -0.229    26.864     7.681
    10   6 C        2.996     0.089    26.008     8.366
    11   6 C        2.978     0.021    27.537     8.608
    12   6 C        1.910     0.125    28.033     8.551
    13   7 N        0.911    -0.195    25.230     7.265
    14   6 C        2.981     0.030    27.323     8.574
    15   6 C        1.909     0.116    28.240     8.582
    16   7 N        0.911    -0.194    25.203     7.261
    17   6 C        3.026    -0.003    28.084     8.693
    18   6 C        2.912    -0.013    28.327     8.727
    19   6 C        2.919    -0.024    28.610     8.771
    20   6 C        2.918    -0.024    28.596     8.769
    21   6 C        2.976     0.020    27.568     8.613
    22   6 C        2.918    -0.024    28.602     8.770
    23   6 C        2.919    -0.025    28.632     8.775
    24   6 C        2.912    -0.014    28.358     8.732
    25   6 C        3.026    -0.004    28.098     8.695
    26   6 C        3.144    -0.002    27.830     8.632
    27   1 H        0.926     0.073     2.052     2.240
    28   1 H        0.926     0.062     2.176     2.307
    29   1 H        0.926     0.050     2.318     2.381
    30   1 H        0.926     0.048     2.339     2.392
    31   1 H        0.926     0.048     2.343     2.394
    32   1 H        0.926     0.049     2.337     2.391
    33   1 H        0.926     0.058     2.225     2.332

molecular dipole:
                 x           y           z       tot (Debye)
 q only:       -3.639       0.687       0.000
   full:       -4.519       1.096      -0.001      11.820

 projected vibrational frequencies (cm⁻¹)
eigval :       -0.00    -0.00     0.00     0.00     0.00     0.00
eigval :       32.37    37.18    60.28    83.58    99.35   100.82
eigval :      102.63   131.03   155.53   168.14   190.99   195.49
eigval :      253.95   265.90   305.86   308.18   365.15   373.48
eigval :      381.66   399.96   417.76   422.27   446.90   451.06
eigval :      477.64   483.29   497.95   528.75   529.15   559.52
eigval :      578.65   588.68   592.17   604.96   627.73   658.81
eigval :      663.08   680.28   704.83   734.91   739.07   755.04
eigval :      788.00   789.20   816.25   863.97   871.42   896.13
eigval :      898.70   901.49   925.09   931.13   971.80  1008.86
eigval :     1063.41  1080.20  1116.86  1130.27  1155.14  1176.59
eigval :     1179.47  1188.99  1229.99  1230.79  1253.36  1287.96
eigval :     1301.15  1330.26  1360.36  1362.63  1390.79  1399.21
eigval :     1408.71  1434.01  1448.55  1464.90  1481.91  1523.02
eigval :     1563.19  1581.73  1593.59  1606.34  1613.40  2371.70
eigval :     2374.78  2379.27  3079.83  3081.60  3090.92  3092.33
eigval :     3104.76  3105.15  3106.84

   temp. (K)  partition function   enthalpy   heat capacity  entropy
                                   cal/mol     cal/K/mol   cal/K/mol   J/K/mol
 298.15  VIB  0.707E+07            10471.567     68.127     63.271
         ROT  0.113E+08              888.752      2.981     35.252
         INT  0.798E+14            11360.320     71.108     98.523
         TR   0.578E+28             1481.254      4.968     43.251
         TOT                       12841.5737    76.0764   141.7735   593.1804

       T/K    H(0)-H(T)+PV         H(T)/Eh          T*S/Eh         G(T)/Eh
   ------------------------------------------------------------------------
    298.15    0.204644E-01    0.237255E+00    0.673612E-01    0.169894E+00
   ------------------------------------------------------------------------

         :::::::::::::::::::::::::::::::::::::::::::::::::::::
         ::                  THERMODYNAMIC                  ::
         :::::::::::::::::::::::::::::::::::::::::::::::::::::
         :: total free energy         -62.873108008966 Eh   ::
         ::.................................................::
         :: total energy              -63.043001735127 Eh   ::
         :: zero point energy           0.216790551680 Eh   ::
         :: G(RRHO) w/o ZPVE           -0.046896825519 Eh   ::
         :: G(RRHO) contrib.            0.169893726161 Eh   ::
         :::::::::::::::::::::::::::::::::::::::::::::::::::::

           -------------------------------------------------
          | TOTAL ENERGY              -63.043001735127 Eh   |
          | TOTAL ENTHALPY            -62.805746833103 Eh   |
          | TOTAL FREE ENERGY         -62.873108008966 Eh   |
          | GRADIENT NORM               0.000133338502 Eh/α |
          | HOMO-LUMO GAP               1.210111371717 eV   |
           -------------------------------------------------

 * finished run on 2025/07/20 at 07:56:06.039
