   * xtb version 6.7.1 (edcfbbe) compiled by 'albert@albert-system' on 2024-07-22

   ID    Z sym.   atoms
    1    7 N      1, 6, 9, 13, 16
    2    6 C      2-5, 7, 8, 10-12, 14, 15, 17-26
    3    1 H      27-33

          program call               : xtb data2507/gas/AQTC/AQTC_gas_S0_finalOpt.xtbopt.xyz --gfn 2 --spinpol --tblite --uhf 2 --ohess vtight --parallel 40 --molden --ceasefiles --namespace data2507/gas/AQTC/AQTC_gas_T1_preOpt
 * total energy  :   -62.9928195 Eh     change        0.1417845E-08 Eh
 * total energy  :   -62.9975808 Eh     change       -0.4761314E-02 Eh
 * total energy  :   -62.9993201 Eh     change       -0.1739265E-02 Eh
 * total energy  :   -62.9994600 Eh     change       -0.1398658E-03 Eh
 * total energy  :   -62.9993863 Eh     change        0.7371974E-04 Eh
 * total energy  :   -62.9995185 Eh     change       -0.1322824E-03 Eh
 * total energy  :   -62.9994254 Eh     change        0.9314145E-04 Eh
 * total energy  :   -62.9995119 Eh     change       -0.8645439E-04 Eh
 * total energy  :   -62.9995195 Eh     change       -0.7654701E-05 Eh
 * total energy  :   -62.9995171 Eh     change        0.2424255E-05 Eh
 * total energy  :   -62.9995204 Eh     change       -0.3269889E-05 Eh
 * total energy  :   -62.9995230 Eh     change       -0.2676539E-05 Eh
 * total energy  :   -62.9995233 Eh     change       -0.2622512E-06 Eh
 * total energy  :   -62.9995233 Eh     change        0.2493264E-07 Eh
 * total energy  :   -62.9995234 Eh     change       -0.1089147E-06 Eh
 * total energy  :   -62.9995234 Eh     change        0.2400569E-07 Eh
 * total energy  :   -62.9995234 Eh     change       -0.6151790E-07 Eh
   *** GEOMETRY OPTIMIZATION CONVERGED AFTER 17 ITERATIONS ***

 final structure:
================
33
 xtb: 6.7.1 (edcfbbe)
N            5.66547199834694        2.64530373766015        0.00008650623240
C            4.73022758728246        1.98318117750104       -0.00018067951565
C            3.56063577660531        1.18966637526014       -0.00049962341011
C            2.30821229897568        1.80929034452707       -0.00055265891118
C            1.13586927751235        1.06353571517435       -0.00060968308405
N           -0.07195304507739        1.62595281222062       -0.00012337741398
C           -1.16564199391200        0.90872587468672        0.00011980001910
C           -1.07858972337735       -0.52834821596264       -0.00057269502728
N            0.10241151449699       -1.10006737283203       -0.00119045633824
C            1.21966263033915       -0.39193366467798       -0.00104312542745
C            2.49102969849205       -0.99146845753026       -0.00116184078814
C            2.57199800292660       -2.39682260614643       -0.00165854014830
N            2.62665310424409       -3.54256168329757       -0.00230115926880
C            3.66313456568174       -0.20596207823611       -0.00073046843713
C            4.92899207363473       -0.82909803249095       -0.00038675138907
N            5.95978933935109       -1.33057091154883       -0.00012318185316
C           -2.41739926585571       -1.06476607305836        0.00011926514397
C           -2.96536519047179       -2.32584534074975       -0.00000972743879
C           -4.36885344856656       -2.43463685444493        0.00123509789195
C           -5.20757325707691       -1.34485868181604        0.00263842105834
C           -4.67408018592723       -0.03383571175602        0.00278118496855
C           -5.36799657370665        1.19885363610546        0.00427500680347
C           -4.67387864804814        2.38605381281505        0.00425819870527
C           -3.26788755425886        2.45404003583814        0.00281240534297
C           -2.56570472677140        1.27273142530622        0.00140254495081
C           -3.28391607394291        0.05433219479649        0.00140346336529
H            2.23816116394248        2.88550915933416       -0.00038156272662
H           -2.34932906113896       -3.21153657150606       -0.00099901883177
H           -4.79814278567243       -3.42585579184468        0.00111227716081
H           -6.27848152336435       -1.48384983624034        0.00365189633537
H           -6.44795488111188        1.20218421719249        0.00549246220414
H           -5.22480219797136        3.31522406184718        0.00546120073633
H           -2.76999628508405        3.41127630257931        0.00287827442218

 projected vibrational frequencies (cm⁻¹)
eigval :       -0.00    -0.00    -0.00    -0.00     0.00     0.00
eigval :       34.94    38.73    59.56    81.95    99.93   102.27
eigval :      102.29   135.36   153.47   163.28   190.96   202.92
eigval :      253.14   256.22   289.34   305.15   371.68   377.50
eigval :      395.25   395.56   416.98   419.55   446.65   446.90
eigval :      478.34   484.66   497.70   521.65   528.52   555.14
eigval :      558.87   574.74   584.96   590.27   621.70   632.39
eigval :      642.72   663.82   676.54   682.64   716.17   724.30
eigval :      773.09   789.75   803.85   811.32   867.65   878.55
eigval :      889.52   894.62   921.33   927.44   971.59   999.02
eigval :     1043.18  1078.95  1100.48  1111.68  1148.12  1176.41
eigval :     1186.21  1187.55  1208.25  1228.81  1233.02  1259.83
eigval :     1282.14  1296.45  1329.59  1362.85  1365.65  1388.24
eigval :     1395.88  1410.10  1432.36  1433.25  1469.52  1480.13
eigval :     1508.29  1521.23  1573.64  1596.51  1612.71  2350.70
eigval :     2359.81  2369.01  3081.47  3083.02  3091.67  3093.64
eigval :     3101.58  3103.92  3107.83

   temp. (K)  partition function   enthalpy   heat capacity  entropy
                                   cal/mol     cal/K/mol   cal/K/mol   J/K/mol
 298.15  VIB  0.706E+07            10588.211     69.162     63.849
         ROT  0.114E+08              888.752      2.981     35.267
         INT  0.802E+14            11476.963     72.143     99.116
         TR   0.578E+28             1481.254      4.968     43.251
         TOT                       12958.2172    77.1113   142.3669   595.6631

       T/K    H(0)-H(T)+PV         H(T)/Eh          T*S/Eh         G(T)/Eh
   ------------------------------------------------------------------------
    298.15    0.206502E-01    0.235176E+00    0.676431E-01    0.167533E+00
   ------------------------------------------------------------------------

         :::::::::::::::::::::::::::::::::::::::::::::::::::::
         ::                  THERMODYNAMIC                  ::
         :::::::::::::::::::::::::::::::::::::::::::::::::::::
         :: total free energy         -62.831990188199 Eh   ::
         ::.................................................::
         :: total energy              -62.999523397121 Eh   ::
         :: zero point energy           0.214526087748 Eh   ::
         :: G(RRHO) w/o ZPVE           -0.046992878825 Eh   ::
         :: G(RRHO) contrib.            0.167533208922 Eh   ::
         :::::::::::::::::::::::::::::::::::::::::::::::::::::

           -------------------------------------------------
          | TOTAL ENERGY              -62.999523397121 Eh   |
          | TOTAL ENTHALPY            -62.764347075771 Eh   |
          | TOTAL FREE ENERGY         -62.831990188199 Eh   |
          | GRADIENT NORM               0.000065783612 Eh/α |
           -------------------------------------------------

 * finished run on 2025/07/20 at 07:56:07.627
