   * xtb version 6.7.1 (edcfbbe) compiled by 'albert@albert-system' on 2024-07-22

   ID    Z sym.   atoms
    1    7 N      1, 6, 9, 13, 16
    2    6 C      2-5, 7, 8, 10-12, 14, 15, 17-26
    3    1 H      27-33

          program call               : xtb data2507/gas/AQTC/AQTC.xyz --gfn 2 --ohess vtight --parallel 40 --molden --ceasefiles --namespace data2507/gas/AQTC/AQTC_gas_S0_preOpt
          :  Hamiltonian                  GFN2-xTB          :
 * total energy  :   -63.0305919 Eh     change       -0.2042228E-08 Eh
 * total energy  :   -63.0407678 Eh     change       -0.1017594E-01 Eh
 * total energy  :   -63.0426688 Eh     change       -0.1900952E-02 Eh
 * total energy  :   -63.0428684 Eh     change       -0.1996303E-03 Eh
 * total energy  :   -63.0429651 Eh     change       -0.9667959E-04 Eh
 * total energy  :   -63.0429748 Eh     change       -0.9731485E-05 Eh
 * total energy  :   -63.0429871 Eh     change       -0.1224563E-04 Eh
 * total energy  :   -63.0429918 Eh     change       -0.4698801E-05 Eh
 * total energy  :   -63.0429830 Eh     change        0.8755611E-05 Eh
 * total energy  :   -63.0429986 Eh     change       -0.1560359E-04 Eh
 * total energy  :   -63.0429871 Eh     change        0.1150322E-04 Eh
 * total energy  :   -63.0430000 Eh     change       -0.1286677E-04 Eh
 * total energy  :   -63.0430008 Eh     change       -0.8766378E-06 Eh
 * total energy  :   -63.0429997 Eh     change        0.1096586E-05 Eh
 * total energy  :   -63.0430018 Eh     change       -0.2076780E-05 Eh
 * total energy  :   -63.0430003 Eh     change        0.1544814E-05 Eh
 * total energy  :   -63.0430019 Eh     change       -0.1600334E-05 Eh
 * total energy  :   -63.0430019 Eh     change       -0.2085215E-07 Eh
   *** GEOMETRY OPTIMIZATION CONVERGED AFTER 18 ITERATIONS ***

 final structure:
================
33
 xtb: 6.7.1 (edcfbbe)
N            6.48048434036124        2.40306691046436       -0.00048268506828
C            5.52142780266250        1.77767027779310       -0.00034548746342
C            4.32237209401392        1.02338852674047       -0.00010761574517
C            3.10136348626368        1.66441619296813        0.00002539660630
C            1.91028690588088        0.92127240046518        0.00014896624439
N            0.72795489982089        1.58826010383872        0.00019195093898
C           -0.33954929785521        0.84471179335076        0.00018361636623
C           -0.28047275627973       -0.61179163273441        0.00016125742945
N            0.84460635446908       -1.26584990668522        0.00017209325700
C            1.96348040898740       -0.50400466787220        0.00015539166336
C            3.22513375316715       -1.14751386325778        0.00009951793852
C            3.28078988154547       -2.56143630054901        0.00019783575153
N            3.32849748799715       -3.70544207342313        0.00011056688134
C            4.39251120938374       -0.39364338777312       -0.00003527783090
C            5.65587521225630       -1.03184693286379       -0.00017501263371
N            6.68123972639802       -1.54158461291863       -0.00022874231429
C           -1.63909861193806       -1.11771651985809        0.00008379343969
C           -2.21680414510897       -2.36402713079635        0.00000266631105
C           -3.62130505948344       -2.44281139622772       -0.00009274479949
C           -4.43101703072481       -1.33062096009520       -0.00011533895249
C           -3.86858864066263       -0.03374260757932       -0.00003149978417
C           -4.53936877482860        1.21032040741177       -0.00004339871547
C           -3.82661111952502        2.38681474934228        0.00002477727704
C           -2.42043120011376        2.42691946850977        0.00010575263852
C           -1.73783610921953        1.23503223239636        0.00013587993815
C           -2.47246501303733        0.02577996319030        0.00006898590799
H            3.03892350409569        2.74187238906536        0.00001430074869
H           -1.61604109286003       -3.25999024773587        0.00003789124714
H           -4.07688683160235       -3.42220428526426       -0.00014952566998
H           -5.50549159523162       -1.44240211625957       -0.00021202089242
H           -5.61941166667317        1.23084848823468       -0.00008563772964
H           -4.36335302298922        3.32427351845674        0.00004929716262
H           -1.90021609916963        3.37198021966563        0.00013604985143

          :  Hamiltonian                  GFN2-xTB          :
         :: gradient norm              0.000105592513 Eh/a0 ::
         :: HOMO-LUMO gap              1.210055903117 eV    ::
         :: SCC energy               -64.280974415463 Eh    ::
         :: -> dispersion             -0.046170241572 Eh    ::
         :: repulsion energy           1.237972510730 Eh    ::

    * Orbital Energies and Occupations

         #    Occupation            Energy/Eh            Energy/eV
      -------------------------------------------------------------
         1        2.0000           -0.7131562             -19.4060
       ...           ...                  ...                  ...
        46        2.0000           -0.4761893             -12.9578
        47        2.0000           -0.4675269             -12.7221
        48        2.0000           -0.4528616             -12.3230
        49        2.0000           -0.4513124             -12.2808
        50        2.0000           -0.4480557             -12.1922
        51        2.0000           -0.4468205             -12.1586
        52        2.0000           -0.4451654             -12.1136
        53        2.0000           -0.4405364             -11.9876
        54        2.0000           -0.4390130             -11.9462
        55        2.0000           -0.4386688             -11.9368
        56        2.0000           -0.4322794             -11.7629
        57        2.0000           -0.4184707             -11.3872
        58        2.0000           -0.3830468             -10.4232 (HOMO)
        59                         -0.3385781              -9.2132 (LUMO)
        60                         -0.3283839              -8.9358
        61                         -0.3025636              -8.2332
        62                         -0.2818854              -7.6705
        63                         -0.2628823              -7.1534
        64                         -0.2335467              -6.3551
        65                         -0.2318380              -6.3086
        66                         -0.2297993              -6.2532
        67                         -0.2189184              -5.9571
        68                         -0.2092019              -5.6927
        69                         -0.2041861              -5.5562
       ...                                ...                  ...
       111                          1.1775279              32.0422
      -------------------------------------------------------------
                  HL-Gap            0.0444687 Eh            1.2101 eV

     #   Z          covCN         q      C6AA      α(0)
     1   7 N        0.911    -0.200    25.339     7.280
     2   6 C        1.911     0.115    28.259     8.585
     3   6 C        2.973     0.027    27.405     8.587
     4   6 C        2.927    -0.024    28.610     8.772
     5   6 C        2.985     0.083    26.143     8.387
     6   7 N        1.839    -0.229    26.847     7.679
     7   6 C        3.057     0.094    25.860     8.340
     8   6 C        3.063     0.096    25.814     8.332
     9   7 N        1.838    -0.229    26.864     7.681
    10   6 C        2.996     0.089    26.008     8.366
    11   6 C        2.978     0.021    27.537     8.608
    12   6 C        1.910     0.125    28.033     8.551
    13   7 N        0.911    -0.195    25.230     7.265
    14   6 C        2.981     0.030    27.323     8.574
    15   6 C        1.909     0.116    28.240     8.582
    16   7 N        0.911    -0.194    25.203     7.261
    17   6 C        3.026    -0.003    28.084     8.693
    18   6 C        2.912    -0.013    28.327     8.727
    19   6 C        2.919    -0.024    28.610     8.771
    20   6 C        2.918    -0.024    28.596     8.769
    21   6 C        2.976     0.020    27.568     8.613
    22   6 C        2.918    -0.024    28.602     8.770
    23   6 C        2.919    -0.025    28.632     8.775
    24   6 C        2.912    -0.014    28.358     8.732
    25   6 C        3.026    -0.004    28.098     8.695
    26   6 C        3.144    -0.002    27.830     8.632
    27   1 H        0.926     0.073     2.052     2.240
    28   1 H        0.926     0.062     2.176     2.307
    29   1 H        0.926     0.050     2.318     2.381
    30   1 H        0.926     0.048     2.339     2.392
    31   1 H        0.926     0.048     2.343     2.394
    32   1 H        0.926     0.049     2.337     2.391
    33   1 H        0.926     0.058     2.225     2.332

molecular dipole:
                 x           y           z       tot (Debye)
 q only:       -3.623       0.764       0.000
   full:       -4.495       1.191       0.000      11.820

 projected vibrational frequencies (cm⁻¹)
eigval :       -0.00    -0.00    -0.00    -0.00     0.00     0.00
eigval :       32.31    37.18    60.21    83.54    99.42   100.81
eigval :      102.62   130.97   155.55   168.16   190.97   195.47
eigval :      253.94   265.91   305.85   308.15   365.12   373.48
eigval :      381.67   399.98   417.73   422.27   446.90   451.11
eigval :      477.64   483.26   497.96   528.74   529.15   559.52
eigval :      578.66   588.66   592.17   604.93   627.73   658.79
eigval :      663.09   680.29   704.82   734.92   739.07   755.03
eigval :      787.98   789.20   816.25   863.97   871.45   896.15
eigval :      898.71   901.51   925.10   931.14   971.83  1008.90
eigval :     1063.41  1080.20  1116.89  1130.27  1155.22  1176.59
eigval :     1179.49  1188.99  1229.99  1230.79  1253.36  1287.98
eigval :     1301.18  1330.25  1360.36  1362.63  1390.83  1399.20
eigval :     1408.75  1434.01  1448.55  1464.88  1481.92  1523.03
eigval :     1563.20  1581.73  1593.58  1606.35  1613.40  2371.77
eigval :     2374.72  2379.24  3079.86  3081.64  3090.95  3092.38
eigval :     3104.75  3105.16  3106.84

   temp. (K)  partition function   enthalpy   heat capacity  entropy
                                   cal/mol     cal/K/mol   cal/K/mol   J/K/mol
 298.15  VIB  0.710E+07            10471.828     68.125     63.273
         ROT  0.113E+08              888.752      2.981     35.251
         INT  0.801E+14            11360.580     71.106     98.525
         TR   0.578E+28             1481.254      4.968     43.251
         TOT                       12841.8343    76.0742   141.7757   593.1895

       T/K    H(0)-H(T)+PV         H(T)/Eh          T*S/Eh         G(T)/Eh
   ------------------------------------------------------------------------
    298.15    0.204648E-01    0.237256E+00    0.673622E-01    0.169894E+00
   ------------------------------------------------------------------------

         :::::::::::::::::::::::::::::::::::::::::::::::::::::
         ::                  THERMODYNAMIC                  ::
         :::::::::::::::::::::::::::::::::::::::::::::::::::::
         :: total free energy         -62.873108374215 Eh   ::
         ::.................................................::
         :: total energy              -63.043001904731 Eh   ::
         :: zero point energy           0.216790968815 Eh   ::
         :: G(RRHO) w/o ZPVE           -0.046897438299 Eh   ::
         :: G(RRHO) contrib.            0.169893530516 Eh   ::
         :::::::::::::::::::::::::::::::::::::::::::::::::::::

           -------------------------------------------------
          | TOTAL ENERGY              -63.043001904731 Eh   |
          | TOTAL ENTHALPY            -62.805746170361 Eh   |
          | TOTAL FREE ENERGY         -62.873108374215 Eh   |
          | GRADIENT NORM               0.000105707785 Eh/α |
          | HOMO-LUMO GAP               1.210054328651 eV   |
           -------------------------------------------------

 * finished run on 2025/07/20 at 07:55:31.364
