   * xtb version 6.7.1 (edcfbbe) compiled by 'albert@albert-system' on 2024-07-22

   ID    Z sym.   atoms
    1    7 N      1, 6, 9, 13, 16
    2    6 C      2-5, 7, 8, 10-12, 14, 15, 17-26
    3    1 H      27-33

          program call               : xtb data2507/gas/AQTC/AQTC_gas_T1_crest.xyz --gfn 2 --spinpol --tblite --uhf 2 --ohess vtight --parallel 40 --molden --ceasefiles --namespace data2507/gas/AQTC/AQTC_gas_T1_finalOpt
 * total energy  :   -62.9994743 Eh     change       -0.3782638E-08 Eh
 * total energy  :   -62.9994825 Eh     change       -0.8154458E-05 Eh
 * total energy  :   -62.9995156 Eh     change       -0.3310475E-04 Eh
 * total energy  :   -62.9995188 Eh     change       -0.3209185E-05 Eh
 * total energy  :   -62.9995186 Eh     change        0.2101840E-06 Eh
 * total energy  :   -62.9995188 Eh     change       -0.2154759E-06 Eh
 * total energy  :   -62.9995222 Eh     change       -0.3380632E-05 Eh
 * total energy  :   -62.9995230 Eh     change       -0.8466358E-06 Eh
 * total energy  :   -62.9995232 Eh     change       -0.1744373E-06 Eh
 * total energy  :   -62.9995233 Eh     change       -0.8991926E-07 Eh
   *** GEOMETRY OPTIMIZATION CONVERGED AFTER 10 ITERATIONS ***

 final structure:
================
33
 xtb: 6.7.1 (edcfbbe)
N            5.66513350714878        2.63859974778864        0.00118582844768
C            4.72961341928979        1.97693568152085        0.00089802461022
C            3.55919134359921        1.18462559713427        0.00018895516124
C            2.30752806994230        1.80575398314418       -0.00026123925354
C            1.13429265737355        1.06140570959113       -0.00060365155445
N           -0.07281289491848        1.62533186684094       -0.00091563660166
C           -1.16737576859287        0.90947498827444       -0.00069065874938
C           -1.08217191981040       -0.52769593926755       -0.00005335291501
N            0.09813556809846       -1.10091777809978       -0.00025205181005
C            1.21627378722995       -0.39416700938975       -0.00057489976967
C            2.48693517145553       -0.99523061121116       -0.00078755711422
C            2.56625770404844       -2.40068751251534       -0.00202776917468
N            2.61940923061012       -3.54647792170415       -0.00309278375303
C            3.65998300322584       -0.21113284640671       -0.00004819503346
C            4.92522736992859       -0.83553054380951        0.00098601659915
N            5.95583562414465       -1.33733503991861        0.00306317669287
C           -2.42169769626652       -1.06236099711201        0.00080153435928
C           -2.97136814334047       -2.32269849640251        0.00209588280880
C           -4.37500860325996       -2.42961027551831        0.00288307032151
C           -5.21228600869180       -1.33872339714778        0.00230997265788
C           -4.67703484709197       -0.02841715739545        0.00098614268555
C           -5.36929910206181        1.20520312239833        0.00026844965175
C           -4.67360692702587        2.39148093806388       -0.00089011002793
C           -3.26752731001483        2.45757930787704       -0.00132360789357
C           -2.56695113687867        1.27532640098142       -0.00064555910508
C           -3.28675200833342        0.05787966594521        0.00037145747394
H            2.23875859653982        2.88205314408158       -0.00021228219427
H           -2.35654984287407       -3.20923693006942        0.00254306164342
H           -4.80562030064804       -3.42025701939872        0.00400251155335
H           -6.28337895731960       -1.47628713692804        0.00294452721203
H           -6.44925301322218        1.20997940102015        0.00055611863148
H           -5.22328828349383        3.32138771669538       -0.00151973858426
H           -2.76832975299021        3.41413591863737       -0.00211820507590

 projected vibrational frequencies (cm⁻¹)
eigval :       -0.00    -0.00     0.00     0.00     0.00     0.00
eigval :       34.87    38.68    59.46    81.67    99.72   102.01
eigval :      102.15   135.30   153.47   163.18   190.88   202.86
eigval :      253.11   256.19   289.26   305.01   371.72   377.46
eigval :      395.18   395.54   416.97   419.51   446.65   446.89
eigval :      478.29   484.50   497.64   521.62   528.51   555.30
eigval :      558.86   574.73   584.97   590.27   621.68   632.38
eigval :      642.71   663.79   676.54   682.73   716.17   724.30
eigval :      773.09   789.73   803.85   811.31   867.56   878.42
eigval :      889.51   894.61   921.33   927.43   971.46   998.86
eigval :     1043.27  1078.92  1100.42  1111.71  1148.23  1176.40
eigval :     1186.24  1187.54  1208.19  1228.87  1233.07  1260.00
eigval :     1282.52  1296.44  1329.68  1362.88  1365.66  1388.27
eigval :     1395.88  1410.09  1432.38  1433.23  1469.29  1480.04
eigval :     1508.09  1521.25  1573.63  1596.49  1612.70  2350.83
eigval :     2359.98  2369.23  3081.57  3083.13  3091.78  3093.74
eigval :     3101.73  3104.04  3107.99

   temp. (K)  partition function   enthalpy   heat capacity  entropy
                                   cal/mol     cal/K/mol   cal/K/mol   J/K/mol
 298.15  VIB  0.715E+07            10590.321     69.159     63.872
         ROT  0.114E+08              888.752      2.981     35.267
         INT  0.813E+14            11479.073     72.139     99.139
         TR   0.578E+28             1481.254      4.968     43.251
         TOT                       12960.3274    77.1076   142.3902   595.7604

       T/K    H(0)-H(T)+PV         H(T)/Eh          T*S/Eh         G(T)/Eh
   ------------------------------------------------------------------------
    298.15    0.206536E-01    0.235178E+00    0.676542E-01    0.167524E+00
   ------------------------------------------------------------------------

         :::::::::::::::::::::::::::::::::::::::::::::::::::::
         ::                  THERMODYNAMIC                  ::
         :::::::::::::::::::::::::::::::::::::::::::::::::::::
         :: total free energy         -62.831999627373 Eh   ::
         ::.................................................::
         :: total energy              -62.999523303297 Eh   ::
         :: zero point energy           0.214524236648 Eh   ::
         :: G(RRHO) w/o ZPVE           -0.047000560723 Eh   ::
         :: G(RRHO) contrib.            0.167523675925 Eh   ::
         :::::::::::::::::::::::::::::::::::::::::::::::::::::

           -------------------------------------------------
          | TOTAL ENERGY              -62.999523303297 Eh   |
          | TOTAL ENTHALPY            -62.764345470349 Eh   |
          | TOTAL FREE ENERGY         -62.831999627373 Eh   |
          | GRADIENT NORM               0.000157092679 Eh/α |
           -------------------------------------------------

 * finished run on 2025/07/20 at 07:56:44.809
