   * xtb version 6.7.1 (edcfbbe) compiled by 'albert@albert-system' on 2024-07-22

   ID    Z sym.   atoms
    1    6 C      1-4, 6-36
    2    7 N      5
    3    1 H      37-59

          program call               : xtb data2507/toluene/SPBAC-PH/SPBAC-PH_toluene_S0_crest.xyz --gfn 2 --gbsa toluene --ohess vtight --parallel 40 --molden --ceasefiles --namespace data2507/toluene/SPBAC-PH/SPBAC-PH_toluene_S0_finalOpt
      * Solvation model:               GBSA
        Solvent                        toluene
        Solvent mass                       9.2140E+01 g/mol
          :  Hamiltonian                  GFN2-xTB          :
 * total energy  :   -89.6718286 Eh     change       -0.9161027E-09 Eh
 * total energy  :   -89.6718458 Eh     change       -0.1718974E-04 Eh
 * total energy  :   -89.6718504 Eh     change       -0.4554188E-05 Eh
 * total energy  :   -89.6718520 Eh     change       -0.1628792E-05 Eh
 * total energy  :   -89.6718536 Eh     change       -0.1629583E-05 Eh
 * total energy  :   -89.6718549 Eh     change       -0.1302966E-05 Eh
 * total energy  :   -89.6718565 Eh     change       -0.1588440E-05 Eh
 * total energy  :   -89.6718578 Eh     change       -0.1304912E-05 Eh
 * total energy  :   -89.6718589 Eh     change       -0.1071743E-05 Eh
 * total energy  :   -89.6718599 Eh     change       -0.1028307E-05 Eh
 * total energy  :   -89.6718610 Eh     change       -0.1117924E-05 Eh
 * total energy  :   -89.6718620 Eh     change       -0.9846723E-06 Eh
 * total energy  :   -89.6718627 Eh     change       -0.6969340E-06 Eh
 * total energy  :   -89.6718630 Eh     change       -0.3174243E-06 Eh
 * total energy  :   -89.6718632 Eh     change       -0.1554356E-06 Eh
 * total energy  :   -89.6718633 Eh     change       -0.9007981E-07 Eh
   *** GEOMETRY OPTIMIZATION CONVERGED AFTER 16 ITERATIONS ***

 final structure:
================
59
 xtb: 6.7.1 (edcfbbe)
C            5.88611940742992        1.36829548886153       -0.00602170977879
C            5.18809045172328        1.30327733955215       -1.20091990415347
C            3.81507533279674        1.12813192155964       -1.19487191776946
C            3.13864615301135        1.01843386088789        0.01323538698891
N            1.72402112978943        0.83363672361488        0.02231341640778
C            0.90214327820279        1.94790034516015        0.05744619551618
C            1.45741101206750        3.23089074358465        0.08750365242987
C            0.65135091308904        4.35019782447717        0.12252935901734
C           -0.72717542633071        4.21767708178881        0.12785590219342
C           -1.28317348241505        2.95215790569759        0.09727073689414
C           -0.48919083535677        1.81538175577395        0.06278688004496
C           -1.15841197296346        0.46275270047069        0.02262759970835
C           -2.14134489599814        0.31844555528606        1.16939994038497
C           -1.88042100945322        0.32016516034117        2.52201832076947
C           -2.94377425319527        0.17448768991688        3.40368798476622
C           -4.24061464637629        0.03107471696189        2.93376142379893
C           -4.50786619748714        0.02751826937235        1.57360086154031
C           -3.45083289036935        0.17136518083145        0.68965925856909
C           -3.41618326084133        0.20212106012370       -0.76535203713881
C           -4.42922906336049        0.09531868966589       -1.70434728101183
C           -4.09696224095100        0.15559179091462       -3.04875417722238
C           -2.77955007635755        0.31989313897096       -3.44954639213284
C           -1.76010841235096        0.42858635394067       -2.51245649534716
C           -2.08582603064126        0.36894683516024       -1.17538980119109
C           -0.17446113137735       -0.68258748334631        0.01544051427475
C           -0.65434583826451       -1.96456695105726        0.00573368010952
C            0.19854584602339       -3.08485546315600       -0.01425199641918
C           -0.28686157744588       -4.40722771405853       -0.02537390162095
C            0.57796837541312       -5.46681044842519       -0.04921371292487
C            1.96491107845706       -5.24706132936557       -0.06241605791715
C            2.46556851204021       -3.97520492080838       -0.05105068611023
C            1.59943851072659       -2.86056113482519       -0.02645850142635
C            2.07963864565592       -1.54104123291561       -0.01376029006001
C            1.22461306066610       -0.45670823206349        0.00809106481797
C            3.83760209023157        1.08389939956842        1.21182869964136
C            5.21044404120143        1.25957303159905        1.19863124605746
H            6.95735013675626        1.50414824486067       -0.01352738115584
H            5.71302025286252        1.38792318846773       -2.14086641255979
H            3.26128838126574        1.07492572151125       -2.12077906040206
H            2.53047522085990        3.34658944012893        0.08345424890805
H            1.10472158100728        5.33037842994705        0.14543274544385
H           -1.36295233989543        5.08958447140518        0.15476425639302
H           -2.35774104843364        2.83629477835859        0.09944484794776
H           -0.87067798938121        0.43181100881924        2.89053028049450
H           -2.75808444422431        0.17329692723481        4.46799863001874
H           -5.05294775024129       -0.07962351474395        3.63778542868785
H           -5.51958507999484       -0.08500634212303        1.21246115631076
H           -5.45683261184445       -0.03274933510087       -1.39721839600576
H           -4.87429482192080        0.07354387974701       -3.79494413352651
H           -2.54316656580618        0.36331553889374       -4.50289669336582
H           -0.73407925273856        0.55661077304660       -2.82669579661133
H           -1.72307081872279       -2.12947577046109        0.01165665177187
H           -1.35613336512736       -4.56755271312580       -0.01541940053964
H            0.20145777201878       -6.47963967337732       -0.05816195389729
H            2.63449134261745       -6.09529354334972       -0.08162977714465
H            3.53294555838758       -3.80296804934675       -0.06077910444315
H            3.14833606489204       -1.38634545647187       -0.02161087272084
H            3.30104772502237        0.99639027887946        2.14528227230720
H            5.75292492515108        1.31001633573907        2.13104691778056

          :  Hamiltonian                  GFN2-xTB          :
         :: gradient norm              0.000052080440 Eh/a0 ::
         :: HOMO-LUMO gap              2.512693286285 eV    ::
         :: SCC energy               -91.397633629812 Eh    ::
         :: -> dispersion             -0.087403991866 Eh    ::
         :: -> Gsolv                  -0.035172153022 Eh    ::
         :: repulsion energy           1.725770336284 Eh    ::

    * Orbital Energies and Occupations

         #    Occupation            Energy/Eh            Energy/eV
      -------------------------------------------------------------
         1        2.0000           -0.6700021             -18.2317
       ...           ...                  ...                  ...
        72        2.0000           -0.4196632             -11.4196
        73        2.0000           -0.4185526             -11.3894
        74        2.0000           -0.4169510             -11.3458
        75        2.0000           -0.4155103             -11.3066
        76        2.0000           -0.4098169             -11.1517
        77        2.0000           -0.4079354             -11.1005
        78        2.0000           -0.4068372             -11.0706
        79        2.0000           -0.3997581             -10.8780
        80        2.0000           -0.3956008             -10.7648
        81        2.0000           -0.3951634             -10.7529
        82        2.0000           -0.3803125             -10.3488
        83        2.0000           -0.3734530             -10.1622
        84        2.0000           -0.3471959              -9.4477 (HOMO)
        85                         -0.2548561              -6.9350 (LUMO)
        86                         -0.2517573              -6.8507
        87                         -0.2354189              -6.4061
        88                         -0.2342336              -6.3738
        89                         -0.2308067              -6.2806
        90                         -0.2248540              -6.1186
        91                         -0.2219911              -6.0407
        92                         -0.2161830              -5.8826
        93                         -0.2015434              -5.4843
        94                         -0.1894879              -5.1562
        95                         -0.1828001              -4.9742
       ...                                ...                  ...
       167                          0.7282921              19.8178
      -------------------------------------------------------------
                  HL-Gap            0.0923397 Eh            2.5127 eV

     #   Z          covCN         q      C6AA      α(0)
     1   6 C        2.919    -0.030    28.738     8.791
     2   6 C        2.920    -0.027    28.682     8.782
     3   6 C        2.921    -0.037    28.920     8.819
     4   6 C        2.928     0.068    26.482     8.439
     5   7 N        2.754    -0.071    22.620     7.064
     6   6 C        2.925     0.060    26.648     8.466
     7   6 C        2.924    -0.059    29.457     8.901
     8   6 C        2.919    -0.034    28.840     8.807
     9   6 C        2.917    -0.045    29.111     8.848
    10   6 C        2.926    -0.036    28.905     8.817
    11   6 C        2.983    -0.009    28.240     8.717
    12   6 C        3.950     0.013    20.285     6.400
    13   6 C        3.057     0.002    27.926     8.666
    14   6 C        2.914    -0.033    28.831     8.805
    15   6 C        2.922    -0.033    28.815     8.803
    16   6 C        2.921    -0.034    28.835     8.806
    17   6 C        2.914    -0.035    28.879     8.812
    18   6 C        3.034     0.000    27.991     8.678
    19   6 C        3.034     0.000    27.991     8.678
    20   6 C        2.914    -0.035    28.877     8.812
    21   6 C        2.921    -0.034    28.835     8.806
    22   6 C        2.922    -0.033    28.816     8.803
    23   6 C        2.914    -0.034    28.835     8.805
    24   6 C        3.058     0.002    27.925     8.666
    25   6 C        2.978    -0.005    28.133     8.700
    26   6 C        2.924    -0.044    29.089     8.845
    27   6 C        2.986     0.001    27.995     8.679
    28   6 C        2.918    -0.036    28.906     8.817
    29   6 C        2.916    -0.036    28.897     8.815
    30   6 C        2.916    -0.033    28.814     8.802
    31   6 C        2.918    -0.040    29.001     8.831
    32   6 C        2.986     0.009    27.819     8.652
    33   6 C        2.924    -0.072    29.788     8.950
    34   6 C        2.922     0.060    26.655     8.466
    35   6 C        2.921    -0.037    28.920     8.819
    36   6 C        2.920    -0.027    28.682     8.782
    37   1 H        0.926     0.043     2.410     2.428
    38   1 H        0.926     0.043     2.405     2.425
    39   1 H        0.926     0.041     2.434     2.440
    40   1 H        0.926     0.029     2.597     2.520
    41   1 H        0.926     0.031     2.577     2.510
    42   1 H        0.926     0.027     2.623     2.533
    43   1 H        0.926     0.025     2.655     2.548
    44   1 H        0.926     0.025     2.657     2.549
    45   1 H        0.926     0.032     2.560     2.502
    46   1 H        0.926     0.032     2.556     2.500
    47   1 H        0.926     0.033     2.549     2.497
    48   1 H        0.926     0.033     2.548     2.496
    49   1 H        0.926     0.032     2.554     2.499
    50   1 H        0.926     0.032     2.559     2.502
    51   1 H        0.926     0.025     2.660     2.550
    52   1 H        0.925     0.027     2.627     2.534
    53   1 H        0.925     0.027     2.632     2.537
    54   1 H        0.926     0.027     2.635     2.538
    55   1 H        0.926     0.028     2.619     2.531
    56   1 H        0.925     0.028     2.618     2.530
    57   1 H        0.926     0.028     2.617     2.530
    58   1 H        0.926     0.041     2.433     2.439
    59   1 H        0.926     0.043     2.405     2.425

molecular dipole:
                 x           y           z       tot (Debye)
 q only:        0.799       0.352      -0.003
   full:        0.756       0.348      -0.004       2.116

 projected vibrational frequencies (cm⁻¹)
eigval :       -0.00    -0.00     0.00     0.00     0.00     0.00
eigval :       10.18    29.76    34.34    37.10    39.47    56.82
eigval :       61.29    79.14    80.87   118.01   133.93   135.32
eigval :      152.30   158.47   224.03   237.36   241.07   248.26
eigval :      252.91   278.23   284.19   303.98   319.38   377.94
eigval :      380.61   387.21   400.68   414.55   418.96   437.50
eigval :      437.85   443.39   466.05   479.18   492.33   500.93
eigval :      506.59   511.82   537.15   551.90   557.44   583.95
eigval :      591.71   594.66   596.19   598.39   620.27   658.60
eigval :      668.16   672.11   677.23   680.34   696.33   711.80
eigval :      730.65   752.66   759.95   760.54   767.00   773.98
eigval :      784.61   818.05   821.54   835.06   863.86   868.84
eigval :      874.29   874.89   875.79   876.31   885.27   895.44
eigval :      902.56   907.23   907.88   911.40   911.77   912.60
eigval :      919.52   920.12   924.35   925.85   927.29   928.73
eigval :      934.23   977.27   995.13  1004.78  1072.81  1077.20
eigval :     1077.67  1078.78  1084.82  1106.43  1115.11  1134.39
eigval :     1141.54  1143.48  1159.91  1175.60  1178.04  1179.07
eigval :     1179.22  1182.61  1185.28  1194.02  1203.09  1205.71
eigval :     1220.51  1230.66  1238.16  1249.49  1258.34  1268.14
eigval :     1272.40  1274.32  1283.31  1307.68  1308.52  1310.90
eigval :     1324.50  1330.92  1340.47  1365.37  1377.03  1408.26
eigval :     1427.85  1429.06  1431.15  1436.06  1447.37  1453.93
eigval :     1459.86  1470.02  1470.15  1485.74  1505.28  1558.13
eigval :     1579.66  1582.59  1584.48  1588.36  1592.55  1595.11
eigval :     1599.74  1603.36  1604.12  1606.69  3061.08  3062.38
eigval :     3067.78  3068.20  3070.24  3070.95  3071.18  3071.80
eigval :     3073.13  3075.73  3077.26  3078.34  3079.11  3079.38
eigval :     3082.08  3085.78  3086.78  3088.31  3088.84  3089.61
eigval :     3089.92  3097.08  3098.00

   temp. (K)  partition function   enthalpy   heat capacity  entropy
                                   cal/mol     cal/K/mol   cal/K/mol   J/K/mol
 298.15  VIB  0.126E+12            15286.898    101.798     92.997
         ROT  0.243E+08              888.752      2.981     36.776
         INT  0.306E+19            16175.650    104.779    129.773
         TR   0.947E+28             1481.254      4.968     44.231
         TOT                       17656.9039   109.7473   174.0042   728.0336

       T/K    H(0)-H(T)+PV         H(T)/Eh          T*S/Eh         G(T)/Eh
   ------------------------------------------------------------------------
    298.15    0.281381E-01    0.484832E+00    0.826750E-01    0.402157E+00
   ------------------------------------------------------------------------

         :::::::::::::::::::::::::::::::::::::::::::::::::::::
         ::                  THERMODYNAMIC                  ::
         :::::::::::::::::::::::::::::::::::::::::::::::::::::
         :: total free energy         -89.269705989443 Eh   ::
         ::.................................................::
         :: total energy              -89.671863292718 Eh   ::
         :: zero point energy           0.456694244916 Eh   ::
         :: G(RRHO) w/o ZPVE           -0.054536941640 Eh   ::
         :: G(RRHO) contrib.            0.402157303276 Eh   ::
         :::::::::::::::::::::::::::::::::::::::::::::::::::::

           -------------------------------------------------
          | TOTAL ENERGY              -89.671863292718 Eh   |
          | TOTAL ENTHALPY            -89.187030980402 Eh   |
          | TOTAL FREE ENERGY         -89.269705989443 Eh   |
          | GRADIENT NORM               0.000052070665 Eh/α |
          | HOMO-LUMO GAP               2.512692315298 eV   |
           -------------------------------------------------

 * finished run on 2025/09/05 at 09:24:34.467
