   * xtb version 6.7.1 (edcfbbe) compiled by 'albert@albert-system' on 2024-07-22

   ID    Z sym.   atoms
    1    6 C      1-4, 6-36
    2    7 N      5
    3    1 H      37-59

          program call               : xtb data2507/toluene/SPBAC-PH/SPBAC-PH_toluene_T1_crest.xyz --gfn 2 --uhf 2 --gbsa toluene --ohess vtight --parallel 40 --molden --ceasefiles --namespace data2507/toluene/SPBAC-PH/SPBAC-PH_toluene_T1_finalOpt
      * Solvation model:               GBSA
        Solvent                        toluene
        Solvent mass                       9.2140E+01 g/mol
          :  Hamiltonian                  GFN2-xTB          :
 * total energy  :   -89.5766025 Eh     change       -0.6485067E-08 Eh
 * total energy  :   -89.5766258 Eh     change       -0.2335599E-04 Eh
 * total energy  :   -89.5766368 Eh     change       -0.1095240E-04 Eh
 * total energy  :   -89.5766431 Eh     change       -0.6312933E-05 Eh
 * total energy  :   -89.5766566 Eh     change       -0.1352639E-04 Eh
 * total energy  :   -89.5766648 Eh     change       -0.8137331E-05 Eh
 * total energy  :   -89.5766711 Eh     change       -0.6331778E-05 Eh
 * total energy  :   -89.5766768 Eh     change       -0.5682186E-05 Eh
 * total energy  :   -89.5766814 Eh     change       -0.4640983E-05 Eh
 * total energy  :   -89.5766854 Eh     change       -0.3985980E-05 Eh
 * total energy  :   -89.5766950 Eh     change       -0.8297230E-06 Eh
 * total energy  :   -89.5766954 Eh     change       -0.4522507E-06 Eh
 * total energy  :   -89.5766959 Eh     change       -0.4273012E-06 Eh
 * total energy  :   -89.5766964 Eh     change       -0.4908534E-06 Eh
 * total energy  :   -89.5766971 Eh     change       -0.7556232E-06 Eh
 * total energy  :   -89.5766980 Eh     change       -0.8764307E-06 Eh
 * total energy  :   -89.5766986 Eh     change       -0.6300051E-06 Eh
 * total energy  :   -89.5766990 Eh     change       -0.4058333E-06 Eh
 * total energy  :   -89.5766990 Eh     change       -0.9811217E-08 Eh
   *** GEOMETRY OPTIMIZATION CONVERGED AFTER 22 ITERATIONS ***

 final structure:
================
59
 xtb: 6.7.1 (edcfbbe)
C            5.84514953684751        1.47627156880236       -0.06413059549821
C            5.19209328594840        1.04545052309693       -1.20767142739585
C            3.82240872436375        0.84929693841419       -1.19507054085421
C            3.10406726228882        1.08634810573444       -0.02855658638983
N            1.69551756043727        0.88048453854131       -0.01010599242194
C            0.86124576436292        1.97764833157491       -0.03675726824222
C            1.39206685379263        3.27704537573108       -0.09826350283332
C            0.56394264387499        4.37555829505811       -0.11786262481240
C           -0.81616133115210        4.21297540305892       -0.08600219177896
C           -1.34874385799273        2.93577782472831       -0.05031308566650
C           -0.53629125683448        1.81365913945754       -0.03037194616127
C           -1.17669358131249        0.45045340072530       -0.01199201552042
C           -2.10502036073087        0.31409099718609        1.18208100245842
C           -1.78325855391729        0.35970410693658        2.52021744268185
C           -2.80039674147673        0.20326636902841        3.45359456448407
C           -4.11174257835533        0.00605870853158        3.04644567418563
C           -4.44009721908046       -0.04063504976227        1.70093296441247
C           -3.42943290739121        0.11454550350155        0.76482946995400
C           -3.46004462377011        0.10750464082449       -0.68888639567452
C           -4.50967788403271       -0.05685318393104       -1.57938158881266
C           -4.23929477695390       -0.02210498093833       -2.93808943173269
C           -2.94683064897909        0.17275408527236       -3.40255531722478
C           -1.89074567157612        0.33804861908232       -2.51497981310054
C           -2.15434408463645        0.30346869906017       -1.16378538636518
C           -0.15934772763942       -0.66513651992681       -0.01783206447030
C           -0.61143658791494       -1.97943336970160       -0.02104556653977
C            0.27670491900533       -3.08765520328672        0.00346891091826
C           -0.16501427137273       -4.40319702171041       -0.00694123553605
C            0.75508673684934       -5.47817552929620        0.03646440127794
C            2.10496234582425       -5.23371800625048        0.09477877528156
C            2.58057419616834       -3.91884563552082        0.10739914687941
C            1.68249247460950       -2.82495551634036        0.05846485600429
C            2.12859828455339       -1.51051775624239        0.06688588869394
C            1.20310840821951       -0.40247358681249        0.00395367132331
C            3.75684807186934        1.51921854769781        1.11972832917900
C            5.12665379587555        1.71224368414459        1.09757997971141
H            6.91399183455000        1.62682253422784       -0.07748780749953
H            5.74943061560813        0.86021453603062       -2.11357985283422
H            3.30299276756352        0.50979232392698       -2.07906390707343
H            2.46132295526144        3.41392324594542       -0.13470986760480
H            0.99260213232575        5.36548221189058       -0.16160869996137
H           -1.46876849048003        5.07209159309411       -0.09831155333030
H           -2.42054972470384        2.80017181339645       -0.03975524766280
H           -0.76152254343931        0.50887868053174        2.83934705258995
H           -2.56702133209747        0.23338903759570        4.50807532983736
H           -4.88730847522872       -0.11354606933526        3.78954640764329
H           -5.46272502695086       -0.19620090561445        1.38969664170528
H           -5.51790933448608       -0.20987031650878       -1.22319967822549
H           -5.04588800190038       -0.14892093067384       -3.64616452665202
H           -2.75880558772682        0.19443785835083       -4.46625039343989
H           -0.88421911553543        0.48689504070014       -2.87932397011373
H           -1.67384699150105       -2.17177282302638       -0.04030899482633
H           -1.22485189881197       -4.61052386663255       -0.04335771384441
H            0.37968124857431       -6.49139517810619        0.02572503073109
H            2.80869946097832       -6.05325961625050        0.13104242192822
H            3.64203831647891       -3.72391202170410        0.15150634022924
H            3.18566251439379       -1.31304032994433        0.13799544925140
H            3.18769408321794        1.69620230737469        2.02046968047232
H            5.63364178053841        2.04342197576094        1.99132712956827

          :  Hamiltonian                  GFN2-xTB          :
         :: gradient norm              0.000060938190 Eh/a0 ::
         :: HOMO-LUMO gap              0.185135998715 eV    ::
         :: SCC energy               -91.282797115731 Eh    ::
         :: -> dispersion             -0.087335320484 Eh    ::
         :: -> Gsolv                  -0.036706958620 Eh    ::
         :: repulsion energy           1.706098075957 Eh    ::

    * Orbital Energies and Occupations

         #    Occupation            Energy/Eh            Energy/eV
      -------------------------------------------------------------
         1        2.0000           -0.6823221             -18.5669
       ...           ...                  ...                  ...
        73        2.0000           -0.4174420             -11.3592
        74        2.0000           -0.4148310             -11.2881
        75        2.0000           -0.4139547             -11.2643
        76        2.0000           -0.4128075             -11.2331
        77        2.0000           -0.4055147             -11.0346
        78        2.0000           -0.4046450             -11.0110
        79        2.0000           -0.4017219             -10.9314
        80        2.0000           -0.3985731             -10.8457
        81        2.0000           -0.3937859             -10.7155
        82        2.0000           -0.3785245             -10.3002
        83        1.9998           -0.3651000              -9.9349
        84        1.0002           -0.3491128              -9.4998
        85        0.9729           -0.2574467              -7.0055 (HOMO)
        86        0.0271           -0.2506431              -6.8203 (LUMO)
        87        0.0000           -0.2412243              -6.5640
        88                         -0.2386751              -6.4947
        89                         -0.2306807              -6.2771
        90                         -0.2285862              -6.2201
        91                         -0.2235492              -6.0831
        92                         -0.2154002              -5.8613
        93                         -0.2024326              -5.5085
        94                         -0.1881360              -5.1194
        95                         -0.1799521              -4.8967
        96                         -0.1358293              -3.6961
       ...                                ...                  ...
       167                          0.7294516              19.8494
      -------------------------------------------------------------
                  HL-Gap            0.0068036 Eh            0.1851 eV

     #   Z          covCN         q      C6AA      α(0)
     1   6 C        2.919    -0.028    28.701     8.785
     2   6 C        2.920    -0.025    28.632     8.775
     3   6 C        2.921    -0.034    28.857     8.809
     4   6 C        2.931     0.063    26.580     8.455
     5   7 N        2.753    -0.013    21.513     6.889
     6   6 C        2.929     0.054    26.798     8.490
     7   6 C        2.920    -0.051    29.256     8.870
     8   6 C        2.917    -0.031    28.771     8.796
     9   6 C        2.917    -0.036    28.903     8.816
    10   6 C        2.923    -0.033    28.825     8.805
    11   6 C        2.981     0.001    28.002     8.680
    12   6 C        3.949     0.013    20.287     6.400
    13   6 C        3.058     0.002    27.929     8.667
    14   6 C        2.914    -0.034    28.848     8.807
    15   6 C        2.922    -0.034    28.849     8.808
    16   6 C        2.921    -0.034    28.843     8.807
    17   6 C        2.914    -0.036    28.898     8.815
    18   6 C        3.033    -0.000    28.005     8.680
    19   6 C        3.033    -0.000    28.005     8.680
    20   6 C        2.914    -0.036    28.899     8.815
    21   6 C        2.921    -0.034    28.841     8.807
    22   6 C        2.922    -0.034    28.849     8.808
    23   6 C        2.914    -0.034    28.844     8.807
    24   6 C        3.057     0.002    27.930     8.667
    25   6 C        2.971    -0.016    28.401     8.742
    26   6 C        2.921    -0.068    29.698     8.937
    27   6 C        2.975     0.008    27.843     8.655
    28   6 C        2.916    -0.059    29.456     8.900
    29   6 C        2.912    -0.033    28.822     8.803
    30   6 C        2.908    -0.041    29.029     8.835
    31   6 C        2.918    -0.053    29.322     8.880
    32   6 C        2.975     0.011    27.772     8.644
    33   6 C        2.918    -0.067    29.662     8.931
    34   6 C        2.923     0.044    27.006     8.522
    35   6 C        2.921    -0.035    28.874     8.812
    36   6 C        2.920    -0.026    28.645     8.777
    37   1 H        0.926     0.047     2.362     2.404
    38   1 H        0.926     0.048     2.351     2.398
    39   1 H        0.926     0.045     2.381     2.413
    40   1 H        0.926     0.041     2.434     2.439
    41   1 H        0.926     0.041     2.438     2.442
    42   1 H        0.926     0.038     2.479     2.462
    43   1 H        0.926     0.034     2.536     2.490
    44   1 H        0.926     0.024     2.672     2.556
    45   1 H        0.926     0.031     2.578     2.511
    46   1 H        0.926     0.031     2.575     2.510
    47   1 H        0.926     0.031     2.573     2.508
    48   1 H        0.926     0.031     2.574     2.509
    49   1 H        0.926     0.031     2.576     2.510
    50   1 H        0.926     0.031     2.578     2.511
    51   1 H        0.926     0.024     2.670     2.555
    52   1 H        0.926     0.011     2.868     2.648
    53   1 H        0.926     0.012     2.850     2.640
    54   1 H        0.926     0.018     2.757     2.596
    55   1 H        0.926     0.018     2.766     2.601
    56   1 H        0.926     0.019     2.745     2.591
    57   1 H        0.926     0.030     2.581     2.512
    58   1 H        0.926     0.046     2.373     2.409
    59   1 H        0.926     0.048     2.345     2.395

molecular dipole:
                 x           y           z       tot (Debye)
 q only:        1.259       1.867      -0.030
   full:        1.199       1.801      -0.028       5.500

 projected vibrational frequencies (cm⁻¹)
eigval :       -0.00    -0.00     0.00     0.00     0.00     0.00
eigval :        8.31    16.11    30.48    38.29    43.22    55.80
eigval :       60.62    77.37    80.04   119.24   131.82   135.82
eigval :      150.40   158.34   219.11   222.78   234.90   243.00
eigval :      248.75   258.26   278.15   288.74   311.16   366.53
eigval :      373.57   384.24   388.98   397.95   410.06   414.00
eigval :      432.11   443.51   455.37   478.52   481.58   489.05
eigval :      501.83   515.35   535.32   546.60   547.81   558.50
eigval :      575.57   588.88   591.79   595.11   615.34   619.55
eigval :      666.56   668.56   672.37   678.03   679.81   686.27
eigval :      693.48   718.02   726.59   751.83   756.30   756.94
eigval :      764.15   765.62   781.76   783.47   804.09   815.72
eigval :      830.49   860.85   868.98   870.38   872.14   874.24
eigval :      886.35   889.21   899.71   903.87   904.75   909.40
eigval :      911.96   912.97   915.02   922.56   924.25   925.32
eigval :      929.95   955.56   991.91  1002.81  1063.87  1072.15
eigval :     1074.86  1077.05  1077.91  1092.82  1100.13  1113.89
eigval :     1127.32  1140.20  1141.55  1159.03  1174.66  1177.81
eigval :     1178.46  1179.83  1180.43  1183.03  1194.79  1198.52
eigval :     1200.99  1208.09  1215.64  1238.90  1256.47  1257.51
eigval :     1265.66  1271.92  1276.04  1279.61  1290.92  1307.99
eigval :     1309.90  1325.29  1333.40  1336.17  1363.91  1370.34
eigval :     1407.78  1421.15  1425.68  1426.27  1427.80  1430.07
eigval :     1450.46  1456.14  1459.03  1461.29  1463.18  1473.88
eigval :     1487.55  1516.90  1527.96  1556.92  1569.90  1576.18
eigval :     1576.33  1583.09  1590.17  1599.49  3060.66  3065.32
eigval :     3066.32  3066.75  3069.37  3069.98  3072.15  3076.98
eigval :     3078.00  3079.92  3081.07  3082.06  3082.89  3083.74
eigval :     3084.41  3085.61  3087.31  3089.03  3093.59  3097.02
eigval :     3101.14  3105.31  3106.60

   temp. (K)  partition function   enthalpy   heat capacity  entropy
                                   cal/mol     cal/K/mol   cal/K/mol   J/K/mol
 298.15  VIB  0.420E+12            15645.617    103.896     95.583
         ROT  0.244E+08              888.752      2.981     36.783
         INT  0.102E+20            16534.370    106.877    132.366
         TR   0.947E+28             1481.254      4.968     44.231
         TOT                       18015.6237   111.8451   176.5973   738.8833

       T/K    H(0)-H(T)+PV         H(T)/Eh          T*S/Eh         G(T)/Eh
   ------------------------------------------------------------------------
    298.15    0.287097E-01    0.480788E+00    0.839071E-01    0.396881E+00
   ------------------------------------------------------------------------

         :::::::::::::::::::::::::::::::::::::::::::::::::::::
         ::                  THERMODYNAMIC                  ::
         :::::::::::::::::::::::::::::::::::::::::::::::::::::
         :: total free energy         -89.179817656910 Eh   ::
         ::.................................................::
         :: total energy              -89.576699038758 Eh   ::
         :: zero point energy           0.452078754089 Eh   ::
         :: G(RRHO) w/o ZPVE           -0.055197372242 Eh   ::
         :: G(RRHO) contrib.            0.396881381847 Eh   ::
         :::::::::::::::::::::::::::::::::::::::::::::::::::::

           -------------------------------------------------
          | TOTAL ENERGY              -89.576699038758 Eh   |
          | TOTAL ENTHALPY            -89.095910560812 Eh   |
          | TOTAL FREE ENERGY         -89.179817656910 Eh   |
          | GRADIENT NORM               0.000061075680 Eh/α |
          | HOMO-LUMO GAP               0.185135849034 eV   |
           -------------------------------------------------

 * finished run on 2025/09/05 at 09:27:18.354
