   * xtb version 6.7.1 (edcfbbe) compiled by 'albert@albert-system' on 2024-07-22

   ID    Z sym.   atoms
    1    6 C      1-4, 6-36
    2    7 N      5
    3    1 H      37-59

          program call               : xtb data2507/toluene/SPBAC-PH/SPBAC-PH.xyz --gfn 2 --gbsa toluene --ohess vtight --parallel 40 --molden --ceasefiles --namespace data2507/toluene/SPBAC-PH/SPBAC-PH_toluene_S0_preOpt
      * Solvation model:               GBSA
        Solvent                        toluene
        Solvent mass                       9.2140E+01 g/mol
          :  Hamiltonian                  GFN2-xTB          :
 * total energy  :   -89.6535761 Eh     change       -0.2910213E-08 Eh
 * total energy  :   -89.6673660 Eh     change       -0.1378990E-01 Eh
 * total energy  :   -89.6713138 Eh     change       -0.3947815E-02 Eh
 * total energy  :   -89.6717066 Eh     change       -0.3928341E-03 Eh
 * total energy  :   -89.6718310 Eh     change       -0.1243359E-03 Eh
 * total energy  :   -89.6718510 Eh     change       -0.2005365E-04 Eh
 * total energy  :   -89.6718595 Eh     change       -0.8493632E-05 Eh
 * total energy  :   -89.6718610 Eh     change       -0.1495676E-05 Eh
 * total energy  :   -89.6718620 Eh     change       -0.9342719E-06 Eh
 * total energy  :   -89.6718625 Eh     change       -0.5908619E-06 Eh
 * total energy  :   -89.6718634 Eh     change       -0.8041053E-06 Eh
 * total energy  :   -89.6718641 Eh     change       -0.7304442E-06 Eh
 * total energy  :   -89.6718643 Eh     change       -0.2417266E-06 Eh
 * total energy  :   -89.6718642 Eh     change        0.1113139E-06 Eh
 * total energy  :   -89.6718644 Eh     change       -0.2082669E-06 Eh
 * total energy  :   -89.6718643 Eh     change        0.7892068E-07 Eh
 * total energy  :   -89.6718645 Eh     change       -0.1343202E-06 Eh
 * total energy  :   -89.6718644 Eh     change        0.5023462E-07 Eh
 * total energy  :   -89.6718645 Eh     change       -0.8627158E-07 Eh
   *** GEOMETRY OPTIMIZATION CONVERGED AFTER 19 ITERATIONS ***

 final structure:
================
59
 xtb: 6.7.1 (edcfbbe)
C            5.88212724604213        1.16614780625559       -0.00016639556513
C            5.19280938142421        1.10164413200337       -1.20017000110680
C            3.81467003928490        0.97279241849994       -1.20373025282975
C            3.12444002333789        0.90915269593892       -0.00005624390526
N            1.70401506017498        0.77540661843632       -0.00000238134014
C            0.92350609136324        1.91959090981780       -0.00018519998518
C            1.52558490329467        3.18166721586543       -0.00035191991383
C            0.76120099562880        4.33035477714693       -0.00053436463025
C           -0.62131244822286        4.24869885991872       -0.00055511428283
C           -1.22349511987820        3.00409912442282       -0.00039412259030
C           -0.47174109145066        1.83843458656865       -0.00020833023453
C           -1.19009459082961        0.51061064383515       -0.00004123997989
C           -2.14928883021639        0.42691567673990        1.17290159578337
C           -1.85428516513864        0.44322288156975        2.51830273543812
C           -2.89981948794524        0.35437641166276        3.42835980120954
C           -4.21265693262169        0.25356365081291        2.99290647973744
C           -4.51403703941276        0.23572826476573        1.63999702209684
C           -3.47484205576207        0.32215748767868        0.72786227672362
C           -3.47482646234371        0.32196723130472       -0.72793451286821
C           -4.51400619945260        0.23530149169129       -1.64006529221037
C           -4.21260213197275        0.25278165687045       -2.99297393047198
C           -2.89975635712533        0.35347418538359       -3.42843061878440
C           -1.85423864709307        0.44255764564594       -2.51837791140918
C           -2.14926739903644        0.42661024868600       -1.17297793600218
C           -0.24884925477384       -0.66996695072996        0.00011151151571
C           -0.77551177169942       -1.93348546629128        0.00021923897285
C            0.03579424388881       -3.08439886291028        0.00035015956796
C           -0.49812270439679       -4.38794866448185        0.00042323464058
C            0.32695453285516       -5.47898764203340        0.00054203751902
C            1.72115940156976       -5.31072540790851        0.00060001447774
C            2.26850847992478       -4.05816994220916        0.00053482036507
C            1.44406768168846       -2.91204349233152        0.00040217186245
C            1.97237250097285       -1.61095864590526        0.00030434402433
C            1.15763647926158       -0.49579848474703        0.00013774761276
C            3.81472496942994        0.97323215104836        1.20356200543773
C            5.19286489039088        1.10208078049542        1.19989171417586
H            6.95731117233591        1.26637262407054       -0.00020948496669
H            5.72855285689313        1.15102734297384       -2.13652770190525
H            3.26728995974854        0.92095164925112       -2.13352938574706
H            2.60224725255969        3.25729044131437       -0.00034341940531
H            1.25020960921430        5.29355093662122       -0.00066158798119
H           -1.22453815638974        5.14386292004850       -0.00069771010162
H           -2.30162565398638        2.92801626379796       -0.00041143934402
H           -0.83191065393715        0.52212079717875        2.85943808302731
H           -2.68762032422392        0.36450204151716        4.48767602829380
H           -5.01076480993527        0.18675288031412        3.71841595649236
H           -5.53810686566819        0.15575965082368        1.30593639883941
H           -5.53808149596756        0.15541546205790       -1.30600192496122
H           -5.01069741723031        0.18578664744832       -3.71848029973427
H           -2.68753867732633        0.36333090714392       -4.48774542992298
H           -0.83185685608317        0.52135725267063       -2.85951417194402
H           -1.84956547932595       -2.05956597382036        0.00019420346093
H           -1.57263565280031       -4.50845928414874        0.00037989067916
H           -0.08691370135740       -6.47718601193652        0.00059298193228
H            2.35888153603995       -6.18338710379545        0.00069675186615
H            3.34159223421473       -3.92565680723089        0.00057671183071
H            3.04605268872084       -1.49547490246410        0.00034980023535
H            3.26738593932721        0.92173381999216        2.13340452820005
H            5.72865026401654        1.15180945265507        2.13620707810530

          :  Hamiltonian                  GFN2-xTB          :
         :: gradient norm              0.000025607728 Eh/a0 ::
         :: HOMO-LUMO gap              2.512657961199 eV    ::
         :: SCC energy               -91.397610994978 Eh    ::
         :: -> dispersion             -0.087404417573 Eh    ::
         :: -> Gsolv                  -0.035171745535 Eh    ::
         :: repulsion energy           1.725746481139 Eh    ::

    * Orbital Energies and Occupations

         #    Occupation            Energy/Eh            Energy/eV
      -------------------------------------------------------------
         1        2.0000           -0.6700049             -18.2318
       ...           ...                  ...                  ...
        72        2.0000           -0.4196583             -11.4195
        73        2.0000           -0.4185655             -11.3897
        74        2.0000           -0.4169487             -11.3458
        75        2.0000           -0.4155110             -11.3066
        76        2.0000           -0.4098170             -11.1517
        77        2.0000           -0.4079391             -11.1006
        78        2.0000           -0.4068329             -11.0705
        79        2.0000           -0.3997624             -10.8781
        80        2.0000           -0.3955978             -10.7648
        81        2.0000           -0.3951630             -10.7529
        82        2.0000           -0.3803139             -10.3489
        83        2.0000           -0.3734513             -10.1621
        84        2.0000           -0.3471929              -9.4476 (HOMO)
        85                         -0.2548544              -6.9349 (LUMO)
        86                         -0.2517580              -6.8507
        87                         -0.2354151              -6.4060
        88                         -0.2342449              -6.3741
        89                         -0.2308033              -6.2805
        90                         -0.2248490              -6.1185
        91                         -0.2219945              -6.0408
        92                         -0.2161825              -5.8826
        93                         -0.2015398              -5.4842
        94                         -0.1894947              -5.1564
        95                         -0.1828048              -4.9744
       ...                                ...                  ...
       167                          0.7283156              19.8185
      -------------------------------------------------------------
                  HL-Gap            0.0923385 Eh            2.5127 eV

     #   Z          covCN         q      C6AA      α(0)
     1   6 C        2.920    -0.030    28.738     8.791
     2   6 C        2.920    -0.027    28.682     8.782
     3   6 C        2.921    -0.037    28.920     8.819
     4   6 C        2.928     0.068    26.482     8.439
     5   7 N        2.754    -0.071    22.620     7.064
     6   6 C        2.925     0.060    26.649     8.466
     7   6 C        2.924    -0.059    29.458     8.901
     8   6 C        2.919    -0.034    28.840     8.807
     9   6 C        2.917    -0.045    29.111     8.848
    10   6 C        2.926    -0.036    28.905     8.817
    11   6 C        2.983    -0.009    28.239     8.717
    12   6 C        3.950     0.013    20.285     6.400
    13   6 C        3.058     0.002    27.925     8.666
    14   6 C        2.914    -0.033    28.833     8.805
    15   6 C        2.922    -0.033    28.816     8.803
    16   6 C        2.921    -0.034    28.835     8.806
    17   6 C        2.914    -0.035    28.878     8.812
    18   6 C        3.034     0.000    27.991     8.678
    19   6 C        3.034     0.000    27.991     8.678
    20   6 C        2.914    -0.035    28.878     8.812
    21   6 C        2.921    -0.034    28.835     8.806
    22   6 C        2.922    -0.033    28.816     8.803
    23   6 C        2.914    -0.033    28.833     8.805
    24   6 C        3.058     0.002    27.925     8.666
    25   6 C        2.978    -0.005    28.133     8.700
    26   6 C        2.924    -0.044    29.089     8.845
    27   6 C        2.986     0.001    27.995     8.679
    28   6 C        2.918    -0.036    28.906     8.817
    29   6 C        2.916    -0.036    28.897     8.815
    30   6 C        2.916    -0.033    28.814     8.802
    31   6 C        2.918    -0.040    29.001     8.831
    32   6 C        2.986     0.009    27.819     8.652
    33   6 C        2.924    -0.072    29.788     8.950
    34   6 C        2.922     0.060    26.655     8.466
    35   6 C        2.921    -0.037    28.920     8.819
    36   6 C        2.920    -0.027    28.682     8.782
    37   1 H        0.926     0.043     2.410     2.428
    38   1 H        0.926     0.043     2.405     2.425
    39   1 H        0.926     0.041     2.434     2.439
    40   1 H        0.926     0.029     2.597     2.520
    41   1 H        0.926     0.031     2.577     2.510
    42   1 H        0.926     0.027     2.623     2.533
    43   1 H        0.926     0.025     2.655     2.548
    44   1 H        0.926     0.025     2.659     2.550
    45   1 H        0.926     0.032     2.560     2.502
    46   1 H        0.926     0.032     2.555     2.500
    47   1 H        0.926     0.033     2.549     2.496
    48   1 H        0.926     0.033     2.549     2.496
    49   1 H        0.926     0.032     2.555     2.500
    50   1 H        0.926     0.032     2.560     2.502
    51   1 H        0.926     0.025     2.659     2.550
    52   1 H        0.925     0.027     2.627     2.535
    53   1 H        0.925     0.027     2.632     2.537
    54   1 H        0.926     0.027     2.635     2.538
    55   1 H        0.926     0.028     2.619     2.531
    56   1 H        0.925     0.028     2.618     2.530
    57   1 H        0.926     0.028     2.617     2.530
    58   1 H        0.926     0.041     2.433     2.439
    59   1 H        0.926     0.043     2.405     2.425

molecular dipole:
                 x           y           z       tot (Debye)
 q only:        0.812       0.324      -0.000
   full:        0.769       0.321      -0.000       2.117

 projected vibrational frequencies (cm⁻¹)
eigval :       -0.00    -0.00    -0.00     0.00     0.00     0.00
eigval :       -7.49    25.35    32.23    35.86    42.11    55.32
eigval :       60.85    75.40    80.94   118.07   133.44   139.13
eigval :      150.84   158.42   223.23   236.93   237.91   246.63
eigval :      251.56   277.88   283.47   303.59   318.96   372.92
eigval :      380.16   387.32   400.48   414.21   418.01   436.31
eigval :      439.27   443.41   466.06   479.01   492.26   500.80
eigval :      506.30   510.94   540.93   551.73   557.29   583.89
eigval :      591.52   594.55   595.95   598.26   620.28   658.49
eigval :      667.78   671.32   677.22   680.22   696.53   711.81
eigval :      730.53   752.78   758.09   760.09   767.39   774.36
eigval :      785.25   817.86   821.24   830.72   863.30   867.17
eigval :      873.04   875.12   876.17   877.74   885.22   895.27
eigval :      901.74   907.85   907.94   910.66   911.66   911.92
eigval :      919.93   920.42   923.09   927.09   927.69   928.08
eigval :      932.84   976.57   994.77  1004.95  1073.23  1077.08
eigval :     1077.47  1078.63  1084.55  1106.47  1114.45  1134.34
eigval :     1141.37  1143.94  1159.65  1175.84  1177.74  1178.12
eigval :     1178.42  1183.09  1184.52  1193.45  1203.12  1204.10
eigval :     1219.75  1230.42  1237.90  1249.32  1258.40  1266.18
eigval :     1272.85  1274.14  1282.86  1307.29  1308.57  1310.35
eigval :     1324.73  1330.75  1340.73  1365.50  1377.10  1408.03
eigval :     1427.89  1428.80  1430.94  1436.78  1447.54  1453.84
eigval :     1459.88  1470.01  1470.05  1485.80  1505.27  1558.16
eigval :     1579.79  1582.52  1584.79  1588.24  1592.19  1595.32
eigval :     1599.71  1603.30  1603.99  1606.92  3060.97  3062.09
eigval :     3067.88  3068.24  3069.10  3071.17  3071.28  3071.78
eigval :     3071.95  3074.85  3076.93  3078.19  3078.69  3079.34
eigval :     3082.87  3085.49  3086.77  3087.67  3088.78  3089.54
eigval :     3089.56  3096.96  3098.99

   temp. (K)  partition function   enthalpy   heat capacity  entropy
                                   cal/mol     cal/K/mol   cal/K/mol   J/K/mol
 298.15  VIB  0.222E+12            15316.878    101.743     93.551
         ROT  0.243E+08              888.752      2.981     36.776
         INT  0.538E+19            16205.631    104.724    130.327
         TR   0.947E+28             1481.254      4.968     44.231
         TOT                       17686.8845   109.6919   174.5583   730.3517

       T/K    H(0)-H(T)+PV         H(T)/Eh          T*S/Eh         G(T)/Eh
   ------------------------------------------------------------------------
    298.15    0.281858E-01    0.484764E+00    0.829383E-01    0.401826E+00
   ------------------------------------------------------------------------

         :::::::::::::::::::::::::::::::::::::::::::::::::::::
         ::                  THERMODYNAMIC                  ::
         :::::::::::::::::::::::::::::::::::::::::::::::::::::
         :: total free energy         -89.270038872928 Eh   ::
         ::.................................................::
         :: total energy              -89.671864514700 Eh   ::
         :: zero point energy           0.456578058009 Eh   ::
         :: G(RRHO) w/o ZPVE           -0.054752416237 Eh   ::
         :: G(RRHO) contrib.            0.401825641772 Eh   ::
         :::::::::::::::::::::::::::::::::::::::::::::::::::::

           -------------------------------------------------
          | TOTAL ENERGY              -89.671864514700 Eh   |
          | TOTAL ENTHALPY            -89.187100612202 Eh   |
          | TOTAL FREE ENERGY         -89.270038872928 Eh   |
          | GRADIENT NORM               0.000025587888 Eh/α |
          | HOMO-LUMO GAP               2.512658405013 eV   |
           -------------------------------------------------

 * finished run on 2025/09/05 at 09:22:09.371
