   * xtb version 6.7.1 (edcfbbe) compiled by 'albert@albert-system' on 2024-07-22

   ID    Z sym.   atoms
    1    6 C      1-4, 6-36
    2    7 N      5
    3    1 H      37-59

          program call               : xtb data2507/toluene/SPBAC-PH/SPBAC-PH_toluene_S0_finalOpt.xtbopt.xyz --gfn 2 --uhf 2 --gbsa toluene --ohess vtight --parallel 40 --molden --ceasefiles --namespace data2507/toluene/SPBAC-PH/SPBAC-PH_toluene_T1_preOpt
      * Solvation model:               GBSA
        Solvent                        toluene
        Solvent mass                       9.2140E+01 g/mol
          :  Hamiltonian                  GFN2-xTB          :
 * total energy  :   -89.5701474 Eh     change       -0.4376247E-08 Eh
 * total energy  :   -89.5751272 Eh     change       -0.4979838E-02 Eh
 * total energy  :   -89.5765319 Eh     change       -0.1404680E-02 Eh
 * total energy  :   -89.5766255 Eh     change       -0.9360383E-04 Eh
 * total energy  :   -89.5766585 Eh     change       -0.3295523E-04 Eh
 * total energy  :   -89.5766638 Eh     change       -0.5304448E-05 Eh
 * total energy  :   -89.5766654 Eh     change       -0.1638495E-05 Eh
 * total energy  :   -89.5766665 Eh     change       -0.1049483E-05 Eh
 * total energy  :   -89.5766670 Eh     change       -0.5839620E-06 Eh
 * total energy  :   -89.5766676 Eh     change       -0.5288897E-06 Eh
 * total energy  :   -89.5766687 Eh     change       -0.1780595E-06 Eh
 * total energy  :   -89.5766690 Eh     change       -0.2485122E-06 Eh
 * total energy  :   -89.5766693 Eh     change       -0.3225644E-06 Eh
 * total energy  :   -89.5766697 Eh     change       -0.3813308E-06 Eh
 * total energy  :   -89.5766699 Eh     change       -0.2672989E-06 Eh
 * total energy  :   -89.5766701 Eh     change       -0.1943728E-06 Eh
 * total energy  :   -89.5766703 Eh     change       -0.1960782E-06 Eh
 * total energy  :   -89.5766706 Eh     change       -0.2417200E-06 Eh
 * total energy  :   -89.5766706 Eh     change       -0.1736365E-07 Eh
   *** GEOMETRY OPTIMIZATION CONVERGED AFTER 22 ITERATIONS ***

 final structure:
================
59
 xtb: 6.7.1 (edcfbbe)
C            5.87326675379699        1.35065824183596        0.00845364713340
C            5.17966320701273        1.27448892394097       -1.18842932734334
C            3.80576177736857        1.10621654839380       -1.18679848388359
C            3.12684179382708        1.01363220314282        0.02128530317877
N            1.71080036426674        0.83778204510469        0.02704810874336
C            0.90473956769708        1.95312610244510        0.05400884054057
C            1.47061643592070        3.23910965442378        0.08255510616059
C            0.67057398457517        4.35774194310101        0.11156556124957
C           -0.71373077422540        4.22873637029792        0.11201184631494
C           -1.27976422124727        2.96526887317061        0.08176616918315
C           -0.49681939064782        1.82304267437980        0.05256784960917
C           -1.16862828051825        0.47479632702803        0.01219226607319
C           -2.14637000609381        0.32897693617066        1.16439504930812
C           -1.87722151225945        0.32336217796142        2.51490734067275
C           -2.93473114500264        0.16871102075301        3.40271764875786
C           -4.23430053131098        0.02505748562261        2.93919465025131
C           -4.51003528709611        0.02903201902624        1.58118836342036
C           -3.45873468942880        0.18144605814789        0.69040766049914
C           -3.43232073893994        0.21680409253598       -0.76276660870021
C           -4.45028663039264        0.10908594663906       -1.69769810233696
C           -4.12534942873054        0.17223515848617       -3.04331765825493
C           -2.81017687541427        0.33934706434531       -3.45159557639869
C           -1.78578538569633        0.44862145468608       -2.51927522504137
C           -2.10385622924007        0.38601193305943       -1.18095816163139
C           -0.17729726517678       -0.66430830239860        0.00180584276228
C           -0.65713372713725       -1.96888663923504       -0.01614460619255
C            0.20810873386946       -3.09529888358265       -0.02757773201878
C           -0.26192404666719       -4.40111559608418       -0.04244210541025
C            0.63559752673249       -5.49609575836377       -0.05333610727687
C            1.99164008909308       -5.28145251337680       -0.04916931512150
C            2.49597564060720       -3.97716970651085       -0.03397456480030
C            1.62072649956379       -2.86382127715975       -0.02262040657671
C            2.09496027348747       -1.55951646473006       -0.00649948565441
C            1.19080997806574       -0.43305541684755        0.00669564743917
C            3.81886719545457        1.09109882961057        1.22303620447457
C            5.19269593495960        1.25933771663035        1.21183506344505
H            6.94499992670607        1.48025809803179        0.00344191626029
H            5.70783652799997        1.34367142356815       -2.12741821582594
H            3.25530416804165        1.04199093289608       -2.11366649681702
H            2.54406019727538        3.34698861678466        0.08215233425752
H            1.12377177779647        5.33740771484018        0.13365896485047
H           -1.34414811582632        5.10406604339112        0.13466694310467
H           -2.35486401872394        2.85811139106190        0.07990438349805
H           -0.86525408946573        0.43172367058739        2.87845733320156
H           -2.74239612362774        0.15895263962200        4.46580740911777
H           -5.04195584128407       -0.09332141297300        3.64752977470841
H           -5.52355300975992       -0.08565871911888        1.22557007707445
H           -5.47586936074990       -0.02271931254120       -1.38517132020298
H           -4.90654834314656        0.08917800826579       -3.78552407019796
H           -2.57957207243534        0.38311650875064       -4.50621129853742
H           -0.76154083923664        0.57587259304641       -2.83982551582597
H           -1.72349107883910       -2.13911191709130       -0.02088835178302
H           -1.32660422229011       -4.58547360639621       -0.04571505388276
H            0.23786378274320       -6.50077629139784       -0.06489327438207
H            2.67836168864744       -6.11600622565630       -0.05747945402073
H            3.56231011052690       -3.80540405086206       -0.03053537498527
H            3.15829283036440       -1.38213269360868       -0.00102958218717
H            3.27840867923016        1.01511082641030        2.15490360727924
H            5.73115378065082        1.31640336285155        2.14578649944756

          :  Hamiltonian                  GFN2-xTB          :
         :: gradient norm              0.000054558932 Eh/a0 ::
         :: HOMO-LUMO gap              0.181012121368 eV    ::
         :: SCC energy               -91.282972130555 Eh    ::
         :: -> dispersion             -0.087261959826 Eh    ::
         :: -> Gsolv                  -0.036903939184 Eh    ::
         :: repulsion energy           1.706301546115 Eh    ::

    * Orbital Energies and Occupations

         #    Occupation            Energy/Eh            Energy/eV
      -------------------------------------------------------------
         1        2.0000           -0.6824354             -18.5700
       ...           ...                  ...                  ...
        73        2.0000           -0.4179669             -11.3735
        74        2.0000           -0.4147486             -11.2859
        75        2.0000           -0.4139741             -11.2648
        76        2.0000           -0.4127873             -11.2325
        77        2.0000           -0.4053592             -11.0304
        78        2.0000           -0.4046464             -11.0110
        79        2.0000           -0.4017645             -10.9326
        80        2.0000           -0.3984124             -10.8414
        81        2.0000           -0.3936518             -10.7118
        82        2.0000           -0.3782859             -10.2937
        83        1.9998           -0.3649092              -9.9297
        84        1.0002           -0.3490955              -9.4994
        85        0.9707           -0.2571073              -6.9962 (HOMO)
        86        0.0293           -0.2504546              -6.8152 (LUMO)
        87        0.0000           -0.2417303              -6.5778
        88        0.0000           -0.2398017              -6.5253
        89                         -0.2305241              -6.2729
        90                         -0.2284945              -6.2177
        91                         -0.2233390              -6.0774
        92                         -0.2151902              -5.8556
        93                         -0.2025230              -5.5109
        94                         -0.1879352              -5.1140
        95                         -0.1798518              -4.8940
        96                         -0.1354956              -3.6870
       ...                                ...                  ...
       167                          0.7296236              19.8541
      -------------------------------------------------------------
                  HL-Gap            0.0066526 Eh            0.1810 eV

     #   Z          covCN         q      C6AA      α(0)
     1   6 C        2.919    -0.027    28.676     8.781
     2   6 C        2.920    -0.025    28.623     8.773
     3   6 C        2.921    -0.034    28.849     8.808
     4   6 C        2.931     0.065    26.547     8.450
     5   7 N        2.753    -0.015    21.534     6.892
     6   6 C        2.930     0.053    26.803     8.490
     7   6 C        2.920    -0.051    29.260     8.870
     8   6 C        2.917    -0.031    28.771     8.796
     9   6 C        2.917    -0.037    28.916     8.818
    10   6 C        2.923    -0.033    28.828     8.805
    11   6 C        2.980     0.001    28.008     8.681
    12   6 C        3.949     0.013    20.287     6.400
    13   6 C        3.057     0.002    27.931     8.667
    14   6 C        2.914    -0.034    28.845     8.807
    15   6 C        2.922    -0.034    28.852     8.809
    16   6 C        2.921    -0.034    28.844     8.807
    17   6 C        2.914    -0.036    28.902     8.816
    18   6 C        3.033    -0.001    28.009     8.681
    19   6 C        3.033    -0.000    28.008     8.681
    20   6 C        2.914    -0.036    28.901     8.815
    21   6 C        2.921    -0.034    28.844     8.807
    22   6 C        2.922    -0.034    28.853     8.809
    23   6 C        2.914    -0.034    28.849     8.807
    24   6 C        3.057     0.002    27.932     8.667
    25   6 C        2.970    -0.016    28.412     8.743
    26   6 C        2.921    -0.068    29.701     8.937
    27   6 C        2.975     0.008    27.843     8.655
    28   6 C        2.916    -0.059    29.465     8.901
    29   6 C        2.912    -0.033    28.818     8.803
    30   6 C        2.908    -0.042    29.034     8.835
    31   6 C        2.918    -0.053    29.325     8.880
    32   6 C        2.975     0.011    27.769     8.644
    33   6 C        2.918    -0.067    29.657     8.930
    34   6 C        2.923     0.045    26.995     8.520
    35   6 C        2.921    -0.034    28.851     8.808
    36   6 C        2.920    -0.025    28.624     8.774
    37   1 H        0.926     0.048     2.346     2.395
    38   1 H        0.926     0.049     2.333     2.389
    39   1 H        0.926     0.046     2.373     2.409
    40   1 H        0.926     0.040     2.452     2.449
    41   1 H        0.926     0.040     2.444     2.445
    42   1 H        0.926     0.037     2.485     2.465
    43   1 H        0.926     0.033     2.541     2.493
    44   1 H        0.926     0.024     2.672     2.556
    45   1 H        0.926     0.030     2.581     2.512
    46   1 H        0.926     0.031     2.579     2.511
    47   1 H        0.926     0.031     2.577     2.510
    48   1 H        0.926     0.031     2.576     2.510
    49   1 H        0.926     0.031     2.578     2.511
    50   1 H        0.926     0.030     2.580     2.512
    51   1 H        0.926     0.024     2.675     2.557
    52   1 H        0.926     0.011     2.872     2.650
    53   1 H        0.926     0.012     2.853     2.642
    54   1 H        0.926     0.018     2.758     2.597
    55   1 H        0.926     0.018     2.767     2.601
    56   1 H        0.926     0.019     2.747     2.592
    57   1 H        0.926     0.029     2.593     2.518
    58   1 H        0.926     0.046     2.370     2.408
    59   1 H        0.926     0.049     2.333     2.389

molecular dipole:
                 x           y           z       tot (Debye)
 q only:        1.394       1.842       0.025
   full:        1.332       1.780       0.024       5.650

 projected vibrational frequencies (cm⁻¹)
eigval :       -0.00    -0.00    -0.00     0.00     0.00     0.00
eigval :        9.48    21.67    32.13    33.03    42.16    54.75
eigval :       58.70    76.63    79.97   118.80   131.80   133.39
eigval :      148.21   156.85   218.31   222.87   234.96   242.32
eigval :      248.21   257.67   277.34   290.22   311.57   366.25
eigval :      371.91   385.43   388.83   398.58   408.43   413.91
eigval :      433.41   442.29   454.36   477.93   480.72   488.86
eigval :      501.71   513.74   534.26   546.38   548.41   558.03
eigval :      575.51   588.85   593.39   594.01   614.99   619.26
eigval :      667.25   669.25   672.44   676.83   678.67   689.32
eigval :      693.59   717.12   726.77   752.00   755.30   759.42
eigval :      764.05   765.17   780.19   782.11   803.34   816.35
eigval :      828.11   857.72   869.66   872.00   873.56   873.96
eigval :      884.38   888.87   901.47   904.25   904.84   909.77
eigval :      911.53   911.82   913.99   923.84   924.87   926.91
eigval :      933.93   955.41   993.68  1002.70  1063.06  1071.92
eigval :     1075.09  1077.27  1079.15  1091.40  1098.94  1115.31
eigval :     1127.48  1140.32  1141.54  1158.43  1174.45  1175.08
eigval :     1177.27  1177.78  1179.59  1186.22  1192.94  1198.23
eigval :     1200.74  1207.74  1214.34  1238.74  1256.79  1257.30
eigval :     1265.52  1273.63  1275.64  1279.12  1290.09  1306.74
eigval :     1310.03  1325.22  1335.37  1337.25  1363.69  1369.42
eigval :     1406.49  1421.82  1425.47  1426.30  1427.84  1429.42
eigval :     1450.39  1456.61  1459.07  1462.94  1463.96  1474.15
eigval :     1487.28  1514.69  1525.68  1555.65  1575.55  1580.27
eigval :     1581.01  1589.01  1589.59  1599.30  3059.95  3065.00
eigval :     3066.22  3066.75  3069.26  3069.83  3072.03  3076.92
eigval :     3077.93  3079.34  3080.21  3081.92  3083.07  3083.51
eigval :     3083.70  3085.57  3087.31  3090.11  3094.26  3096.39
eigval :     3101.08  3102.49  3103.77

   temp. (K)  partition function   enthalpy   heat capacity  entropy
                                   cal/mol     cal/K/mol   cal/K/mol   J/K/mol
 298.15  VIB  0.341E+12            15659.727    103.799     95.377
         ROT  0.244E+08              888.752      2.981     36.784
         INT  0.832E+19            16548.479    106.780    132.162
         TR   0.947E+28             1481.254      4.968     44.231
         TOT                       18029.7329   111.7479   176.3925   738.0263

       T/K    H(0)-H(T)+PV         H(T)/Eh          T*S/Eh         G(T)/Eh
   ------------------------------------------------------------------------
    298.15    0.287322E-01    0.480777E+00    0.838098E-01    0.396967E+00
   ------------------------------------------------------------------------

         :::::::::::::::::::::::::::::::::::::::::::::::::::::
         ::                  THERMODYNAMIC                  ::
         :::::::::::::::::::::::::::::::::::::::::::::::::::::
         :: total free energy         -89.179703098644 Eh   ::
         ::.................................................::
         :: total energy              -89.576670583219 Eh   ::
         :: zero point energy           0.452045052656 Eh   ::
         :: G(RRHO) w/o ZPVE           -0.055077568082 Eh   ::
         :: G(RRHO) contrib.            0.396967484575 Eh   ::
         :::::::::::::::::::::::::::::::::::::::::::::::::::::

           -------------------------------------------------
          | TOTAL ENERGY              -89.576670583219 Eh   |
          | TOTAL ENTHALPY            -89.095893322354 Eh   |
          | TOTAL FREE ENERGY         -89.179703098644 Eh   |
          | GRADIENT NORM               0.000054610366 Eh/α |
          | HOMO-LUMO GAP               0.181027553710 eV   |
           -------------------------------------------------

 * finished run on 2025/09/05 at 09:24:37.736
