   * xtb version 6.7.1 (edcfbbe) compiled by 'albert@albert-system' on 2024-07-22

   ID    Z sym.   atoms
    1    6 C      1-4, 6-17, 19, 21, 22, 24, 26-39
    2    7 N      5, 18, 20, 23, 25
    3    1 H      40-60

          program call               : xtb data2507/toluene/TPA-APm/TPA-APm_toluene_T1_crest.xyz --gfn 2 --uhf 2 --gbsa toluene --ohess vtight --parallel 40 --molden --ceasefiles --namespace data2507/toluene/TPA-APm/TPA-APm_toluene_T1_finalOpt
      * Solvation model:               GBSA
        Solvent                        toluene
        Solvent mass                       9.2140E+01 g/mol
          :  Hamiltonian                  GFN2-xTB          :
 * total energy  :   -98.1666071 Eh     change       -0.3123390E-08 Eh
 * total energy  :   -98.1666754 Eh     change       -0.6835993E-04 Eh
 * total energy  :   -98.1666982 Eh     change       -0.2279270E-04 Eh
 * total energy  :   -98.1667041 Eh     change       -0.5846366E-05 Eh
 * total energy  :   -98.1667114 Eh     change       -0.7312217E-05 Eh
 * total energy  :   -98.1667188 Eh     change       -0.7423505E-05 Eh
 * total energy  :   -98.1667269 Eh     change       -0.8095136E-05 Eh
 * total energy  :   -98.1667324 Eh     change       -0.5533651E-05 Eh
 * total energy  :   -98.1667356 Eh     change       -0.3155240E-05 Eh
 * total energy  :   -98.1667387 Eh     change       -0.3074460E-05 Eh
 * total energy  :   -98.1667457 Eh     change       -0.8566448E-06 Eh
 * total energy  :   -98.1667468 Eh     change       -0.1043066E-05 Eh
 * total energy  :   -98.1667480 Eh     change       -0.1232593E-05 Eh
 * total energy  :   -98.1667492 Eh     change       -0.1144437E-05 Eh
 * total energy  :   -98.1667502 Eh     change       -0.1063267E-05 Eh
 * total energy  :   -98.1667513 Eh     change       -0.1106418E-05 Eh
 * total energy  :   -98.1667525 Eh     change       -0.1126679E-05 Eh
 * total energy  :   -98.1667534 Eh     change       -0.9448551E-06 Eh
 * total energy  :   -98.1667534 Eh     change       -0.3244052E-07 Eh
   *** GEOMETRY OPTIMIZATION CONVERGED AFTER 22 ITERATIONS ***

 final structure:
================
60
 xtb: 6.7.1 (edcfbbe)
C           -6.49364378398836       -4.13243019413874       -0.56730872265131
C           -5.50149450267695       -3.59872270391977       -1.37425901074552
C           -5.07364837802711       -2.29762722759216       -1.18911674258021
C           -5.63349508509397       -1.51385754322583       -0.18122980193825
N           -5.21238484881275       -0.18635946299164        0.00793024351838
C           -6.17774469749785        0.79242695212098        0.29984746073990
C           -7.41087103739433        0.77617257239852       -0.34990858612921
C           -8.36640635906878        1.72864871358320       -0.04996748293444
C           -8.10582976454810        2.71063861688847        0.89226603248750
C           -6.88071912628728        2.73085929770779        1.53964907635326
C           -5.92186699798245        1.77791206668793        1.25230326832951
C           -3.87155105496952        0.14902315446400       -0.08157336204241
C           -2.87359088128595       -0.76798446160896        0.27330370774969
C           -1.54626311044243       -0.42534395199428        0.18908260910216
C           -1.14660824080558        0.84494715283078       -0.25099905107374
C            0.26708428803518        1.15750868421859       -0.31425386661362
C            0.78328213130853        2.41419617256062       -0.62457782320832
N            2.08460293746835        2.64909994911745       -0.66505383507725
C            2.95905411497351        1.69854410117734       -0.41154886691276
N            4.25617256461687        1.90828870991243       -0.44845647743640
C            5.08489349527075        0.90828969330854       -0.18044288683055
C            4.58654165522955       -0.38330007804747        0.14683958664114
N            3.28597308675636       -0.62626351390798        0.19246433554619
C            2.43318875982751        0.34856590465045       -0.07180455124416
N            1.14248593565014        0.16797588335528       -0.04535848682168
C            5.71253957791895       -1.26472733035147        0.38232646641750
C            5.87685768607103       -2.58676336009944        0.72044166206384
C            7.18887595756949       -3.08173188100705        0.85147349811199
C            8.30562445357182       -2.30327128890871        0.65774907555440
C            8.17242522094514       -0.93779344452694        0.31047407086179
C            9.19622718344829        0.01026697651905        0.07238294679354
C            8.87706917386203        1.30555117576868       -0.26010236713552
C            7.55004730093158        1.76180482672876       -0.38222258161541
C            6.53189400453867        0.86612718263419       -0.15809171354332
C            6.86653250137441       -0.46709778869602        0.18563044810990
C           -2.14712475274112        1.75516367527074       -0.61278723804796
C           -3.47720033899889        1.41612161180529       -0.53030697621907
C           -6.63054224338520       -2.05455314594383        0.62900264721340
C           -7.05653937173893       -3.35444955304530        0.43164461904232
H           -6.82665322913426       -5.14834091956597       -0.71706646605760
H           -5.06257679286164       -4.19603647564692       -2.15995012864151
H           -4.30773532884867       -1.87878398280224       -1.82548474203480
H           -7.61194835493571        0.01448662733640       -1.08888562362007
H           -9.31757910751566        1.70759382981721       -0.56115942026853
H           -8.85346748460071        3.45464657114260        1.12227098478674
H           -6.67227840003182        3.48824604936359        2.28106320829709
H           -4.97188550706385        1.78669672997084        1.76655596537642
H           -3.15433852937726       -1.74779931032770        0.62957947479524
H           -0.78122442641017       -1.13054245009242        0.47547642684767
H            0.15471619080218        3.26322497603106       -0.84052631538209
H            5.03033204752132       -3.23655466319263        0.88195125507704
H            7.31331520674967       -4.12159926766076        1.11650370967653
H            9.29117982791952       -2.73021571295765        0.76954452169339
H           10.23004845199011       -0.29092535442594        0.15327070932049
H            9.67359783497126        2.01341589693542       -0.43771920885646
H            7.34891272537371        2.78878886578971       -0.64654781492282
H           -1.88584796700106        2.73504926778213       -0.98034628960717
H           -4.23068011763490        2.13060922119245       -0.82639224725734
H           -7.06479498456796       -1.45013887751422        1.41185744328385
H           -7.82789955146641       -3.76398643607912        1.06712114995829

          :  Hamiltonian                  GFN2-xTB          :
         :: gradient norm              0.000093998592 Eh/a0 ::
         :: HOMO-LUMO gap              0.519342965205 eV    ::
         :: SCC energy               -99.942442660636 Eh    ::
         :: -> dispersion             -0.081236159844 Eh    ::
         :: -> Gsolv                  -0.050979322050 Eh    ::
         :: repulsion energy           1.775689224855 Eh    ::

    * Orbital Energies and Occupations

         #    Occupation            Energy/Eh            Energy/eV
      -------------------------------------------------------------
         1        2.0000           -0.6969103             -18.9639
       ...           ...                  ...                  ...
        80        2.0000           -0.4280795             -11.6486
        81        2.0000           -0.4219498             -11.4818
        82        2.0000           -0.4179077             -11.3718
        83        2.0000           -0.4174520             -11.3594
        84        2.0000           -0.4129399             -11.2367
        85        2.0000           -0.4103101             -11.1651
        86        2.0000           -0.4095129             -11.1434
        87        2.0000           -0.4052761             -11.0281
        88        2.0000           -0.4032357             -10.9726
        89        2.0000           -0.4007580             -10.9052
        90        1.9971           -0.3591167              -9.7721
        91        1.0029           -0.3480165              -9.4700
        92        1.0000           -0.3258760              -8.8675 (HOMO)
        93        0.0000           -0.3067905              -8.3482 (LUMO)
        94                         -0.2671566              -7.2697
        95                         -0.2458732              -6.6906
        96                         -0.2422403              -6.5917
        97                         -0.2356071              -6.4112
        98                         -0.2337181              -6.3598
        99                         -0.2284757              -6.2171
       100                         -0.2265908              -6.1659
       101                         -0.2254698              -6.1353
       102                         -0.2046933              -5.5700
       103                         -0.1903542              -5.1798
       ...                                ...                  ...
       177                          0.7183439              19.5471
      -------------------------------------------------------------
                  HL-Gap            0.0190855 Eh            0.5193 eV

     #   Z          covCN         q      C6AA      α(0)
     1   6 C        2.919    -0.036    28.884     8.813
     2   6 C        2.919    -0.029    28.715     8.787
     3   6 C        2.922    -0.046    29.131     8.851
     4   6 C        2.925     0.062    26.602     8.458
     5   7 N        2.752    -0.062    22.444     7.036
     6   6 C        2.925     0.062    26.602     8.458
     7   6 C        2.922    -0.045    29.112     8.848
     8   6 C        2.919    -0.028    28.708     8.786
     9   6 C        2.919    -0.036    28.886     8.814
    10   6 C        2.919    -0.029    28.717     8.788
    11   6 C        2.922    -0.046    29.137     8.852
    12   6 C        2.922     0.069    26.453     8.434
    13   6 C        2.919    -0.048    29.198     8.861
    14   6 C        2.925    -0.028    28.690     8.784
    15   6 C        2.975    -0.009    28.237     8.716
    16   6 C        2.931     0.076    26.295     8.410
    17   6 C        2.887     0.033    27.254     8.559
    18   7 N        1.846    -0.244    27.230     7.734
    19   6 C        2.930     0.190    23.943     8.025
    20   7 N        1.843    -0.254    27.462     7.766
    21   6 C        3.050     0.072    26.345     8.418
    22   6 C        3.046     0.077    26.232     8.400
    23   7 N        1.844    -0.260    27.614     7.788
    24   6 C        2.914     0.195    23.848     8.008
    25   7 N        1.857    -0.253    27.439     7.764
    26   6 C        3.037    -0.010    28.221     8.713
    27   6 C        2.912    -0.019    28.476     8.750
    28   6 C        2.918    -0.027    28.678     8.782
    29   6 C        2.918    -0.027    28.666     8.780
    30   6 C        2.976     0.019    27.579     8.614
    31   6 C        2.918    -0.027    28.688     8.783
    32   6 C        2.918    -0.027    28.675     8.781
    33   6 C        2.912    -0.020    28.498     8.754
    34   6 C        3.036    -0.009    28.219     8.713
    35   6 C        3.150    -0.016    28.131     8.675
    36   6 C        2.920    -0.036    28.891     8.814
    37   6 C        2.920    -0.049    29.208     8.863
    38   6 C        2.922    -0.045    29.113     8.848
    39   6 C        2.919    -0.028    28.709     8.786
    40   1 H        0.926     0.038     2.481     2.463
    41   1 H        0.926     0.038     2.474     2.460
    42   1 H        0.926     0.035     2.517     2.481
    43   1 H        0.926     0.037     2.489     2.467
    44   1 H        0.926     0.039     2.462     2.454
    45   1 H        0.926     0.037     2.484     2.464
    46   1 H        0.926     0.038     2.476     2.461
    47   1 H        0.926     0.035     2.519     2.482
    48   1 H        0.926     0.045     2.386     2.416
    49   1 H        0.926     0.051     2.309     2.376
    50   1 H        0.926     0.057     2.238     2.339
    51   1 H        0.926     0.051     2.308     2.376
    52   1 H        0.926     0.055     2.257     2.349
    53   1 H        0.926     0.058     2.225     2.333
    54   1 H        0.926     0.057     2.232     2.336
    55   1 H        0.926     0.054     2.265     2.354
    56   1 H        0.926     0.050     2.322     2.383
    57   1 H        0.926     0.038     2.478     2.462
    58   1 H        0.926     0.045     2.386     2.415
    59   1 H        0.926     0.037     2.491     2.468
    60   1 H        0.926     0.039     2.461     2.453

molecular dipole:
                 x           y           z       tot (Debye)
 q only:       -0.557      -0.962       0.248
   full:       -0.567      -0.836       0.213       2.625

 projected vibrational frequencies (cm⁻¹)
eigval :       -0.00    -0.00    -0.00    -0.00     0.00     0.00
eigval :       -6.35    11.76    25.53    36.54    42.05    49.12
eigval :       56.02    68.44    72.51    88.66    97.75   133.96
eigval :      139.61   151.95   163.02   165.55   203.84   214.88
eigval :      234.36   249.94   274.14   286.30   297.17   314.98
eigval :      346.39   352.40   376.26   379.14   384.38   394.10
eigval :      399.83   406.92   415.48   430.28   437.50   465.31
eigval :      472.91   481.51   483.19   496.38   501.53   537.34
eigval :      548.66   568.84   573.78   582.14   585.73   587.68
eigval :      592.36   594.96   598.66   613.63   641.72   659.29
eigval :      660.98   665.84   670.01   678.92   680.79   700.69
eigval :      723.36   729.36   757.31   760.57   769.80   782.04
eigval :      789.88   797.36   807.74   811.92   854.37   874.32
eigval :      874.82   884.73   886.01   888.77   891.65   895.45
eigval :      897.10   908.96   911.08   914.87   922.08   922.52
eigval :      926.69   927.07   929.32   929.90   932.07   966.60
eigval :      985.81  1004.37  1015.50  1050.41  1078.24  1080.86
eigval :     1082.11  1093.96  1113.31  1119.16  1120.13  1121.31
eigval :     1140.24  1166.59  1174.15  1177.00  1177.72  1182.46
eigval :     1189.59  1192.29  1192.73  1202.33  1213.89  1227.45
eigval :     1235.98  1267.90  1274.27  1275.68  1279.38  1283.13
eigval :     1300.76  1311.70  1314.85  1322.46  1323.84  1328.88
eigval :     1334.26  1355.71  1362.30  1375.35  1393.56  1406.86
eigval :     1421.94  1433.38  1436.60  1438.70  1454.22  1465.86
eigval :     1469.15  1472.72  1481.13  1504.34  1512.19  1527.36
eigval :     1539.83  1575.18  1576.22  1579.49  1584.22  1589.32
eigval :     1595.74  1599.23  1608.72  3074.72  3075.28  3076.11
eigval :     3076.96  3078.92  3079.72  3084.29  3084.70  3085.58
eigval :     3087.00  3087.92  3088.38  3088.63  3089.24  3090.08
eigval :     3096.22  3096.28  3096.82  3097.83  3099.39  3101.10

   temp. (K)  partition function   enthalpy   heat capacity  entropy
                                   cal/mol     cal/K/mol   cal/K/mol   J/K/mol
 298.15  VIB  0.847E+13            16801.844    109.411    103.865
         ROT  0.589E+08              888.752      2.981     38.536
         INT  0.499E+21            17690.596    112.392    142.401
         TR   0.108E+29             1481.254      4.968     44.493
         TOT                       19171.8501   117.3604   186.8938   781.9638

       T/K    H(0)-H(T)+PV         H(T)/Eh          T*S/Eh         G(T)/Eh
   ------------------------------------------------------------------------
    298.15    0.305523E-01    0.476542E+00    0.887993E-01    0.387743E+00
   ------------------------------------------------------------------------

         :::::::::::::::::::::::::::::::::::::::::::::::::::::
         ::                  THERMODYNAMIC                  ::
         :::::::::::::::::::::::::::::::::::::::::::::::::::::
         :: total free energy         -97.779010631975 Eh   ::
         ::.................................................::
         :: total energy              -98.166753437156 Eh   ::
         :: zero point energy           0.445989804608 Eh   ::
         :: G(RRHO) w/o ZPVE           -0.058246999427 Eh   ::
         :: G(RRHO) contrib.            0.387742805181 Eh   ::
         :::::::::::::::::::::::::::::::::::::::::::::::::::::

           -------------------------------------------------
          | TOTAL ENERGY              -98.166753437156 Eh   |
          | TOTAL ENTHALPY            -97.690211344632 Eh   |
          | TOTAL FREE ENERGY         -97.779010631975 Eh   |
          | GRADIENT NORM               0.000093846180 Eh/α |
          | HOMO-LUMO GAP               0.519342642718 eV   |
           -------------------------------------------------

 * finished run on 2025/08/22 at 23:19:58.434
