   * xtb version 6.7.1 (edcfbbe) compiled by 'albert@albert-system' on 2024-07-22

   ID    Z sym.   atoms
    1    6 C      1-4, 6-17, 19, 21, 22, 24, 26-39
    2    7 N      5, 18, 20, 23, 25
    3    1 H      40-60

          program call               : xtb data2507/toluene/TPA-APm/TPA-APm_toluene_S0_finalOpt.xtbopt.xyz --gfn 2 --uhf 2 --gbsa toluene --ohess vtight --parallel 40 --molden --ceasefiles --namespace data2507/toluene/TPA-APm/TPA-APm_toluene_T1_preOpt
      * Solvation model:               GBSA
        Solvent                        toluene
        Solvent mass                       9.2140E+01 g/mol
          :  Hamiltonian                  GFN2-xTB          :
 * total energy  :   -98.1583277 Eh     change       -0.3426770E-07 Eh
 * total energy  :   -98.1634610 Eh     change       -0.5133312E-02 Eh
 * total energy  :   -98.1661968 Eh     change       -0.2735815E-02 Eh
 * total energy  :   -98.1664953 Eh     change       -0.2984528E-03 Eh
 * total energy  :   -98.1666160 Eh     change       -0.1207030E-03 Eh
 * total energy  :   -98.1666227 Eh     change       -0.6763998E-05 Eh
 * total energy  :   -98.1666272 Eh     change       -0.4464862E-05 Eh
 * total energy  :   -98.1666359 Eh     change       -0.8675562E-05 Eh
 * total energy  :   -98.1666430 Eh     change       -0.7102142E-05 Eh
 * total energy  :   -98.1666473 Eh     change       -0.4354319E-05 Eh
 * total energy  :   -98.1667409 Eh     change       -0.8560842E-06 Eh
 * total energy  :   -98.1667419 Eh     change       -0.9465550E-06 Eh
 * total energy  :   -98.1667428 Eh     change       -0.9247499E-06 Eh
 * total energy  :   -98.1667436 Eh     change       -0.8590343E-06 Eh
 * total energy  :   -98.1667444 Eh     change       -0.7576439E-06 Eh
 * total energy  :   -98.1667450 Eh     change       -0.5973151E-06 Eh
 * total energy  :   -98.1667454 Eh     change       -0.4130137E-06 Eh
 * total energy  :   -98.1667458 Eh     change       -0.4047698E-06 Eh
 * total energy  :   -98.1667458 Eh     change       -0.2934215E-08 Eh
   *** GEOMETRY OPTIMIZATION CONVERGED AFTER 68 ITERATIONS ***

 final structure:
================
60
 xtb: 6.7.1 (edcfbbe)
C           -6.46101192919994       -4.15321567989267       -0.40628137104734
C           -5.46046290152766       -3.65074498921094       -1.22287364440188
C           -5.04311584524681       -2.33964797951901       -1.09195502429381
C           -5.62188209782214       -1.51453233850413       -0.12890362063981
N           -5.21132535600242       -0.17661446851291        0.00507255152996
C           -6.18944562091981        0.80967012515113        0.21779035925929
C           -7.40832697198947        0.74352355600716       -0.45550977492982
C           -8.37728152363327        1.70378865172119       -0.23404316809633
C           -8.14464225133421        2.74315521550834        0.65225693876605
C           -6.93374144308919        2.81335854705322        1.32247895746276
C           -5.96171104173691        1.85323567385475        1.11394018194307
C           -3.87073012483496        0.16060952588614       -0.07775443822153
C           -2.87583855336592       -0.73571537910454        0.33439635822654
C           -1.54794278828806       -0.39546803012440        0.24969407215377
C           -1.14456364011720        0.85279004262352       -0.24633183400620
C            0.26957759430596        1.16155954796128       -0.31687936894601
C            0.78736342530080        2.40614292080699       -0.67027202838315
N            2.08915229761955        2.63422302411646       -0.73067498321176
C            2.96226490080633        1.68890212480277       -0.45424206055072
N            4.25975591396571        1.88876953850490       -0.52121015304816
C            5.08718013637955        0.89587968813230       -0.22439578360352
C            4.58718072699317       -0.37591980671575        0.17086009649984
N            3.28614667098298       -0.60920485121070        0.24580507173329
C            2.43459333020903        0.35633514252864       -0.05402331704420
N            1.14353166768722        0.18072006604061       -0.01379523389784
C            5.71207998154146       -1.25292842026965        0.42722470236935
C            5.87473538334135       -2.55845186979338        0.82505816187999
C            7.18591203195173       -3.05641233947758        0.95307121178206
C            8.30351335945985       -2.29681948842369        0.69876329679859
C            8.17202583231028       -0.94870836364903        0.28862522408413
C            9.19682398652056       -0.02127549158551       -0.01699961174564
C            8.87934358115869        1.25967526361933       -0.40239217841600
C            7.55316273317010        1.72041591169781       -0.51642854082059
C            6.53402147254061        0.84404942187940       -0.22922619341159
C            6.86697202348716       -0.47421543234310        0.16946676925996
C           -2.14184771356186        1.74373150370645       -0.66106168123931
C           -3.47243156401520        1.40657885630739       -0.57932603847651
C           -6.62743006359769       -2.02360950161174        0.69107108016613
C           -7.04306772984412       -3.33390954302742        0.54763746906713
H           -6.78584678592182       -5.17710209919902       -0.51379165662874
H           -5.00668158692732       -4.28080097896125       -1.97376262425940
H           -4.27100737472583       -1.94476874151642       -1.73621823877419
H           -7.58792493996603       -0.06257289853428       -1.15166470236511
H           -9.31700671079201        1.64321023497502       -0.76298054189174
H           -8.90254958865769        3.49331672271382        0.82051924280418
H           -6.74673910751974        3.61633538356126        2.02039039608153
H           -5.02296955064460        1.90243233588048        1.64631186786273
H           -3.15964046020586       -1.69797671446889        0.73347259682558
H           -0.78558953589355       -1.08535716729728        0.57764266464734
H            0.15975142017758        3.25039959697018       -0.90680688301682
H            5.02746591758145       -3.19338186835142        1.03464516231885
H            7.30888516066019       -4.08334737131861        1.26503991849323
H            9.28836477649364       -2.72543284217576        0.81052515980519
H           10.23007182285284       -0.32679770826853        0.05441178716179
H            9.67670397162941        1.95195050001542       -0.63053894918534
H            7.35348367371554        2.73586112115585       -0.82307199087671
H           -1.87707592187296        2.70526400384708       -1.07206389006841
H           -4.22253991284501        2.10471165447175       -0.91951000459270
H           -7.07693972839833       -1.38626734049043        1.43839289662786
H           -7.82154517418757       -3.71870568571317        1.18985036778486

          :  Hamiltonian                  GFN2-xTB          :
         :: gradient norm              0.000043003871 Eh/a0 ::
         :: HOMO-LUMO gap              0.518997557905 eV    ::
         :: SCC energy               -99.942391381185 Eh    ::
         :: -> dispersion             -0.081238736908 Eh    ::
         :: -> Gsolv                  -0.050996863528 Eh    ::
         :: repulsion energy           1.775645566889 Eh    ::

    * Orbital Energies and Occupations

         #    Occupation            Energy/Eh            Energy/eV
      -------------------------------------------------------------
         1        2.0000           -0.6968946             -18.9635
       ...           ...                  ...                  ...
        80        2.0000           -0.4281424             -11.6503
        81        2.0000           -0.4219039             -11.4806
        82        2.0000           -0.4178922             -11.3714
        83        2.0000           -0.4173790             -11.3575
        84        2.0000           -0.4129761             -11.2377
        85        2.0000           -0.4103182             -11.1653
        86        2.0000           -0.4095542             -11.1445
        87        2.0000           -0.4053197             -11.0293
        88        2.0000           -0.4031751             -10.9710
        89        2.0000           -0.4007648             -10.9054
        90        1.9971           -0.3591289              -9.7724
        91        1.0029           -0.3480146              -9.4700
        92        1.0000           -0.3258454              -8.8667 (HOMO)
        93        0.0000           -0.3067726              -8.3477 (LUMO)
        94                         -0.2670586              -7.2670
        95                         -0.2458580              -6.6901
        96                         -0.2422261              -6.5913
        97                         -0.2356478              -6.4123
        98                         -0.2336809              -6.3588
        99                         -0.2284755              -6.2171
       100                         -0.2266289              -6.1669
       101                         -0.2255018              -6.1362
       102                         -0.2046963              -5.5701
       103                         -0.1903507              -5.1797
       ...                                ...                  ...
       177                          0.7183336              19.5469
      -------------------------------------------------------------
                  HL-Gap            0.0190729 Eh            0.5190 eV

     #   Z          covCN         q      C6AA      α(0)
     1   6 C        2.919    -0.035    28.881     8.813
     2   6 C        2.919    -0.029    28.714     8.787
     3   6 C        2.921    -0.045    29.127     8.850
     4   6 C        2.926     0.062    26.602     8.458
     5   7 N        2.752    -0.062    22.441     7.036
     6   6 C        2.925     0.062    26.603     8.458
     7   6 C        2.922    -0.045    29.116     8.849
     8   6 C        2.919    -0.028    28.709     8.786
     9   6 C        2.919    -0.036    28.888     8.814
    10   6 C        2.919    -0.029    28.718     8.788
    11   6 C        2.921    -0.046    29.139     8.852
    12   6 C        2.921     0.069    26.453     8.434
    13   6 C        2.919    -0.048    29.200     8.861
    14   6 C        2.925    -0.028    28.690     8.784
    15   6 C        2.975    -0.009    28.240     8.717
    16   6 C        2.931     0.076    26.294     8.409
    17   6 C        2.887     0.033    27.256     8.559
    18   7 N        1.846    -0.244    27.230     7.734
    19   6 C        2.931     0.190    23.943     8.025
    20   7 N        1.843    -0.254    27.463     7.766
    21   6 C        3.050     0.072    26.345     8.418
    22   6 C        3.046     0.077    26.233     8.400
    23   7 N        1.844    -0.260    27.614     7.788
    24   6 C        2.914     0.195    23.848     8.008
    25   7 N        1.857    -0.253    27.439     7.764
    26   6 C        3.037    -0.010    28.221     8.713
    27   6 C        2.912    -0.019    28.476     8.750
    28   6 C        2.918    -0.027    28.678     8.782
    29   6 C        2.918    -0.027    28.666     8.780
    30   6 C        2.976     0.019    27.579     8.614
    31   6 C        2.918    -0.027    28.688     8.783
    32   6 C        2.918    -0.027    28.676     8.781
    33   6 C        2.912    -0.020    28.498     8.754
    34   6 C        3.036    -0.009    28.219     8.713
    35   6 C        3.150    -0.016    28.131     8.676
    36   6 C        2.920    -0.036    28.892     8.814
    37   6 C        2.920    -0.049    29.212     8.863
    38   6 C        2.922    -0.045    29.108     8.848
    39   6 C        2.919    -0.028    28.708     8.786
    40   1 H        0.926     0.038     2.479     2.462
    41   1 H        0.926     0.038     2.473     2.459
    42   1 H        0.926     0.035     2.517     2.481
    43   1 H        0.926     0.037     2.492     2.469
    44   1 H        0.926     0.039     2.463     2.454
    45   1 H        0.926     0.037     2.485     2.465
    46   1 H        0.926     0.038     2.476     2.461
    47   1 H        0.926     0.035     2.516     2.480
    48   1 H        0.926     0.045     2.387     2.416
    49   1 H        0.926     0.051     2.311     2.377
    50   1 H        0.926     0.057     2.238     2.339
    51   1 H        0.926     0.051     2.308     2.376
    52   1 H        0.926     0.055     2.257     2.349
    53   1 H        0.926     0.058     2.225     2.333
    54   1 H        0.926     0.057     2.232     2.336
    55   1 H        0.926     0.054     2.265     2.354
    56   1 H        0.926     0.050     2.322     2.383
    57   1 H        0.926     0.038     2.479     2.462
    58   1 H        0.926     0.045     2.385     2.415
    59   1 H        0.926     0.037     2.488     2.466
    60   1 H        0.926     0.039     2.458     2.452

molecular dipole:
                 x           y           z       tot (Debye)
 q only:       -0.565      -0.973       0.242
   full:       -0.575      -0.847       0.204       2.654

 projected vibrational frequencies (cm⁻¹)
eigval :       -0.00    -0.00    -0.00     0.00     0.00     0.00
eigval :        7.21    15.42    24.93    36.05    44.45    45.40
eigval :       59.47    66.90    71.36    89.49    98.66   134.40
eigval :      141.81   155.40   163.05   168.66   204.52   214.67
eigval :      233.22   252.96   274.33   287.02   297.38   314.59
eigval :      348.07   352.08   376.28   377.06   383.79   394.15
eigval :      402.17   407.12   420.58   430.84   437.70   465.40
eigval :      473.71   481.63   483.17   496.34   501.41   537.37
eigval :      548.96   568.70   574.77   582.43   585.64   588.61
eigval :      592.71   594.92   599.50   613.70   641.54   659.98
eigval :      661.46   665.33   670.10   678.96   680.56   701.22
eigval :      726.84   729.52   757.49   760.80   775.22   782.13
eigval :      788.16   797.65   813.39   815.06   857.32   873.10
eigval :      873.38   884.77   889.15   891.65   895.21   897.28
eigval :      897.96   908.51   910.16   922.36   923.12   925.65
eigval :      926.39   930.27   930.56   932.29   932.54   966.60
eigval :      985.66  1003.87  1015.81  1050.88  1079.24  1080.83
eigval :     1081.92  1093.64  1113.82  1119.31  1120.18  1121.36
eigval :     1141.78  1165.97  1174.73  1177.84  1180.71  1182.16
eigval :     1190.22  1192.15  1192.92  1202.60  1214.39  1227.26
eigval :     1236.40  1268.60  1273.96  1275.38  1279.29  1282.67
eigval :     1300.77  1312.15  1314.92  1322.40  1324.13  1329.31
eigval :     1334.66  1355.82  1362.42  1375.39  1393.95  1407.10
eigval :     1422.10  1433.69  1436.87  1438.95  1454.39  1465.89
eigval :     1468.96  1472.98  1481.48  1504.48  1512.37  1527.54
eigval :     1539.85  1575.78  1576.30  1579.59  1584.25  1589.35
eigval :     1595.78  1599.20  1608.90  3074.88  3075.01  3076.29
eigval :     3077.00  3078.76  3079.70  3084.28  3084.69  3085.15
eigval :     3087.14  3088.19  3088.49  3088.51  3089.52  3090.17
eigval :     3095.99  3096.52  3096.71  3098.05  3100.29  3102.61

   temp. (K)  partition function   enthalpy   heat capacity  entropy
                                   cal/mol     cal/K/mol   cal/K/mol   J/K/mol
 298.15  VIB  0.554E+13            16769.249    109.294    103.283
         ROT  0.589E+08              888.752      2.981     38.534
         INT  0.326E+21            17658.001    112.275    141.817
         TR   0.108E+29             1481.254      4.968     44.493
         TOT                       19139.2550   117.2433   186.3095   779.5189

       T/K    H(0)-H(T)+PV         H(T)/Eh          T*S/Eh         G(T)/Eh
   ------------------------------------------------------------------------
    298.15    0.305003E-01    0.476700E+00    0.885217E-01    0.388178E+00
   ------------------------------------------------------------------------

         :::::::::::::::::::::::::::::::::::::::::::::::::::::
         ::                  THERMODYNAMIC                  ::
         :::::::::::::::::::::::::::::::::::::::::::::::::::::
         :: total free energy         -97.778567405879 Eh   ::
         ::.................................................::
         :: total energy              -98.166745819376 Eh   ::
         :: zero point energy           0.446199720452 Eh   ::
         :: G(RRHO) w/o ZPVE           -0.058021306955 Eh   ::
         :: G(RRHO) contrib.            0.388178413497 Eh   ::
         :::::::::::::::::::::::::::::::::::::::::::::::::::::

           -------------------------------------------------
          | TOTAL ENERGY              -98.166745819376 Eh   |
          | TOTAL ENTHALPY            -97.690045754711 Eh   |
          | TOTAL FREE ENERGY         -97.778567405879 Eh   |
          | GRADIENT NORM               0.000042889117 Eh/α |
          | HOMO-LUMO GAP               0.518999145122 eV   |
           -------------------------------------------------

 * finished run on 2025/08/22 at 23:17:04.343
