   * xtb version 6.7.1 (edcfbbe) compiled by 'albert@albert-system' on 2024-07-22

   ID    Z sym.   atoms
    1    6 C      1-4, 6-17, 19, 21, 22, 24, 26-39
    2    7 N      5, 18, 20, 23, 25
    3    1 H      40-60

          program call               : xtb data2507/toluene/TPA-APm/TPA-APm.xyz --gfn 2 --gbsa toluene --ohess vtight --parallel 40 --molden --ceasefiles --namespace data2507/toluene/TPA-APm/TPA-APm_toluene_S0_preOpt
      * Solvation model:               GBSA
        Solvent                        toluene
        Solvent mass                       9.2140E+01 g/mol
          :  Hamiltonian                  GFN2-xTB          :
 * total energy  :   -98.1704056 Eh     change       -0.4891277E-08 Eh
 * total energy  :   -98.1846532 Eh     change       -0.1424757E-01 Eh
 * total energy  :   -98.1898866 Eh     change       -0.5233465E-02 Eh
 * total energy  :   -98.1910495 Eh     change       -0.1162916E-02 Eh
 * total energy  :   -98.1916457 Eh     change       -0.5961958E-03 Eh
 * total energy  :   -98.1918207 Eh     change       -0.1749768E-03 Eh
 * total energy  :   -98.1919378 Eh     change       -0.1171149E-03 Eh
 * total energy  :   -98.1920300 Eh     change       -0.9213980E-04 Eh
 * total energy  :   -98.1921008 Eh     change       -0.7079830E-04 Eh
 * total energy  :   -98.1921496 Eh     change       -0.4879851E-04 Eh
 * total energy  :   -98.1923013 Eh     change       -0.3517169E-06 Eh
 * total energy  :   -98.1923020 Eh     change       -0.6853766E-06 Eh
 * total energy  :   -98.1923024 Eh     change       -0.4088697E-06 Eh
 * total energy  :   -98.1923026 Eh     change       -0.1961989E-06 Eh
 * total energy  :   -98.1923028 Eh     change       -0.1622404E-06 Eh
 * total energy  :   -98.1923030 Eh     change       -0.2286892E-06 Eh
 * total energy  :   -98.1923032 Eh     change       -0.2033183E-06 Eh
 * total energy  :   -98.1923033 Eh     change       -0.1286666E-06 Eh
 * total energy  :   -98.1923034 Eh     change       -0.9572264E-07 Eh
   *** GEOMETRY OPTIMIZATION CONVERGED AFTER 52 ITERATIONS ***

 final structure:
================
60
 xtb: 6.7.1 (edcfbbe)
C           -7.69679120258873       -2.79677436979591       -0.41262182026159
C           -6.52721485635941       -2.88303749791083       -1.15091045518060
C           -5.54328969820663       -1.92146730530607       -1.01712901944976
C           -5.71881833420252       -0.86095173918333       -0.12987897127211
N           -4.72923242257301        0.13063052827311        0.00434836995982
C           -5.13973961780977        1.47363937398283        0.09223987737498
C           -6.17582487151362        1.94024794223312       -0.71446363821933
C           -6.59496313510135        3.25366661155525       -0.61521176488411
C           -5.98627303370170        4.11728648149305        0.28116178159372
C           -4.95574213544935        3.65659317768852        1.08491084624508
C           -4.53436460921614        2.34299757133877        0.99806631640395
C           -3.39122203931227       -0.20758639648143        0.05297125913171
C           -2.98233650739782       -1.44815414119486        0.56181824980574
C           -1.65130495292569       -1.78982554195673        0.60850152527250
C           -0.66525202726990       -0.90816551805670        0.15057672372041
C            0.75277595646020       -1.22395922310500        0.18261620974660
C            1.24681874718748       -2.53999093237637        0.39619289117838
N            2.51698997935646       -2.82937024501665        0.44667749283475
C            3.39045198181229       -1.81805015948735        0.27738240007369
N            4.70468994949359       -2.11468122723631        0.34970578730964
C            5.50798613974442       -1.10175936926400        0.15793104956821
C            5.02799586889027        0.24076993168454       -0.11619051895868
N            3.76093877470443        0.54326209973616       -0.18546679495335
C            2.91326693706042       -0.49533903258177        0.02045859724224
N            1.60640582671223       -0.22740409983020       -0.01654816655845
C            6.18419717501248        1.10845088082975       -0.27287160466600
C            6.37838882992459        2.44338211813397       -0.53362595684317
C            7.69995793491132        2.92227483939077       -0.60491868273960
C            8.79715482242186        2.11227184209615       -0.42578739359661
C            8.63362706410215        0.73378875776551       -0.15727273711667
C            9.63678527479063       -0.24024469794963        0.05339206645302
C            9.29489134281121       -1.54790668433979        0.30825430342898
C            7.95989667361507       -1.98922047485879        0.37326989078725
C            6.96006427845086       -1.06824403513281        0.17253871700515
C            7.31436467649949        0.27683149321642       -0.09009489249287
C           -1.07688229330996        0.33547538603078       -0.34878360548533
C           -2.40452328044775        0.68012971415474       -0.40077594418512
C           -6.89592511673806       -0.77745539492798        0.61113716165413
C           -7.87703594703284       -1.74018661662462        0.46546515898084
H           -8.46412536819398       -3.54813067423380       -0.52255181188055
H           -6.38231230480576       -3.69939949341696       -1.84315647284041
H           -4.63671638108922       -1.98203362679252       -1.60158075566407
H           -6.64639808750250        1.26827649828819       -1.41704170203772
H           -7.39720937968808        3.60553961323531       -1.24685727236516
H           -6.31397859805178        5.14323476287814        0.35464791795573
H           -4.48096738623578        4.32138711433084        1.79144343378238
H           -3.73839477037453        1.98203587001409        1.63305106996204
H           -3.72400518175370       -2.13621748430792        0.93881725649054
H           -1.37681651275933       -2.74135101650882        1.03673627207284
H            0.57876578482732       -3.38332086452309        0.50901647378941
H            5.54375105426006        3.11151200050733       -0.67959810879355
H            7.84982971780113        3.97225603592703       -0.80924164617072
H            9.79274049052138        2.52590431747695       -0.48915440174472
H           10.67596240598499        0.05088698513606        0.01375753649316
H           10.07845885198161       -2.27431996274014        0.46654671533783
H            7.73342396104077       -3.02450850014897        0.57646239921311
H           -0.31836980518576        1.01393769285607       -0.70686707175873
H           -2.69662356177381        1.63653792699160       -0.80733388426634
H           -7.03339898173836        0.04351332229468        1.29938119771309
H           -8.78452610006996       -1.66766656424896        1.04645914580531

          :  Hamiltonian                  GFN2-xTB          :
         :: gradient norm              0.000033088776 Eh/a0 ::
         :: HOMO-LUMO gap              0.761185774675 eV    ::
         :: SCC energy               -99.955345123836 Eh    ::
         :: -> dispersion             -0.081353033262 Eh    ::
         :: -> Gsolv                  -0.053815566891 Eh    ::
         :: repulsion energy           1.763041696174 Eh    ::

    * Orbital Energies and Occupations

         #    Occupation            Energy/Eh            Energy/eV
      -------------------------------------------------------------
         1        2.0000           -0.6913815             -18.8134
       ...           ...                  ...                  ...
        79        2.0000           -0.4293878             -11.6842
        80        2.0000           -0.4239996             -11.5376
        81        2.0000           -0.4232902             -11.5183
        82        2.0000           -0.4204456             -11.4409
        83        2.0000           -0.4190430             -11.4027
        84        2.0000           -0.4143291             -11.2745
        85        2.0000           -0.4116190             -11.2007
        86        2.0000           -0.4105913             -11.1728
        87        2.0000           -0.4065916             -11.0639
        88        2.0000           -0.4027405             -10.9591
        89        2.0000           -0.3954740             -10.7614
        90        2.0000           -0.3604107              -9.8073
        91        2.0000           -0.3490257              -9.4975 (HOMO)
        92        0.0000           -0.3210527              -8.7363 (LUMO)
        93                         -0.3078605              -8.3773
        94                         -0.2673941              -7.2762
        95                         -0.2524642              -6.8699
        96                         -0.2470465              -6.7225
        97                         -0.2369669              -6.4482
        98                         -0.2350377              -6.3957
        99                         -0.2298713              -6.2551
       100                         -0.2277708              -6.1980
       101                         -0.2265738              -6.1654
       102                         -0.2061701              -5.6102
       ...                                ...                  ...
       177                          0.7116456              19.3649
      -------------------------------------------------------------
                  HL-Gap            0.0279731 Eh            0.7612 eV

     #   Z          covCN         q      C6AA      α(0)
     1   6 C        2.919    -0.035    28.860     8.810
     2   6 C        2.919    -0.028    28.706     8.786
     3   6 C        2.921    -0.045    29.114     8.848
     4   6 C        2.926     0.062    26.614     8.460
     5   7 N        2.752    -0.059    22.374     7.025
     6   6 C        2.926     0.062    26.614     8.460
     7   6 C        2.922    -0.044    29.093     8.845
     8   6 C        2.919    -0.028    28.698     8.785
     9   6 C        2.919    -0.035    28.860     8.810
    10   6 C        2.919    -0.028    28.703     8.786
    11   6 C        2.921    -0.045    29.112     8.848
    12   6 C        2.921     0.072    26.382     8.423
    13   6 C        2.920    -0.050    29.230     8.866
    14   6 C        2.920    -0.033    28.820     8.803
    15   6 C        2.977    -0.014    28.353     8.734
    16   6 C        2.949     0.090    26.002     8.363
    17   6 C        2.905     0.051    26.850     8.496
    18   7 N        1.843    -0.263    27.698     7.800
    19   6 C        2.988     0.176    24.224     8.074
    20   7 N        1.840    -0.280    28.106     7.857
    21   6 C        3.068     0.088    25.968     8.356
    22   6 C        3.063     0.092    25.888     8.343
    23   7 N        1.841    -0.282    28.174     7.866
    24   6 C        2.969     0.181    24.122     8.056
    25   7 N        1.855    -0.279    28.083     7.854
    26   6 C        3.026    -0.013    28.321     8.729
    27   6 C        2.912    -0.016    28.419     8.742
    28   6 C        2.918    -0.026    28.645     8.777
    29   6 C        2.918    -0.025    28.621     8.773
    30   6 C        2.976     0.020    27.563     8.612
    31   6 C        2.918    -0.025    28.636     8.775
    32   6 C        2.918    -0.026    28.643     8.776
    33   6 C        2.912    -0.017    28.436     8.744
    34   6 C        3.026    -0.013    28.318     8.729
    35   6 C        3.140    -0.008    27.976     8.656
    36   6 C        2.924    -0.025    28.618     8.773
    37   6 C        2.919    -0.048    29.199     8.861
    38   6 C        2.922    -0.044    29.089     8.845
    39   6 C        2.919    -0.028    28.696     8.785
    40   1 H        0.926     0.039     2.465     2.455
    41   1 H        0.926     0.039     2.460     2.453
    42   1 H        0.926     0.036     2.504     2.475
    43   1 H        0.926     0.038     2.476     2.461
    44   1 H        0.926     0.040     2.445     2.445
    45   1 H        0.926     0.039     2.465     2.455
    46   1 H        0.926     0.039     2.458     2.451
    47   1 H        0.926     0.036     2.501     2.473
    48   1 H        0.926     0.046     2.368     2.407
    49   1 H        0.926     0.037     2.484     2.464
    50   1 H        0.925     0.046     2.371     2.408
    51   1 H        0.926     0.056     2.250     2.346
    52   1 H        0.926     0.058     2.220     2.330
    53   1 H        0.926     0.061     2.186     2.312
    54   1 H        0.926     0.061     2.190     2.314
    55   1 H        0.926     0.058     2.227     2.334
    56   1 H        0.926     0.055     2.263     2.352
    57   1 H        0.926     0.057     2.240     2.340
    58   1 H        0.926     0.047     2.355     2.400
    59   1 H        0.926     0.038     2.473     2.459
    60   1 H        0.926     0.040     2.444     2.445

molecular dipole:
                 x           y           z       tot (Debye)
 q only:       -0.655       1.217      -0.188
   full:       -0.649       1.074      -0.154       3.214

 projected vibrational frequencies (cm⁻¹)
eigval :       -0.00     0.00     0.00     0.00     0.00     0.00
eigval :       11.40    13.52    23.91    36.39    45.15    48.07
eigval :       61.96    65.93    73.66    85.61   100.12   135.12
eigval :      138.18   153.62   160.06   166.54   205.63   215.09
eigval :      233.58   254.16   273.92   295.49   298.46   314.00
eigval :      346.66   350.17   357.29   376.62   378.16   383.92
eigval :      395.38   402.17   423.40   429.54   440.97   459.24
eigval :      464.67   485.34   487.69   495.18   505.80   540.33
eigval :      564.19   573.97   575.55   584.13   585.66   589.68
eigval :      593.11   593.91   611.32   625.27   643.25   660.70
eigval :      667.41   679.13   684.73   693.94   718.26   734.34
eigval :      742.73   758.64   762.50   772.30   786.92   788.78
eigval :      814.21   815.84   818.69   852.13   860.29   874.94
eigval :      876.09   891.41   894.41   896.43   898.05   899.63
eigval :      909.06   912.30   916.03   921.48   926.23   926.91
eigval :      927.85   929.81   931.61   934.55   950.00   973.63
eigval :      987.89  1004.58  1016.92  1057.09  1078.70  1080.92
eigval :     1082.09  1091.83  1119.67  1121.18  1123.97  1128.96
eigval :     1141.62  1174.13  1178.25  1179.26  1182.69  1186.15
eigval :     1192.35  1193.37  1206.60  1213.47  1224.96  1227.86
eigval :     1242.70  1268.15  1275.24  1278.48  1281.88  1297.58
eigval :     1311.62  1314.73  1321.87  1323.34  1330.08  1335.59
eigval :     1340.39  1361.50  1371.78  1395.07  1411.19  1419.32
eigval :     1431.88  1433.57  1438.35  1449.91  1462.41  1466.85
eigval :     1469.42  1479.55  1490.68  1504.04  1539.70  1558.76
eigval :     1575.22  1576.98  1579.30  1580.99  1589.21  1589.34
eigval :     1596.94  1603.81  1608.62  3052.42  3076.06  3076.25
eigval :     3077.47  3078.00  3080.77  3082.24  3084.79  3085.46
eigval :     3087.25  3088.40  3089.42  3090.65  3091.42  3092.42
eigval :     3097.05  3097.43  3099.17  3100.79  3101.88  3107.45

   temp. (K)  partition function   enthalpy   heat capacity  entropy
                                   cal/mol     cal/K/mol   cal/K/mol   J/K/mol
 298.15  VIB  0.381E+13            16692.866    108.593    102.746
         ROT  0.584E+08              888.752      2.981     38.520
         INT  0.222E+21            17581.618    111.574    141.266
         TR   0.108E+29             1481.254      4.968     44.493
         TOT                       19062.8723   116.5423   185.7589   777.2151

       T/K    H(0)-H(T)+PV         H(T)/Eh          T*S/Eh         G(T)/Eh
   ------------------------------------------------------------------------
    298.15    0.303786E-01    0.478292E+00    0.882600E-01    0.390032E+00
   ------------------------------------------------------------------------

         :::::::::::::::::::::::::::::::::::::::::::::::::::::
         ::                  THERMODYNAMIC                  ::
         :::::::::::::::::::::::::::::::::::::::::::::::::::::
         :: total free energy         -97.802271050153 Eh   ::
         ::.................................................::
         :: total energy              -98.192303426917 Eh   ::
         :: zero point energy           0.447913789847 Eh   ::
         :: G(RRHO) w/o ZPVE           -0.057881413083 Eh   ::
         :: G(RRHO) contrib.            0.390032376764 Eh   ::
         :::::::::::::::::::::::::::::::::::::::::::::::::::::

           -------------------------------------------------
          | TOTAL ENERGY              -98.192303426917 Eh   |
          | TOTAL ENTHALPY            -97.714011016436 Eh   |
          | TOTAL FREE ENERGY         -97.802271050153 Eh   |
          | GRADIENT NORM               0.000033171162 Eh/α |
          | HOMO-LUMO GAP               0.761185751999 eV   |
           -------------------------------------------------

 * finished run on 2025/08/22 at 23:14:22.617
