   * xtb version 6.7.1 (edcfbbe) compiled by 'albert@albert-system' on 2024-07-22

   ID    Z sym.   atoms
    1    6 C      1-4, 6-17, 19, 21, 22, 24, 26-39
    2    7 N      5, 18, 20, 23, 25
    3    1 H      40-60

          program call               : xtb data2507/toluene/TPA-APm/TPA-APm_toluene_S0_crest.xyz --gfn 2 --gbsa toluene --ohess vtight --parallel 40 --molden --ceasefiles --namespace data2507/toluene/TPA-APm/TPA-APm_toluene_S0_finalOpt
      * Solvation model:               GBSA
        Solvent                        toluene
        Solvent mass                       9.2140E+01 g/mol
          :  Hamiltonian                  GFN2-xTB          :
 * total energy  :   -98.1920818 Eh     change       -0.1323102E-08 Eh
 * total energy  :   -98.1921666 Eh     change       -0.8481946E-04 Eh
 * total energy  :   -98.1921994 Eh     change       -0.3274852E-04 Eh
 * total energy  :   -98.1922110 Eh     change       -0.1166946E-04 Eh
 * total energy  :   -98.1922296 Eh     change       -0.1854802E-04 Eh
 * total energy  :   -98.1922464 Eh     change       -0.1678089E-04 Eh
 * total energy  :   -98.1922673 Eh     change       -0.2098582E-04 Eh
 * total energy  :   -98.1922809 Eh     change       -0.1355297E-04 Eh
 * total energy  :   -98.1922849 Eh     change       -0.4042635E-05 Eh
 * total energy  :   -98.1922891 Eh     change       -0.4181584E-05 Eh
 * total energy  :   -98.1922947 Eh     change       -0.5247501E-06 Eh
 * total energy  :   -98.1922951 Eh     change       -0.3994617E-06 Eh
 * total energy  :   -98.1922954 Eh     change       -0.3716703E-06 Eh
 * total energy  :   -98.1922957 Eh     change       -0.3103259E-06 Eh
 * total energy  :   -98.1922960 Eh     change       -0.2346374E-06 Eh
 * total energy  :   -98.1922962 Eh     change       -0.2550586E-06 Eh
 * total energy  :   -98.1922966 Eh     change       -0.3290997E-06 Eh
 * total energy  :   -98.1922970 Eh     change       -0.4669141E-06 Eh
 * total energy  :   -98.1922970 Eh     change       -0.1193983E-07 Eh
   *** GEOMETRY OPTIMIZATION CONVERGED AFTER 22 ITERATIONS ***

 final structure:
================
60
 xtb: 6.7.1 (edcfbbe)
C           -6.50224382893432       -4.15316771816752       -0.30709533906777
C           -5.47661324004832       -3.69446768978052       -1.11826626045622
C           -5.03937104992930       -2.38676804011167       -1.02104060198816
C           -5.62378037196462       -1.52205658545637       -0.09734056506147
N           -5.19597690463486       -0.18510732034470        0.00202109444937
C           -6.17282362901945        0.81660852061440        0.15173373625368
C           -7.35597495936280        0.75243047861576       -0.58165024528911
C           -8.32548189844248        1.72441265136092       -0.42080885698039
C           -8.12761087873018        2.77131810832001        0.46503911706585
C           -6.95197677406370        2.83847364240539        1.19565370223230
C           -5.97957152039432        1.86747034642225        1.04678385314771
C           -3.85390278899976        0.13593288547376       -0.04829086790273
C           -2.87750234605978       -0.77050386872220        0.39045510718117
C           -1.54576035703222       -0.44158054141177        0.34068035377622
C           -1.11996561496049        0.80417271116878       -0.14088768639217
C            0.30128975602666        1.10562293045172       -0.16546418907384
C            0.80790950275703        2.42267245509604       -0.33959276234485
N            2.08083627047584        2.70160615504829       -0.37751945384853
C            2.94427019782166        1.67767261291110       -0.23485811771891
N            4.26142915690734        1.96460619401092       -0.29150380252778
C            5.05471338080081        0.93954278583615       -0.12450010103212
C            4.56168332107426       -0.40635475085362        0.10658907586085
N            3.29163791258917       -0.69954236284677        0.15970309745917
C            2.45422092064370        0.35231241722696       -0.01899346951489
N            1.14475394823354        0.09558731930860        0.00655119896041
C            5.70960236310820       -1.28782135576688        0.24663782288054
C            5.89123724358891       -2.63132479068225        0.46981324460463
C            7.20845307464816       -3.12230923427622        0.53968498279359
C            8.31350462216623       -2.31594942566924        0.39560369784349
C            8.16299750890607       -0.92907596650300        0.16547553972542
C            9.17545571045665        0.04307915747887       -0.00609964330176
C            8.84597571619904        1.36026255562272       -0.22600029568483
C            7.51500727579870        1.81341737614289       -0.29174463349224
C            6.50648122748822        0.89462345569385       -0.12796766129358
C            6.84789979722559       -0.46026398889757        0.09863876593530
C           -2.09545485468966        1.70337910972186       -0.58700032247299
C           -3.43049591898056        1.37732166075810       -0.54312763283177
C           -6.65549533952431       -1.98621884360739        0.71621358928831
C           -7.09040451167894       -3.29369355548752        0.60681750856022
H           -6.84212127527673       -5.17456972948613       -0.38830826888991
H           -5.01825230511552       -4.35607697131571       -1.83849725302425
H           -4.24723878794513       -2.02647632145123       -1.66120246469382
H           -7.50721208703702       -0.06093363340460       -1.27601659849368
H           -9.23768484008801        1.66681075605840       -0.99607508861301
H           -8.88591838594000        3.52995407476971        0.58688999167295
H           -6.79330803362009        3.64732098207482        1.89370390968429
H           -5.06842727731119        1.91337698613742        1.62542716414642
H           -3.18073962609887       -1.72875498691425        0.78432109766430
H           -0.79498117412275       -1.13420114975926        0.68787982563085
H            0.14774452771779        3.27505416333834       -0.42878726645034
H            5.05035898836078       -3.29707433507983        0.58822335406120
H            7.34845487522601       -4.17897553665982        0.71444701292990
H            9.30521509563163       -2.73908425272992        0.45690979622131
H           10.21197360883070       -0.25703815889836        0.03593330772230
H            9.63646541765218        2.08503335723790       -0.35466703696863
H            7.29790824059798        2.85584161824343       -0.46678192309601
H           -1.80919157608405        2.65649944216937       -1.00395423362079
H           -4.16418134614031        2.07892275553871       -0.91069576579489
H           -7.10981258374114       -1.31713486352701        1.43214183565229
H           -7.88876483096179       -3.64427053624546        1.24408225371731

          :  Hamiltonian                  GFN2-xTB          :
         :: gradient norm              0.000074051633 Eh/a0 ::
         :: HOMO-LUMO gap              0.761785849292 eV    ::
         :: SCC energy               -99.955374103688 Eh    ::
         :: -> dispersion             -0.081353145127 Eh    ::
         :: -> Gsolv                  -0.053809528525 Eh    ::
         :: repulsion energy           1.763077072572 Eh    ::

    * Orbital Energies and Occupations

         #    Occupation            Energy/Eh            Energy/eV
      -------------------------------------------------------------
         1        2.0000           -0.6914021             -18.8140
       ...           ...                  ...                  ...
        79        2.0000           -0.4294148             -11.6850
        80        2.0000           -0.4240389             -11.5387
        81        2.0000           -0.4232744             -11.5179
        82        2.0000           -0.4204140             -11.4400
        83        2.0000           -0.4190275             -11.4023
        84        2.0000           -0.4143373             -11.2747
        85        2.0000           -0.4115965             -11.2001
        86        2.0000           -0.4106435             -11.1742
        87        2.0000           -0.4066132             -11.0645
        88        2.0000           -0.4027606             -10.9597
        89        2.0000           -0.3954860             -10.7617
        90        2.0000           -0.3604094              -9.8072
        91        2.0000           -0.3490467              -9.4980 (HOMO)
        92        0.0000           -0.3210515              -8.7363 (LUMO)
        93                         -0.3078711              -8.3776
        94                         -0.2672964              -7.2735
        95                         -0.2524825              -6.8704
        96                         -0.2470544              -6.7227
        97                         -0.2369696              -6.4483
        98                         -0.2350280              -6.3954
        99                         -0.2298641              -6.2549
       100                         -0.2277940              -6.1986
       101                         -0.2266311              -6.1669
       102                         -0.2061840              -5.6106
       ...                                ...                  ...
       177                          0.7116231              19.3643
      -------------------------------------------------------------
                  HL-Gap            0.0279951 Eh            0.7618 eV

     #   Z          covCN         q      C6AA      α(0)
     1   6 C        2.919    -0.034    28.858     8.809
     2   6 C        2.919    -0.028    28.702     8.785
     3   6 C        2.921    -0.045    29.109     8.848
     4   6 C        2.926     0.062    26.614     8.460
     5   7 N        2.752    -0.059    22.376     7.026
     6   6 C        2.926     0.062    26.614     8.460
     7   6 C        2.922    -0.044    29.091     8.845
     8   6 C        2.919    -0.028    28.696     8.785
     9   6 C        2.919    -0.035    28.862     8.810
    10   6 C        2.919    -0.028    28.707     8.786
    11   6 C        2.921    -0.045    29.116     8.849
    12   6 C        2.921     0.072    26.382     8.423
    13   6 C        2.919    -0.048    29.200     8.861
    14   6 C        2.924    -0.025    28.617     8.773
    15   6 C        2.977    -0.014    28.354     8.734
    16   6 C        2.950     0.090    26.000     8.363
    17   6 C        2.906     0.051    26.850     8.496
    18   7 N        1.843    -0.263    27.697     7.799
    19   6 C        2.988     0.176    24.224     8.074
    20   7 N        1.840    -0.280    28.105     7.857
    21   6 C        3.069     0.088    25.968     8.356
    22   6 C        3.063     0.092    25.888     8.343
    23   7 N        1.841    -0.282    28.173     7.866
    24   6 C        2.969     0.181    24.122     8.056
    25   7 N        1.855    -0.279    28.083     7.854
    26   6 C        3.026    -0.013    28.321     8.729
    27   6 C        2.912    -0.016    28.419     8.742
    28   6 C        2.918    -0.026    28.645     8.777
    29   6 C        2.918    -0.025    28.620     8.773
    30   6 C        2.976     0.020    27.563     8.612
    31   6 C        2.918    -0.025    28.636     8.775
    32   6 C        2.918    -0.026    28.643     8.776
    33   6 C        2.912    -0.017    28.436     8.744
    34   6 C        3.026    -0.013    28.318     8.729
    35   6 C        3.140    -0.008    27.976     8.656
    36   6 C        2.920    -0.033    28.820     8.804
    37   6 C        2.920    -0.050    29.231     8.866
    38   6 C        2.922    -0.044    29.091     8.845
    39   6 C        2.919    -0.028    28.697     8.785
    40   1 H        0.926     0.039     2.463     2.454
    41   1 H        0.926     0.039     2.456     2.451
    42   1 H        0.926     0.036     2.499     2.472
    43   1 H        0.926     0.038     2.474     2.460
    44   1 H        0.926     0.040     2.445     2.445
    45   1 H        0.926     0.039     2.466     2.456
    46   1 H        0.926     0.039     2.460     2.453
    47   1 H        0.926     0.036     2.505     2.475
    48   1 H        0.926     0.047     2.356     2.400
    49   1 H        0.926     0.056     2.243     2.342
    50   1 H        0.925     0.046     2.371     2.408
    51   1 H        0.926     0.056     2.250     2.345
    52   1 H        0.926     0.058     2.220     2.330
    53   1 H        0.926     0.061     2.186     2.312
    54   1 H        0.926     0.061     2.190     2.314
    55   1 H        0.926     0.058     2.227     2.334
    56   1 H        0.926     0.055     2.263     2.352
    57   1 H        0.926     0.037     2.484     2.465
    58   1 H        0.926     0.046     2.368     2.406
    59   1 H        0.926     0.038     2.476     2.461
    60   1 H        0.926     0.040     2.444     2.445

molecular dipole:
                 x           y           z       tot (Debye)
 q only:       -0.665      -1.212       0.179
   full:       -0.657      -1.070       0.147       3.212

 projected vibrational frequencies (cm⁻¹)
eigval :       -0.00    -0.00    -0.00     0.00     0.00     0.00
eigval :        4.24    10.97    23.60    34.32    42.74    47.87
eigval :       60.09    64.04    73.59    84.61   101.08   134.77
eigval :      138.14   152.94   159.49   165.69   204.90   214.49
eigval :      233.30   253.68   273.73   295.29   298.47   313.06
eigval :      346.34   349.23   356.80   376.46   377.96   384.27
eigval :      395.02   401.93   423.35   429.17   441.05   458.76
eigval :      464.63   485.09   487.74   495.14   505.82   540.32
eigval :      564.25   573.30   575.44   583.83   585.61   588.78
eigval :      592.98   593.85   611.00   624.37   643.20   660.48
eigval :      667.25   679.05   684.71   693.94   716.46   733.72
eigval :      742.68   758.09   762.17   771.10   785.52   788.83
eigval :      813.97   815.80   818.69   851.09   860.37   872.95
eigval :      875.82   891.34   893.30   896.40   896.65   898.84
eigval :      908.27   912.78   916.00   922.26   925.41   926.78
eigval :      928.37   929.24   930.60   934.04   949.99   973.60
eigval :      987.91  1004.24  1016.94  1057.08  1078.69  1080.19
eigval :     1081.57  1091.79  1118.65  1120.48  1123.88  1128.84
eigval :     1141.51  1174.03  1178.23  1178.34  1182.03  1186.18
eigval :     1191.47  1193.19  1206.23  1213.20  1224.80  1227.94
eigval :     1242.60  1267.95  1274.30  1277.93  1281.61  1297.68
eigval :     1311.35  1314.69  1321.87  1323.39  1330.01  1335.64
eigval :     1340.21  1361.31  1371.91  1395.05  1411.11  1419.29
eigval :     1431.79  1433.51  1438.35  1449.82  1462.39  1466.43
eigval :     1469.25  1479.51  1490.78  1504.08  1539.77  1558.57
eigval :     1575.25  1576.98  1579.21  1580.98  1589.21  1589.39
eigval :     1596.96  1603.63  1608.47  3052.11  3075.73  3075.85
eigval :     3077.20  3077.75  3080.78  3082.49  3084.76  3085.26
eigval :     3087.01  3088.03  3089.10  3090.61  3091.47  3092.42
eigval :     3096.96  3097.29  3098.82  3100.65  3101.77  3107.29

   temp. (K)  partition function   enthalpy   heat capacity  entropy
                                   cal/mol     cal/K/mol   cal/K/mol   J/K/mol
 298.15  VIB  0.150E+14            16730.295    108.498    104.083
         ROT  0.585E+08              888.752      2.981     38.520
         INT  0.876E+21            17619.047    111.479    142.603
         TR   0.108E+29             1481.254      4.968     44.493
         TOT                       19100.3012   116.4472   187.0956   782.8081

       T/K    H(0)-H(T)+PV         H(T)/Eh          T*S/Eh         G(T)/Eh
   ------------------------------------------------------------------------
    298.15    0.304383E-01    0.478213E+00    0.888952E-01    0.389318E+00
   ------------------------------------------------------------------------

         :::::::::::::::::::::::::::::::::::::::::::::::::::::
         ::                  THERMODYNAMIC                  ::
         :::::::::::::::::::::::::::::::::::::::::::::::::::::
         :: total free energy         -97.802979344992 Eh   ::
         ::.................................................::
         :: total energy              -98.192297032473 Eh   ::
         :: zero point energy           0.447774589689 Eh   ::
         :: G(RRHO) w/o ZPVE           -0.058456902208 Eh   ::
         :: G(RRHO) contrib.            0.389317687481 Eh   ::
         :::::::::::::::::::::::::::::::::::::::::::::::::::::

           -------------------------------------------------
          | TOTAL ENERGY              -98.192297032473 Eh   |
          | TOTAL ENTHALPY            -97.714084175291 Eh   |
          | TOTAL FREE ENERGY         -97.802979344992 Eh   |
          | GRADIENT NORM               0.000074053831 Eh/α |
          | HOMO-LUMO GAP               0.761786015720 eV   |
           -------------------------------------------------

 * finished run on 2025/08/22 at 23:16:59.192
