   * xtb version 6.7.1 (edcfbbe) compiled by 'albert@albert-system' on 2024-07-22

   ID    Z sym.   atoms
    1    8 O      1, 3, 23, 24
    2    6 C      2, 4-22, 25-34
    3    1 H      35-56

          program call               : xtb data2507/toluene/TABD-COOH/TABD-COOH_toluene_T1_crest.xyz --gfn 2 --uhf 2 --gbsa toluene --ohess vtight --parallel 40 --molden --ceasefiles --namespace data2507/toluene/TABD-COOH/TABD-COOH_toluene_T1_finalOpt
      * Solvation model:               GBSA
        Solvent                        toluene
        Solvent mass                       9.2140E+01 g/mol
          :  Hamiltonian                  GFN2-xTB          :
 * total energy  :   -91.6806003 Eh     change       -0.1486399E-08 Eh
 * total energy  :   -91.6807261 Eh     change       -0.1257524E-03 Eh
 * total energy  :   -91.6807836 Eh     change       -0.5752638E-04 Eh
 * total energy  :   -91.6808010 Eh     change       -0.1740278E-04 Eh
 * total energy  :   -91.6808195 Eh     change       -0.1850408E-04 Eh
 * total energy  :   -91.6808332 Eh     change       -0.1366278E-04 Eh
 * total energy  :   -91.6808489 Eh     change       -0.1574541E-04 Eh
 * total energy  :   -91.6808616 Eh     change       -0.1270244E-04 Eh
 * total energy  :   -91.6808761 Eh     change       -0.1448943E-04 Eh
 * total energy  :   -91.6808867 Eh     change       -0.1061607E-04 Eh
 * total energy  :   -91.6809176 Eh     change       -0.8672201E-05 Eh
 * total energy  :   -91.6809238 Eh     change       -0.6233905E-05 Eh
 * total energy  :   -91.6809276 Eh     change       -0.3796641E-05 Eh
 * total energy  :   -91.6809297 Eh     change       -0.2101420E-05 Eh
 * total energy  :   -91.6809316 Eh     change       -0.1915929E-05 Eh
 * total energy  :   -91.6809328 Eh     change       -0.1211783E-05 Eh
 * total energy  :   -91.6809337 Eh     change       -0.8754867E-06 Eh
 * total energy  :   -91.6809344 Eh     change       -0.7159561E-06 Eh
 * total energy  :   -91.6809344 Eh     change       -0.1321933E-07 Eh
   *** GEOMETRY OPTIMIZATION CONVERGED AFTER 22 ITERATIONS ***

 final structure:
================
56
 xtb: 6.7.1 (edcfbbe)
O           -0.67645803228972       -4.18721047253575       -2.54639259121773
C           -1.16127924429350       -3.07273014976399       -2.61660048509556
O           -2.38875975981514       -2.88025091258604       -3.13616596849915
C           -0.50912609648557       -1.84402553826410       -2.16534523900361
C            0.75996487380270       -1.92432375325672       -1.57488767416538
C            1.39693855655044       -0.79662293863815       -1.12804993342904
C            0.79048107548593        0.47291382998751       -1.24016551975949
C            1.42116423953460        1.64520128968730       -0.71746299820424
C            0.64889831198438        2.77647002146300       -0.28100949824590
C           -0.59417447738977        2.78893947728494        0.27611903349943
C           -1.38277981688891        1.67395228236837        0.72376223323102
C           -2.81927212589739        1.80859114270106        0.68886091096722
C           -3.63824927291930        1.18153019155216        1.64329855038257
C           -5.00751992427845        1.34275649867472        1.61585166204362
C           -5.60413316160898        2.12801152027159        0.63928786623799
C           -4.81131968623712        2.76329481316847       -0.30640345220773
C           -3.44100423537212        2.61441610677879       -0.28022810581367
C           -0.76644205548109        0.49445011957902        1.24801403618577
C            0.50744614245653        0.54509849433879        1.85384883591941
C            1.12609629587342       -0.59500141093306        2.29715628404953
C            0.50644597026065       -1.84278575462638        2.15729054787875
C            1.20916996679744       -3.04137158860422        2.61414074807597
O            2.33426340885554       -3.05448406779362        3.07913454431550
O            0.49841179797664       -4.17665630961667        2.47892018625225
C           -0.76765976848641       -1.90765480582131        1.57744840474074
C           -1.38930962806808       -0.76693512190950        1.13919730972496
C            2.85951040866724        1.75657938753040       -0.67432576063098
C            3.67410314424307        1.11241514911894       -1.62093248927059
C            5.04590079267453        1.24753217215973       -1.58262935721562
C            5.64927011361976        2.02327331011432       -0.60271153099966
C            4.86091448003325        2.67696155188007        0.33407613590078
C            3.48827399825762        2.55452888545963        0.29661691284888
C           -0.47958392695923        0.53915854971654       -1.85224800625673
C           -1.11372702587603       -0.58944136582800       -2.30542407276279
H           -2.76630959337235       -3.72922899683155       -3.41723512487729
H            1.21441374120402       -2.89844268205523       -1.46766910775609
H            2.35098903398879       -0.88356620459743       -0.63066312162196
H            1.12763979688525        3.73868793743699       -0.42093941702176
H           -1.05706016083587        3.76003680044280        0.40761394280752
H           -3.18183815158335        0.59926132742804        2.42992536671162
H           -5.61765984467914        0.85955218296635        2.36541934112256
H           -6.67705540941198        2.24870928425148        0.61945088075192
H           -5.27015829199695        3.37620368425794       -1.06879503570517
H           -2.83740358717264        3.09799246747939       -1.03370005392438
H            0.97957953743936        1.50231207145099        2.00631535035879
H            2.09904830731924       -0.55562766761489        2.76498805171330
H            1.02024247232094       -4.93415338432368        2.78907502640791
H           -1.24423284954231       -2.86899694921606        1.46335911144946
H           -2.34823485482035       -0.83812153954543        0.64888331601722
H            3.21348874895206        0.53638892779372       -2.40977915745117
H            5.65287144757486        0.75010288834984       -2.32542760224649
H            6.72419067509345        2.12200302666231       -0.57310853473663
H            5.32509573488456        3.28265610161247        1.09900516358459
H            2.88795030110749        3.05184865320154        1.04381882544014
H           -0.93812458065584        1.50334445180703       -2.00270463896410
H           -2.08138480692426       -0.52124170148827       -2.77803980693575

          :  Hamiltonian                  GFN2-xTB          :
         :: gradient norm              0.000085256550 Eh/a0 ::
         :: HOMO-LUMO gap              1.136614288273 eV    ::
         :: SCC energy               -93.193947334531 Eh    ::
         :: -> dispersion             -0.079285484086 Eh    ::
         :: -> Gsolv                  -0.043602612608 Eh    ::
         :: repulsion energy           1.513012908346 Eh    ::

    * Orbital Energies and Occupations

         #    Occupation            Energy/Eh            Energy/eV
      -------------------------------------------------------------
         1        2.0000           -0.7411390             -20.1674
       ...           ...                  ...                  ...
        72        2.0000           -0.4236820             -11.5290
        73        2.0000           -0.4232711             -11.5178
        74        2.0000           -0.4193219             -11.4103
        75        2.0000           -0.4184664             -11.3870
        76        2.0000           -0.4152857             -11.3005
        77        2.0000           -0.4146868             -11.2842
        78        2.0000           -0.4100603             -11.1583
        79        2.0000           -0.4097817             -11.1507
        80        2.0000           -0.4093481             -11.1389
        81        2.0000           -0.4090973             -11.1321
        82        2.0000           -0.4062754             -11.0553
        83        1.0000           -0.3477230              -9.4620
        84        1.0000           -0.3187565              -8.6738 (HOMO)
        85                         -0.2769866              -7.5372 (LUMO)
        86                         -0.2653028              -7.2193
        87                         -0.2334298              -6.3519
        88                         -0.2306106              -6.2752
        89                         -0.2303654              -6.2686
        90                         -0.2261111              -6.1528
        91                         -0.2259045              -6.1472
        92                         -0.2152233              -5.8565
        93                         -0.2019857              -5.4963
        94                         -0.1682598              -4.5786
        95                         -0.1501665              -4.0862
       ...                                ...                  ...
       158                          0.6803414              18.5130
      -------------------------------------------------------------
                  HL-Gap            0.0417698 Eh            1.1366 eV

     #   Z          covCN         q      C6AA      α(0)
     1   8 O        0.857    -0.479    23.327     6.475
     2   6 C        2.698     0.348    21.090     7.516
     3   8 O        1.659    -0.389    20.642     6.133
     4   6 C        2.971    -0.027    28.674     8.783
     5   6 C        2.919    -0.021    28.538     8.760
     6   6 C        2.920    -0.030    28.749     8.793
     7   6 C        2.972     0.024    27.463     8.596
     8   6 C        2.963     0.009    27.813     8.650
     9   6 C        2.899    -0.031    28.763     8.793
    10   6 C        2.899    -0.031    28.766     8.794
    11   6 C        2.963     0.009    27.812     8.650
    12   6 C        2.975     0.016    27.661     8.627
    13   6 C        2.923    -0.030    28.757     8.794
    14   6 C        2.916    -0.028    28.696     8.784
    15   6 C        2.919    -0.027    28.670     8.780
    16   6 C        2.915    -0.027    28.688     8.783
    17   6 C        2.924    -0.032    28.803     8.801
    18   6 C        2.972     0.024    27.460     8.596
    19   6 C        2.921    -0.031    28.771     8.796
    20   6 C        2.919    -0.020    28.517     8.757
    21   6 C        2.972    -0.027    28.674     8.783
    22   6 C        2.698     0.348    21.083     7.515
    23   8 O        0.857    -0.477    23.279     6.469
    24   8 O        1.659    -0.392    20.695     6.141
    25   6 C        2.916    -0.023    28.581     8.767
    26   6 C        2.921    -0.031    28.772     8.796
    27   6 C        2.975     0.015    27.667     8.628
    28   6 C        2.923    -0.030    28.754     8.794
    29   6 C        2.916    -0.028    28.697     8.785
    30   6 C        2.919    -0.027    28.667     8.780
    31   6 C        2.916    -0.028    28.689     8.783
    32   6 C        2.924    -0.032    28.802     8.801
    33   6 C        2.922    -0.031    28.785     8.798
    34   6 C        2.915    -0.023    28.568     8.765
    35   1 H        0.804     0.333     0.629     1.246
    36   1 H        0.926     0.043     2.414     2.430
    37   1 H        0.926     0.044     2.397     2.421
    38   1 H        0.925     0.057     2.237     2.339
    39   1 H        0.925     0.057     2.234     2.337
    40   1 H        0.926     0.039     2.468     2.456
    41   1 H        0.926     0.036     2.506     2.476
    42   1 H        0.926     0.037     2.494     2.470
    43   1 H        0.926     0.038     2.473     2.459
    44   1 H        0.926     0.042     2.428     2.437
    45   1 H        0.926     0.053     2.286     2.365
    46   1 H        0.926     0.050     2.321     2.382
    47   1 H        0.804     0.333     0.630     1.247
    48   1 H        0.926     0.050     2.325     2.384
    49   1 H        0.926     0.048     2.346     2.395
    50   1 H        0.926     0.038     2.471     2.458
    51   1 H        0.926     0.036     2.509     2.477
    52   1 H        0.926     0.037     2.494     2.470
    53   1 H        0.926     0.038     2.475     2.460
    54   1 H        0.926     0.041     2.433     2.439
    55   1 H        0.926     0.054     2.269     2.356
    56   1 H        0.926     0.058     2.220     2.330

molecular dipole:
                 x           y           z       tot (Debye)
 q only:       -1.224       3.316      -0.411
   full:       -1.253       2.833      -0.424       7.946

 projected vibrational frequencies (cm⁻¹)
eigval :       -0.00    -0.00    -0.00    -0.00     0.00     0.00
eigval :       16.25    19.91    24.81    34.94    40.36    44.13
eigval :       51.01    54.95    60.25    76.09    79.15   109.60
eigval :      115.41   117.04   127.98   152.81   157.36   181.05
eigval :      216.75   238.93   240.90   253.80   261.45   280.84
eigval :      286.83   336.91   369.36   371.08   376.27   385.28
eigval :      389.16   391.88   417.29   426.05   430.42   462.82
eigval :      474.99   483.55   490.57   535.46   543.21   570.76
eigval :      575.00   581.78   584.01   586.97   589.92   595.63
eigval :      600.65   613.91   650.97   661.75   662.78   665.08
eigval :      674.54   674.90   704.75   720.52   723.58   748.07
eigval :      751.67   773.86   783.60   805.62   824.86   828.70
eigval :      857.14   858.70   867.18   869.53   889.78   899.62
eigval :      902.16   914.89   920.12   922.33   924.16   925.56
eigval :      926.72   927.55   929.92   937.53   938.55   979.58
eigval :      983.82  1002.61  1005.46  1072.11  1075.63  1080.77
eigval :     1081.45  1085.00  1117.16  1123.85  1132.15  1134.36
eigval :     1137.30  1140.19  1141.15  1177.66  1178.27  1188.47
eigval :     1191.37  1197.76  1198.95  1233.17  1257.84  1261.79
eigval :     1266.88  1272.23  1274.39  1277.98  1280.15  1289.59
eigval :     1321.97  1322.02  1324.24  1334.36  1336.39  1352.55
eigval :     1374.29  1417.12  1418.15  1425.51  1426.35  1447.39
eigval :     1447.70  1454.15  1456.81  1513.09  1513.69  1522.51
eigval :     1550.10  1550.94  1561.29  1566.53  1577.78  1583.46
eigval :     1678.07  1681.22  3030.74  3042.82  3071.25  3071.37
eigval :     3072.83  3073.12  3082.07  3083.94  3084.01  3085.48
eigval :     3086.89  3087.18  3089.53  3093.10  3093.38  3094.60
eigval :     3097.30  3103.05  3106.30  3108.36  3441.40  3441.66

   temp. (K)  partition function   enthalpy   heat capacity  entropy
                                   cal/mol     cal/K/mol   cal/K/mol   J/K/mol
 298.15  VIB  0.157E+14            16801.558    103.494    105.428
         ROT  0.239E+08              888.752      2.981     36.747
         INT  0.377E+21            17690.311    106.475    142.175
         TR   0.913E+28             1481.254      4.968     44.158
         TOT                       19171.5645   111.4428   186.3327   779.6162

       T/K    H(0)-H(T)+PV         H(T)/Eh          T*S/Eh         G(T)/Eh
   ------------------------------------------------------------------------
    298.15    0.305518E-01    0.452080E+00    0.885327E-01    0.363547E+00
   ------------------------------------------------------------------------

         :::::::::::::::::::::::::::::::::::::::::::::::::::::
         ::                  THERMODYNAMIC                  ::
         :::::::::::::::::::::::::::::::::::::::::::::::::::::
         :: total free energy         -91.317387270766 Eh   ::
         ::.................................................::
         :: total energy              -91.680934426743 Eh   ::
         :: zero point energy           0.421528022012 Eh   ::
         :: G(RRHO) w/o ZPVE           -0.057980866035 Eh   ::
         :: G(RRHO) contrib.            0.363547155977 Eh   ::
         :::::::::::::::::::::::::::::::::::::::::::::::::::::

           -------------------------------------------------
          | TOTAL ENERGY              -91.680934426743 Eh   |
          | TOTAL ENTHALPY            -91.228854571934 Eh   |
          | TOTAL FREE ENERGY         -91.317387270766 Eh   |
          | GRADIENT NORM               0.000085252991 Eh/α |
          | HOMO-LUMO GAP               1.136614816420 eV   |
           -------------------------------------------------

 * finished run on 2025/09/09 at 22:11:35.063
