   * xtb version 6.7.1 (edcfbbe) compiled by 'albert@albert-system' on 2024-07-22

   ID    Z sym.   atoms
    1    8 O      1, 3, 23, 24
    2    6 C      2, 4-22, 25-34
    3    1 H      35-56

          program call               : xtb data2507/toluene/TABD-COOH/TABD-COOH_toluene_S0_finalOpt.xtbopt.xyz --gfn 2 --uhf 2 --gbsa toluene --ohess vtight --parallel 40 --molden --ceasefiles --namespace data2507/toluene/TABD-COOH/TABD-COOH_toluene_T1_preOpt
      * Solvation model:               GBSA
        Solvent                        toluene
        Solvent mass                       9.2140E+01 g/mol
          :  Hamiltonian                  GFN2-xTB          :
 * total energy  :   -91.6535170 Eh     change       -0.1419124E-08 Eh
 * total energy  :   -91.6654298 Eh     change       -0.1191279E-01 Eh
 * total energy  :   -91.6717110 Eh     change       -0.6281113E-02 Eh
 * total energy  :   -91.6738392 Eh     change       -0.2128281E-02 Eh
 * total energy  :   -91.6755851 Eh     change       -0.1745838E-02 Eh
 * total energy  :   -91.6767488 Eh     change       -0.1163739E-02 Eh
 * total energy  :   -91.6775646 Eh     change       -0.8157825E-03 Eh
 * total energy  :   -91.6782462 Eh     change       -0.6816288E-03 Eh
 * total energy  :   -91.6789399 Eh     change       -0.6936914E-03 Eh
 * total energy  :   -91.6795676 Eh     change       -0.6276724E-03 Eh
 * total energy  :   -91.6809394 Eh     change       -0.5685760E-06 Eh
 * total energy  :   -91.6809399 Eh     change       -0.5634583E-06 Eh
 * total energy  :   -91.6809405 Eh     change       -0.5566351E-06 Eh
 * total energy  :   -91.6809410 Eh     change       -0.5477633E-06 Eh
 * total energy  :   -91.6809416 Eh     change       -0.5347148E-06 Eh
 * total energy  :   -91.6809421 Eh     change       -0.5171811E-06 Eh
 * total energy  :   -91.6809426 Eh     change       -0.4998492E-06 Eh
 * total energy  :   -91.6809431 Eh     change       -0.4787173E-06 Eh
 * total energy  :   -91.6809431 Eh     change       -0.4588571E-08 Eh
   *** GEOMETRY OPTIMIZATION CONVERGED AFTER 94 ITERATIONS ***

 final structure:
================
56
 xtb: 6.7.1 (edcfbbe)
O           -0.03464044829064       -4.23804967518188       -2.52132732277426
C           -0.51321461892529       -3.13521475008348       -2.71366389702441
O           -1.61366414511302       -2.97818216124593       -3.47385759947177
C            0.01393146367416       -1.88554531849534       -2.16715946068291
C            1.13614432140189       -1.93139477805074       -1.32787478245841
C            1.64913719775110       -0.78440874766449       -0.78212704441147
C            1.05657087543847        0.47043608985904       -1.03968482021981
C            1.54543092183046        1.66086051478167       -0.41620772154969
C            0.68454588330974        2.78288164706173       -0.16207410449714
C           -0.64905277081838        2.78926932700824        0.11740963760190
C           -1.51587968048010        1.67703789758086        0.39207366408577
C           -2.91425360540107        1.82183508668434        0.06329888932215
C           -3.91557151243466        1.20954037781067        0.83598372158570
C           -5.24941574949125        1.38713849056227        0.53421473616526
C           -5.62791065074054        2.17309431087381       -0.54525220542524
C           -4.65359501954141        2.79162744182294       -1.31637230473548
C           -3.31831641839597        2.62643166822841       -1.01558092157876
C           -1.03132950476605        0.49390520852898        1.03290253324333
C            0.08738310299344        0.53368021698408        1.89257200317632
C            0.58787239519269       -0.61184273112589        2.45526634998174
C            0.00011532182013       -1.85401615183332        2.18639935458868
C            0.57974343546516       -3.05969568422430        2.77728672240063
O            1.58135086691151       -3.08479401668604        3.46895106749451
O           -0.09697009335244       -4.18784635742224        2.49086413671512
C           -1.12462826527051       -1.90763158967037        1.35213385471958
C           -1.62979939133705       -0.76161234835543        0.79481948437361
C            2.94340135482639        1.80248617097430       -0.08455530442552
C            3.94394461233036        1.17153400682875       -0.84298239070455
C            5.27753686096169        1.34382615798817       -0.53724802987990
C            5.65650080795992        2.14329924167740        0.53201596543747
C            4.68307616378262        2.78123950837010        1.28826445349243
C            3.34817221017174        2.62135030546621        0.98322614306668
C           -0.05939372618099        0.50267849506127       -1.90311083956760
C           -0.56741083709531       -0.64537481346655       -2.45575917096504
H           -1.91291097610375       -3.84025719014909       -3.80496111380536
H            1.57451764713538       -2.89459012403714       -1.11116230991000
H            2.48263375715017       -0.84385176433497       -0.09875512785765
H            1.17296160168427        3.74958805675007       -0.20329784900391
H           -1.13138978458461        3.75958425812584        0.14202848226224
H           -3.63317305525603        0.62723012636762        1.70045735020831
H           -6.00370803883119        0.91628731768430        1.14816397530686
H           -6.67348241339362        2.30760671606054       -0.77932088696149
H           -4.94241781736773        3.40442305489327       -2.15811311365830
H           -2.56923599680654        3.09692088944547       -1.63490809678110
H            0.52664043228593        1.48674168021792        2.14026731742918
H            1.44123667211886       -0.58147660767107        3.11701009267100
H            0.34203972916073       -4.95114751588310        2.89938740840176
H           -1.57582763318802       -2.86462594431136        1.14033415158955
H           -2.46601652206508       -0.82349504546647        0.11510875947187
H            3.66179952369529        0.57730792524579       -1.69943883323148
H            6.03123905850805        0.85731204146288       -1.13959571162063
H            6.70182168136518        2.27263241311853        0.77006027928444
H            4.97224884220549        3.40465699871206        2.12202969845609
H            2.59979547363686        3.10660563327612        1.59200129640250
H           -0.49197653019909        1.45554727710258       -2.16329521095017
H           -1.41681316264694       -0.60429089426562       -3.12002067368019

          :  Hamiltonian                  GFN2-xTB          :
         :: gradient norm              0.000055148473 Eh/a0 ::
         :: HOMO-LUMO gap              1.137329185679 eV    ::
         :: SCC energy               -93.193970881425 Eh    ::
         :: -> dispersion             -0.079295792393 Eh    ::
         :: -> Gsolv                  -0.043739725580 Eh    ::
         :: repulsion energy           1.513027826760 Eh    ::

    * Orbital Energies and Occupations

         #    Occupation            Energy/Eh            Energy/eV
      -------------------------------------------------------------
         1        2.0000           -0.7411088             -20.1666
       ...           ...                  ...                  ...
        72        2.0000           -0.4237143             -11.5299
        73        2.0000           -0.4234269             -11.5220
        74        2.0000           -0.4196181             -11.4184
        75        2.0000           -0.4183996             -11.3852
        76        2.0000           -0.4154881             -11.3060
        77        2.0000           -0.4141546             -11.2697
        78        2.0000           -0.4100206             -11.1572
        79        2.0000           -0.4099381             -11.1550
        80        2.0000           -0.4094718             -11.1423
        81        2.0000           -0.4091208             -11.1327
        82        2.0000           -0.4060621             -11.0495
        83        1.0000           -0.3482553              -9.4765
        84        1.0000           -0.3186090              -8.6698 (HOMO)
        85                         -0.2768130              -7.5325 (LUMO)
        86                         -0.2652956              -7.2191
        87                         -0.2334789              -6.3533
        88                         -0.2307256              -6.2784
        89                         -0.2302352              -6.2650
        90                         -0.2261994              -6.1552
        91                         -0.2260167              -6.1502
        92                         -0.2153186              -5.8591
        93                         -0.2016012              -5.4858
        94                         -0.1684644              -4.5841
        95                         -0.1498119              -4.0766
       ...                                ...                  ...
       158                          0.6809710              18.5302
      -------------------------------------------------------------
                  HL-Gap            0.0417961 Eh            1.1373 eV

     #   Z          covCN         q      C6AA      α(0)
     1   8 O        0.857    -0.479    23.334     6.476
     2   6 C        2.698     0.348    21.091     7.516
     3   8 O        1.659    -0.389    20.642     6.133
     4   6 C        2.972    -0.027    28.676     8.784
     5   6 C        2.919    -0.021    28.540     8.761
     6   6 C        2.920    -0.030    28.747     8.792
     7   6 C        2.972     0.024    27.463     8.596
     8   6 C        2.963     0.009    27.808     8.650
     9   6 C        2.899    -0.031    28.766     8.794
    10   6 C        2.899    -0.031    28.768     8.794
    11   6 C        2.963     0.009    27.807     8.649
    12   6 C        2.975     0.016    27.661     8.627
    13   6 C        2.923    -0.030    28.753     8.793
    14   6 C        2.916    -0.028    28.695     8.784
    15   6 C        2.919    -0.027    28.668     8.780
    16   6 C        2.915    -0.027    28.687     8.783
    17   6 C        2.924    -0.032    28.803     8.801
    18   6 C        2.972     0.024    27.462     8.596
    19   6 C        2.921    -0.031    28.773     8.796
    20   6 C        2.919    -0.020    28.518     8.757
    21   6 C        2.972    -0.027    28.677     8.784
    22   6 C        2.698     0.348    21.084     7.515
    23   8 O        0.857    -0.477    23.281     6.469
    24   8 O        1.659    -0.392    20.700     6.142
    25   6 C        2.916    -0.023    28.584     8.767
    26   6 C        2.921    -0.031    28.771     8.796
    27   6 C        2.975     0.015    27.667     8.628
    28   6 C        2.923    -0.030    28.751     8.793
    29   6 C        2.916    -0.028    28.696     8.784
    30   6 C        2.919    -0.027    28.665     8.780
    31   6 C        2.916    -0.027    28.688     8.783
    32   6 C        2.924    -0.032    28.803     8.801
    33   6 C        2.921    -0.032    28.786     8.798
    34   6 C        2.915    -0.023    28.568     8.765
    35   1 H        0.804     0.333     0.629     1.246
    36   1 H        0.926     0.042     2.419     2.432
    37   1 H        0.926     0.044     2.392     2.418
    38   1 H        0.925     0.057     2.239     2.340
    39   1 H        0.925     0.057     2.235     2.338
    40   1 H        0.926     0.039     2.468     2.457
    41   1 H        0.926     0.036     2.504     2.475
    42   1 H        0.926     0.037     2.493     2.469
    43   1 H        0.926     0.038     2.473     2.459
    44   1 H        0.926     0.042     2.428     2.436
    45   1 H        0.926     0.053     2.287     2.365
    46   1 H        0.926     0.050     2.322     2.383
    47   1 H        0.804     0.333     0.630     1.247
    48   1 H        0.926     0.049     2.328     2.386
    49   1 H        0.926     0.048     2.341     2.393
    50   1 H        0.926     0.038     2.472     2.458
    51   1 H        0.926     0.036     2.507     2.476
    52   1 H        0.926     0.037     2.493     2.469
    53   1 H        0.926     0.038     2.474     2.460
    54   1 H        0.926     0.041     2.432     2.439
    55   1 H        0.926     0.054     2.269     2.356
    56   1 H        0.926     0.058     2.220     2.330

molecular dipole:
                 x           y           z       tot (Debye)
 q only:       -1.132       3.361      -0.703
   full:       -1.157       2.872      -0.717       8.079

 projected vibrational frequencies (cm⁻¹)
eigval :       -0.00    -0.00    -0.00     0.00     0.00     0.00
eigval :       14.85    19.32    25.28    35.36    41.26    44.57
eigval :       52.94    55.71    61.93    75.95    79.97   108.55
eigval :      116.61   118.79   128.00   152.92   156.79   180.86
eigval :      216.22   238.94   240.64   254.97   262.32   281.68
eigval :      287.36   335.61   369.95   371.23   376.94   385.04
eigval :      389.54   391.61   417.71   425.92   429.95   462.69
eigval :      475.73   483.59   490.94   535.02   543.67   568.63
eigval :      574.14   578.15   583.80   587.21   587.84   595.76
eigval :      600.85   614.11   650.64   661.80   662.82   664.82
eigval :      674.34   674.63   703.92   720.09   723.36   746.98
eigval :      750.08   774.86   783.43   805.11   822.66   826.39
eigval :      855.47   856.49   866.73   868.61   890.02   898.74
eigval :      901.92   912.72   914.79   917.57   921.24   922.62
eigval :      923.89   926.13   929.73   936.84   939.17   979.83
eigval :      984.13  1002.90  1005.81  1071.34  1075.17  1080.11
eigval :     1080.82  1084.24  1117.75  1123.98  1132.53  1133.49
eigval :     1136.84  1139.79  1141.21  1176.75  1177.80  1188.69
eigval :     1191.11  1197.15  1198.37  1236.50  1257.96  1263.14
eigval :     1266.96  1272.39  1274.43  1277.69  1279.79  1288.81
eigval :     1321.94  1321.94  1325.19  1334.66  1336.43  1354.91
eigval :     1376.15  1417.14  1418.35  1425.66  1426.48  1447.34
eigval :     1447.65  1454.11  1457.03  1513.04  1513.55  1523.25
eigval :     1550.28  1551.09  1561.04  1566.59  1577.71  1583.50
eigval :     1677.58  1680.90  3029.78  3042.13  3070.73  3071.09
eigval :     3072.90  3073.11  3081.92  3082.89  3083.39  3083.80
eigval :     3086.61  3087.04  3089.33  3092.30  3092.93  3094.55
eigval :     3095.61  3102.17  3105.47  3107.25  3440.78  3441.02

   temp. (K)  partition function   enthalpy   heat capacity  entropy
                                   cal/mol     cal/K/mol   cal/K/mol   J/K/mol
 298.15  VIB  0.154E+14            16799.265    103.667    105.470
         ROT  0.241E+08              888.752      2.981     36.757
         INT  0.369E+21            17688.017    106.648    142.227
         TR   0.913E+28             1481.254      4.968     44.158
         TOT                       19169.2712   111.6158   186.3846   779.8330

       T/K    H(0)-H(T)+PV         H(T)/Eh          T*S/Eh         G(T)/Eh
   ------------------------------------------------------------------------
    298.15    0.305482E-01    0.451972E+00    0.885573E-01    0.363415E+00
   ------------------------------------------------------------------------

         :::::::::::::::::::::::::::::::::::::::::::::::::::::
         ::                  THERMODYNAMIC                  ::
         :::::::::::::::::::::::::::::::::::::::::::::::::::::
         :: total free energy         -91.317528105279 Eh   ::
         ::.................................................::
         :: total energy              -91.680943053418 Eh   ::
         :: zero point energy           0.421424084553 Eh   ::
         :: G(RRHO) w/o ZPVE           -0.058009136414 Eh   ::
         :: G(RRHO) contrib.            0.363414948140 Eh   ::
         :::::::::::::::::::::::::::::::::::::::::::::::::::::

           -------------------------------------------------
          | TOTAL ENERGY              -91.680943053418 Eh   |
          | TOTAL ENTHALPY            -91.228970790710 Eh   |
          | TOTAL FREE ENERGY         -91.317528105279 Eh   |
          | GRADIENT NORM               0.000055149049 Eh/α |
          | HOMO-LUMO GAP               1.137329105224 eV   |
           -------------------------------------------------

 * finished run on 2025/09/09 at 22:09:22.346
