   * xtb version 6.7.1 (edcfbbe) compiled by 'albert@albert-system' on 2024-07-22

   ID    Z sym.   atoms
    1    8 O      1, 3, 23, 24
    2    6 C      2, 4-22, 25-34
    3    1 H      35-56

          program call               : xtb data2507/toluene/TABD-COOH/TABD-COOH.xyz --gfn 2 --gbsa toluene --ohess vtight --parallel 40 --molden --ceasefiles --namespace data2507/toluene/TABD-COOH/TABD-COOH_toluene_S0_preOpt
      * Solvation model:               GBSA
        Solvent                        toluene
        Solvent mass                       9.2140E+01 g/mol
          :  Hamiltonian                  GFN2-xTB          :
 * total energy  :   -91.7206430 Eh     change       -0.3410989E-08 Eh
 * total energy  :   -91.7284116 Eh     change       -0.7768562E-02 Eh
 * total energy  :   -91.7306237 Eh     change       -0.2212127E-02 Eh
 * total energy  :   -91.7313157 Eh     change       -0.6920126E-03 Eh
 * total energy  :   -91.7318328 Eh     change       -0.5170658E-03 Eh
 * total energy  :   -91.7322212 Eh     change       -0.3884200E-03 Eh
 * total energy  :   -91.7327113 Eh     change       -0.4901011E-03 Eh
 * total energy  :   -91.7333864 Eh     change       -0.6751546E-03 Eh
 * total energy  :   -91.7341639 Eh     change       -0.7774834E-03 Eh
 * total energy  :   -91.7349534 Eh     change       -0.7894682E-03 Eh
 * total energy  :   -91.7376948 Eh     change       -0.9246982E-06 Eh
 * total energy  :   -91.7376956 Eh     change       -0.8486898E-06 Eh
 * total energy  :   -91.7376964 Eh     change       -0.8016487E-06 Eh
 * total energy  :   -91.7376972 Eh     change       -0.8083585E-06 Eh
 * total energy  :   -91.7376981 Eh     change       -0.8408632E-06 Eh
 * total energy  :   -91.7376989 Eh     change       -0.8524560E-06 Eh
 * total energy  :   -91.7376998 Eh     change       -0.8456538E-06 Eh
 * total energy  :   -91.7377006 Eh     change       -0.7936350E-06 Eh
 * total energy  :   -91.7377006 Eh     change       -0.2565201E-08 Eh
   *** GEOMETRY OPTIMIZATION CONVERGED AFTER 68 ITERATIONS ***

 final structure:
================
56
 xtb: 6.7.1 (edcfbbe)
O            6.18485154931691        2.62045723973681        1.75344357256362
C            6.09419966226260        1.79232327060032        0.87060726235270
O            7.12298874691912        1.52360941930007        0.05349206315224
C            4.88679193311590        0.99969421199537        0.58502289740043
C            3.74714332216617        1.20417450738892        1.36424973075901
C            2.59841269034768        0.48175190599994        1.12089044421207
C            2.55929457957825       -0.46512564495010        0.09439149756426
C            1.34524234245511       -1.24498759425931       -0.18146232489453
C            0.11842758888199       -0.67507511531825       -0.27326640874614
C           -0.14378057220670        0.72893190426620       -0.25986088867169
C           -1.37390937433621        1.29580044731043       -0.19868233109655
C           -1.54080695428425        2.74884445006496       -0.32484675536811
C           -0.71936285263683        3.50433578453473       -1.16283180001329
C           -0.88269625428828        4.87320343350778       -1.26252692757745
C           -1.86574618718030        5.51561215238744       -0.52706957116463
C           -2.68949426665898        4.77682544505037        0.30706197937710
C           -2.53250396113058        3.40737469408778        0.40504272308309
C           -2.59660190761327        0.50869716506599        0.00973356500711
C           -2.67355809345769       -0.46730665954691        1.00618585625226
C           -3.82689769691010       -1.20218502064595        1.18798015306778
C           -4.93513874588463       -0.97583753658325        0.37149010296315
C           -6.18292290318254       -1.74109267140481        0.52998658492903
O           -7.17986745585414       -1.58508267981859       -0.14469059996586
O           -6.13513571705190       -2.65681087770623        1.50841427516718
C           -4.86855990229758        0.00491940039676       -0.62056918664923
C           -3.71681083446356        0.74010307144631       -0.79391692949194
C            1.51459017505114       -2.69530582814057       -0.33405146192696
C            0.71951631807523       -3.43140111600204       -1.21386653715070
C            0.88094141063086       -4.79886971555288       -1.33376280857358
C            1.83562457346551       -5.45943506514069       -0.57728894558616
C            2.63414252116434       -4.73985605512356        0.29721492117889
C            2.47904823891833       -3.37178714994474        0.41576441671580
C            3.70911555022477       -0.67471577563936       -0.67216204693113
C            4.85775110832484        0.05014693246039       -0.43787122009734
H            7.88985384877648        2.07304997388540        0.28421283934621
H            3.78832152846807        1.93460969875273        2.15882532045287
H            1.72796245339347        0.62980576156122        1.74199631433331
H           -0.73562340505162       -1.32391081737093       -0.41221454047579
H            0.71388632288845        1.38172496892756       -0.34960345116997
H            0.03578100421716        3.01186278407440       -1.75767184017164
H           -0.24239839219481        5.44270731161971       -1.92097485648565
H           -1.99107896425126        6.58562163532709       -0.60595265911929
H           -3.45816068733910        5.27095492845927        0.88387814201431
H           -3.17354968052627        2.83955777221890        1.06427226823386
H           -1.82642141663726       -0.62986303484338        1.65552223951884
H           -3.88196647847023       -1.95178731487342        1.96194993993948
H           -6.98041046526190       -3.13129308991536        1.56825969273190
H           -5.73563459076194        0.17068512786625       -1.24275152230288
H           -3.66844132727548        1.49511278413372       -1.56472494893576
H           -0.01307858696220       -2.92469229771318       -1.82475425458737
H            0.26099580781204       -5.35296512666141       -2.02405316361316
H            1.95895052541561       -6.52844976579224       -0.67151371226515
H            3.38079645242249       -5.24814166430714        0.89038747381331
H            3.09923602484571       -2.81925207407186        1.10712174946076
H            3.68742131017379       -1.40716825550446       -1.46574287196851
H            5.73927008486045       -0.11010123559914       -1.03871346059743

          :  Hamiltonian                  GFN2-xTB          :
         :: gradient norm              0.000043820268 Eh/a0 ::
         :: HOMO-LUMO gap              1.931173983868 eV    ::
         :: SCC energy               -93.266743675315 Eh    ::
         :: -> dispersion             -0.068110226073 Eh    ::
         :: -> Gsolv                  -0.044645357162 Eh    ::
         :: repulsion energy           1.529043097198 Eh    ::

    * Orbital Energies and Occupations

         #    Occupation            Energy/Eh            Energy/eV
      -------------------------------------------------------------
         1        2.0000           -0.7472696             -20.3342
       ...           ...                  ...                  ...
        71        2.0000           -0.4251197             -11.5681
        72        2.0000           -0.4243223             -11.5464
        73        2.0000           -0.4236978             -11.5294
        74        2.0000           -0.4204991             -11.4424
        75        2.0000           -0.4198772             -11.4254
        76        2.0000           -0.4191339             -11.4052
        77        2.0000           -0.4133395             -11.2475
        78        2.0000           -0.4115122             -11.1978
        79        2.0000           -0.4110524             -11.1853
        80        2.0000           -0.4058108             -11.0427
        81        2.0000           -0.4054533             -11.0329
        82        2.0000           -0.4028130             -10.9611
        83        2.0000           -0.3650590              -9.9338 (HOMO)
        84                         -0.2940896              -8.0026 (LUMO)
        85                         -0.2794769              -7.6050
        86                         -0.2641093              -7.1868
        87                         -0.2355426              -6.4094
        88                         -0.2353858              -6.4052
        89                         -0.2274525              -6.1893
        90                         -0.2234077              -6.0792
        91                         -0.2232195              -6.0741
        92                         -0.2088457              -5.6830
        93                         -0.1995320              -5.4295
        94                         -0.1762948              -4.7972
       ...                                ...                  ...
       158                          0.6908658              18.7994
      -------------------------------------------------------------
                  HL-Gap            0.0709693 Eh            1.9312 eV

     #   Z          covCN         q      C6AA      α(0)
     1   8 O        0.857    -0.465    23.020     6.433
     2   6 C        2.698     0.353    20.999     7.500
     3   8 O        1.659    -0.381    20.487     6.110
     4   6 C        2.972    -0.024    28.600     8.772
     5   6 C        2.921    -0.019    28.485     8.752
     6   6 C        2.921    -0.029    28.719     8.788
     7   6 C        2.976     0.030    27.327     8.575
     8   6 C        2.962     0.002    27.979     8.676
     9   6 C        2.905    -0.037    28.910     8.816
    10   6 C        2.905    -0.036    28.906     8.816
    11   6 C        2.962     0.002    27.978     8.676
    12   6 C        2.978     0.012    27.749     8.641
    13   6 C        2.924    -0.035    28.862     8.810
    14   6 C        2.918    -0.029    28.736     8.791
    15   6 C        2.919    -0.030    28.755     8.794
    16   6 C        2.918    -0.030    28.741     8.791
    17   6 C        2.925    -0.032    28.806     8.802
    18   6 C        2.976     0.030    27.328     8.575
    19   6 C        2.922    -0.029    28.735     8.791
    20   6 C        2.918    -0.021    28.529     8.759
    21   6 C        2.972    -0.024    28.599     8.772
    22   6 C        2.698     0.353    20.999     7.500
    23   8 O        0.857    -0.465    23.027     6.434
    24   8 O        1.659    -0.381    20.479     6.109
    25   6 C        2.921    -0.019    28.482     8.752
    26   6 C        2.922    -0.027    28.684     8.783
    27   6 C        2.978     0.012    27.744     8.640
    28   6 C        2.924    -0.035    28.861     8.810
    29   6 C        2.918    -0.029    28.735     8.790
    30   6 C        2.919    -0.030    28.755     8.794
    31   6 C        2.918    -0.030    28.740     8.791
    32   6 C        2.925    -0.032    28.806     8.802
    33   6 C        2.923    -0.028    28.701     8.786
    34   6 C        2.918    -0.021    28.527     8.758
    35   1 H        0.804     0.336     0.621     1.238
    36   1 H        0.926     0.052     2.292     2.367
    37   1 H        0.926     0.054     2.273     2.358
    38   1 H        0.925     0.047     2.352     2.398
    39   1 H        0.925     0.047     2.362     2.403
    40   1 H        0.926     0.036     2.497     2.471
    41   1 H        0.926     0.033     2.546     2.495
    42   1 H        0.926     0.032     2.555     2.500
    43   1 H        0.926     0.032     2.558     2.501
    44   1 H        0.926     0.031     2.569     2.506
    45   1 H        0.926     0.055     2.259     2.350
    46   1 H        0.926     0.060     2.200     2.320
    47   1 H        0.804     0.336     0.621     1.238
    48   1 H        0.926     0.051     2.304     2.374
    49   1 H        0.926     0.048     2.347     2.396
    50   1 H        0.926     0.036     2.498     2.471
    51   1 H        0.926     0.033     2.546     2.495
    52   1 H        0.926     0.032     2.554     2.499
    53   1 H        0.926     0.032     2.555     2.500
    54   1 H        0.926     0.031     2.567     2.506
    55   1 H        0.926     0.049     2.330     2.387
    56   1 H        0.926     0.059     2.214     2.327

molecular dipole:
                 x           y           z       tot (Debye)
 q only:        0.695      -0.758      -0.389
   full:        0.723      -0.782      -0.332       2.836

 projected vibrational frequencies (cm⁻¹)
eigval :       -0.00    -0.00    -0.00     0.00     0.00     0.00
eigval :       11.80    16.54    26.28    29.23    34.11    37.90
eigval :       44.58    46.83    52.41    70.40    71.76    75.34
eigval :       86.10   117.85   129.16   149.66   158.57   201.88
eigval :      208.56   221.38   234.50   249.11   257.82   269.76
eigval :      290.42   329.80   368.97   370.03   371.36   375.08
eigval :      389.06   390.77   414.52   433.98   434.26   466.48
eigval :      473.21   486.59   500.08   549.94   577.57   581.10
eigval :      582.67   589.89   591.54   594.17   598.78   605.82
eigval :      619.16   624.01   633.38   668.76   669.64   676.44
eigval :      676.87   696.71   703.46   732.62   733.73   760.04
eigval :      761.91   792.42   812.13   826.85   832.46   860.13
eigval :      870.71   873.57   875.22   879.40   899.91   902.78
eigval :      914.33   916.34   920.07   923.93   927.61   928.67
eigval :      929.57   930.80   932.70   935.33   942.43   988.14
eigval :      993.93  1013.69  1014.92  1084.43  1084.95  1095.80
eigval :     1097.28  1122.17  1123.41  1135.20  1136.45  1137.90
eigval :     1140.03  1149.68  1174.51  1180.70  1182.09  1193.46
eigval :     1194.35  1199.25  1204.77  1223.95  1233.44  1261.32
eigval :     1262.52  1270.75  1271.77  1282.77  1283.48  1285.85
eigval :     1316.56  1317.39  1323.46  1327.69  1334.08  1355.09
eigval :     1399.50  1400.45  1427.75  1429.22  1464.84  1468.20
eigval :     1473.02  1473.21  1547.64  1553.73  1554.95  1574.02
eigval :     1574.99  1579.59  1583.99  1588.66  1597.57  1602.21
eigval :     1702.08  1702.96  3062.79  3068.19  3068.27  3069.41
eigval :     3069.77  3074.01  3077.77  3077.89  3082.10  3082.38
eigval :     3083.70  3085.12  3086.15  3089.62  3089.98  3090.62
eigval :     3094.24  3096.43  3105.20  3105.29  3433.36  3433.52

   temp. (K)  partition function   enthalpy   heat capacity  entropy
                                   cal/mol     cal/K/mol   cal/K/mol   J/K/mol
 298.15  VIB  0.107E+15            16867.763    101.543    107.059
         ROT  0.390E+08              888.752      2.981     37.717
         INT  0.418E+22            17756.515    104.523    144.776
         TR   0.913E+28             1481.254      4.968     44.158
         TOT                       19237.7688   109.4916   188.9338   790.4988

       T/K    H(0)-H(T)+PV         H(T)/Eh          T*S/Eh         G(T)/Eh
   ------------------------------------------------------------------------
    298.15    0.306573E-01    0.454336E+00    0.897685E-01    0.364567E+00
   ------------------------------------------------------------------------

         :::::::::::::::::::::::::::::::::::::::::::::::::::::
         ::                  THERMODYNAMIC                  ::
         :::::::::::::::::::::::::::::::::::::::::::::::::::::
         :: total free energy         -91.373133303621 Eh   ::
         ::.................................................::
         :: total energy              -91.737700584706 Eh   ::
         :: zero point energy           0.423678467262 Eh   ::
         :: G(RRHO) w/o ZPVE           -0.059111186176 Eh   ::
         :: G(RRHO) contrib.            0.364567281085 Eh   ::
         :::::::::::::::::::::::::::::::::::::::::::::::::::::

           -------------------------------------------------
          | TOTAL ENERGY              -91.737700584706 Eh   |
          | TOTAL ENTHALPY            -91.283364781450 Eh   |
          | TOTAL FREE ENERGY         -91.373133303621 Eh   |
          | GRADIENT NORM               0.000043824682 Eh/α |
          | HOMO-LUMO GAP               1.931174055112 eV   |
           -------------------------------------------------

 * finished run on 2025/09/09 at 22:06:27.220
