   * xtb version 6.7.1 (edcfbbe) compiled by 'albert@albert-system' on 2024-07-22

   ID    Z sym.   atoms
    1    8 O      1, 3, 23, 24
    2    6 C      2, 4-22, 25-34
    3    1 H      35-56

          program call               : xtb data2507/toluene/TABD-COOH/TABD-COOH_toluene_S0_crest.xyz --gfn 2 --gbsa toluene --ohess vtight --parallel 40 --molden --ceasefiles --namespace data2507/toluene/TABD-COOH/TABD-COOH_toluene_S0_finalOpt
      * Solvation model:               GBSA
        Solvent                        toluene
        Solvent mass                       9.2140E+01 g/mol
          :  Hamiltonian                  GFN2-xTB          :
 * total energy  :   -91.7350107 Eh     change       -0.5288996E-09 Eh
 * total energy  :   -91.7351038 Eh     change       -0.9314114E-04 Eh
 * total energy  :   -91.7351465 Eh     change       -0.4268614E-04 Eh
 * total energy  :   -91.7351648 Eh     change       -0.1830107E-04 Eh
 * total energy  :   -91.7351763 Eh     change       -0.1151664E-04 Eh
 * total energy  :   -91.7351901 Eh     change       -0.1376349E-04 Eh
 * total energy  :   -91.7352008 Eh     change       -0.1069865E-04 Eh
 * total energy  :   -91.7352101 Eh     change       -0.9352143E-05 Eh
 * total energy  :   -91.7352201 Eh     change       -0.1000510E-04 Eh
 * total energy  :   -91.7352248 Eh     change       -0.4661460E-05 Eh
 * total energy  :   -91.7352367 Eh     change       -0.3423853E-05 Eh
 * total energy  :   -91.7352392 Eh     change       -0.2433727E-05 Eh
 * total energy  :   -91.7352407 Eh     change       -0.1484675E-05 Eh
 * total energy  :   -91.7352418 Eh     change       -0.1095869E-05 Eh
 * total energy  :   -91.7352428 Eh     change       -0.1029382E-05 Eh
 * total energy  :   -91.7352436 Eh     change       -0.8190148E-06 Eh
 * total energy  :   -91.7352443 Eh     change       -0.7218404E-06 Eh
 * total energy  :   -91.7352449 Eh     change       -0.6101049E-06 Eh
 * total energy  :   -91.7352449 Eh     change       -0.7046793E-08 Eh
   *** GEOMETRY OPTIMIZATION CONVERGED AFTER 22 ITERATIONS ***

 final structure:
================
56
 xtb: 6.7.1 (edcfbbe)
O            0.35455330864199       -4.32245997227506       -2.35148183893325
C           -0.09361376963840       -3.24481385952091       -2.68477926868464
O           -1.03680218735902       -3.14153758151916       -3.63239380983524
C            0.31709691813527       -1.95224605200560       -2.11323959585671
C            1.26656233154792       -1.94052423157332       -1.09079185290253
C            1.66883649600693       -0.74887708405796       -0.52941501464066
C            1.12280930162585        0.46005724326752       -0.96501449553017
C            1.57605058278665        1.72577277885683       -0.37063596550489
C            0.73685959050831        2.71949594694530       -0.01281528451952
C           -0.70671590613189        2.72514650465990       -0.03023518975774
C           -1.55289637706257        1.74568501293558        0.34985243449582
C           -3.00622397558366        1.91868480457059        0.20462335810251
C           -3.87515121473909        1.43056187395177        1.18112574552922
C           -5.24101119678143        1.60402883211501        1.05967231246399
C           -5.76614851304149        2.25944604566303       -0.04252201577486
C           -4.91413703388464        2.74117115617044       -1.02308194628997
C           -3.54717588913942        2.57431052527830       -0.90126492680345
C           -1.10618055005545        0.48983470876556        0.97009818334353
C           -0.16930946480237        0.48953142474171        2.00432320501887
C            0.22503263085631       -0.69255320929397        2.59081082160564
C           -0.31317783739646       -1.90627426584715        2.15981807159808
C            0.14370074468413       -3.15239013092993        2.79604476396841
O            1.00505136307359       -3.21707108052474        3.64889854428673
O           -0.48265288924170       -4.24958487603299        2.34749070673628
C           -1.26430819188299       -1.91132750880133        1.13981718857668
C           -1.65812769122584       -0.72484620488564        0.55948271340034
C            3.03035174529140        1.89083592748273       -0.22510492091167
C            3.89799363858549        1.38328037018944       -1.19268801357383
C            5.26477373930063        1.54789698363862       -1.06969633169804
C            5.79185927828896        2.21320765903268        0.02560220065038
C            4.94098396245220        2.71430262992542        0.99736626044587
C            3.57307511089367        2.55707512963539        0.87340977133886
C            0.18748594259564        0.44331149610238       -2.00039469363817
C           -0.21467172209494       -0.74559562207265       -2.56950499328318
H           -1.27067690771780       -4.02043721337536       -3.97336766856098
H            1.67790696399344       -2.88126052672993       -0.75581660796167
H            2.40268900688997       -0.74668873773683        0.26279209373902
H            1.17833377092653        3.66329686327786        0.28727360009270
H           -1.14060301873608        3.66618110703174       -0.34927816297946
H           -3.47186654197136        0.92540954784193        2.04714723566038
H           -5.89963192202890        1.22613133983816        1.82852268444036
H           -6.83403873468388        2.39174277996686       -0.13769306563362
H           -5.31829367561202        3.24555973671226       -1.88911558626462
H           -2.89298713868934        2.93777107020807       -1.67986116165471
H            0.23853972289126        1.42664430922840        2.35078513043482
H            0.94877869215587       -0.70466548252857        3.39247381393924
H           -0.13630520039565       -5.04137615308751        2.79067159960542
H           -1.68621979007045       -2.84887178169669        0.81306711382769
H           -2.39368268448717       -0.73154934415783       -0.23102053175663
H            3.49333559503946        0.86880284707998       -2.05255849194880
H            5.92271616329541        1.15461960991551       -1.83136712698815
H            6.86050284226873        2.33778917903342        0.12264997487809
H            5.34663767835140        3.22600097624428        1.85839253797495
H            2.91951313375760        2.93544243919343        1.64547790643480
H           -0.21395453546080        1.37681049498274       -2.36374620246117
H           -0.93575867033033       -0.75363961411701       -3.37195393413768

          :  Hamiltonian                  GFN2-xTB          :
         :: gradient norm              0.000083663710 Eh/a0 ::
         :: HOMO-LUMO gap              2.128591797679 eV    ::
         :: SCC energy               -93.267391425317 Eh    ::
         :: -> dispersion             -0.078104094909 Eh    ::
         :: -> Gsolv                  -0.041491053314 Eh    ::
         :: repulsion energy           1.532146478260 Eh    ::

    * Orbital Energies and Occupations

         #    Occupation            Energy/Eh            Energy/eV
      -------------------------------------------------------------
         1        2.0000           -0.7471582             -20.3312
       ...           ...                  ...                  ...
        71        2.0000           -0.4248678             -11.5612
        72        2.0000           -0.4243976             -11.5484
        73        2.0000           -0.4233583             -11.5202
        74        2.0000           -0.4208319             -11.4514
        75        2.0000           -0.4174082             -11.3583
        76        2.0000           -0.4168243             -11.3424
        77        2.0000           -0.4158690             -11.3164
        78        2.0000           -0.4106384             -11.1740
        79        2.0000           -0.4078760             -11.0989
        80        2.0000           -0.4057549             -11.0412
        81        2.0000           -0.4055422             -11.0354
        82        2.0000           -0.3990487             -10.8587
        83        2.0000           -0.3677686             -10.0075 (HOMO)
        84                         -0.2895443              -7.8789 (LUMO)
        85                         -0.2825094              -7.6875
        86                         -0.2615569              -7.1173
        87                         -0.2359479              -6.4205
        88                         -0.2344844              -6.3806
        89                         -0.2292462              -6.2381
        90                         -0.2234176              -6.0795
        91                         -0.2232603              -6.0752
        92                         -0.2088066              -5.6819
        93                         -0.2027733              -5.5177
        94                         -0.1731005              -4.7103
       ...                                ...                  ...
       158                          0.6958122              18.9340
      -------------------------------------------------------------
                  HL-Gap            0.0782243 Eh            2.1286 eV

     #   Z          covCN         q      C6AA      α(0)
     1   8 O        0.857    -0.465    23.033     6.434
     2   6 C        2.698     0.354    20.992     7.499
     3   8 O        1.659    -0.380    20.457     6.106
     4   6 C        2.973    -0.025    28.612     8.774
     5   6 C        2.922    -0.019    28.479     8.751
     6   6 C        2.923    -0.028    28.697     8.785
     7   6 C        2.977     0.030    27.333     8.576
     8   6 C        2.959     0.003    27.957     8.673
     9   6 C        2.902    -0.035    28.875     8.811
    10   6 C        2.902    -0.035    28.875     8.811
    11   6 C        2.959     0.003    27.952     8.672
    12   6 C        2.979     0.012    27.750     8.641
    13   6 C        2.925    -0.032    28.800     8.801
    14   6 C        2.918    -0.030    28.737     8.791
    15   6 C        2.919    -0.030    28.760     8.794
    16   6 C        2.918    -0.029    28.737     8.791
    17   6 C        2.924    -0.035    28.866     8.811
    18   6 C        2.977     0.030    27.335     8.576
    19   6 C        2.922    -0.029    28.719     8.788
    20   6 C        2.922    -0.019    28.490     8.753
    21   6 C        2.973    -0.025    28.615     8.774
    22   6 C        2.698     0.354    20.986     7.498
    23   8 O        0.857    -0.463    22.987     6.428
    24   8 O        1.660    -0.383    20.518     6.115
    25   6 C        2.919    -0.021    28.521     8.758
    26   6 C        2.924    -0.029    28.725     8.789
    27   6 C        2.979     0.011    27.756     8.642
    28   6 C        2.925    -0.032    28.803     8.801
    29   6 C        2.918    -0.030    28.740     8.791
    30   6 C        2.919    -0.030    28.761     8.794
    31   6 C        2.918    -0.030    28.737     8.791
    32   6 C        2.924    -0.035    28.865     8.811
    33   6 C        2.923    -0.029    28.734     8.791
    34   6 C        2.919    -0.021    28.537     8.760
    35   1 H        0.804     0.337     0.619     1.236
    36   1 H        0.926     0.046     2.375     2.410
    37   1 H        0.926     0.042     2.417     2.431
    38   1 H        0.925     0.052     2.297     2.370
    39   1 H        0.925     0.053     2.288     2.366
    40   1 H        0.926     0.030     2.593     2.518
    41   1 H        0.926     0.032     2.563     2.504
    42   1 H        0.926     0.033     2.549     2.496
    43   1 H        0.926     0.035     2.519     2.482
    44   1 H        0.926     0.038     2.471     2.458
    45   1 H        0.926     0.053     2.288     2.365
    46   1 H        0.926     0.054     2.267     2.355
    47   1 H        0.804     0.337     0.620     1.237
    48   1 H        0.926     0.053     2.287     2.365
    49   1 H        0.926     0.046     2.366     2.405
    50   1 H        0.926     0.030     2.589     2.516
    51   1 H        0.926     0.032     2.562     2.503
    52   1 H        0.926     0.033     2.549     2.497
    53   1 H        0.926     0.034     2.525     2.485
    54   1 H        0.926     0.037     2.483     2.464
    55   1 H        0.926     0.054     2.267     2.355
    56   1 H        0.926     0.063     2.167     2.302

molecular dipole:
                 x           y           z       tot (Debye)
 q only:       -1.015       2.418      -0.951
   full:       -1.037       1.944      -0.968       6.118

 projected vibrational frequencies (cm⁻¹)
eigval :       -0.00    -0.00    -0.00    -0.00    -0.00     0.00
eigval :       13.69    22.62    25.67    37.38    39.16    43.26
eigval :       48.98    54.72    57.84    74.22    79.01    97.12
eigval :      103.23   109.12   126.79   147.50   154.64   166.98
eigval :      208.48   228.00   229.59   252.25   256.38   275.21
eigval :      287.72   324.39   367.70   368.57   371.40   372.68
eigval :      379.89   407.15   421.52   429.78   432.21   474.29
eigval :      479.36   492.29   507.41   547.93   574.90   578.40
eigval :      580.35   587.62   589.67   593.80   596.87   599.96
eigval :      619.60   626.14   660.53   669.10   670.40   673.81
eigval :      678.40   683.41   694.26   731.18   734.50   754.78
eigval :      758.04   790.89   802.44   826.56   830.71   846.57
eigval :      858.52   871.39   872.47   873.00   873.61   900.45
eigval :      901.13   911.40   922.18   925.44   926.56   926.70
eigval :      930.49   930.64   932.19   932.53   933.33   987.89
eigval :      993.04  1013.57  1019.79  1073.37  1084.31  1087.03
eigval :     1096.44  1097.65  1122.24  1122.72  1134.13  1136.42
eigval :     1138.98  1140.07  1171.39  1180.14  1180.52  1187.31
eigval :     1194.05  1195.74  1202.20  1210.35  1263.11  1263.88
eigval :     1266.70  1268.61  1271.66  1274.32  1281.79  1282.21
eigval :     1317.02  1317.34  1329.48  1330.63  1335.97  1347.15
eigval :     1403.23  1403.83  1427.74  1429.14  1467.99  1469.10
eigval :     1475.68  1475.83  1558.68  1559.03  1574.62  1576.07
eigval :     1576.88  1583.80  1587.20  1592.83  1608.81  1624.11
eigval :     1703.04  1703.15  3031.30  3038.25  3068.68  3068.76
eigval :     3070.76  3070.80  3078.56  3078.67  3083.00  3083.38
eigval :     3084.01  3086.21  3088.01  3090.57  3090.75  3092.67
eigval :     3094.57  3098.70  3105.17  3105.89  3430.74  3432.35

   temp. (K)  partition function   enthalpy   heat capacity  entropy
                                   cal/mol     cal/K/mol   cal/K/mol   J/K/mol
 298.15  VIB  0.248E+14            16812.024    102.651    106.218
         ROT  0.253E+08              888.752      2.981     36.857
         INT  0.626E+21            17700.777    105.632    143.075
         TR   0.913E+28             1481.254      4.968     44.158
         TOT                       19182.0305   110.6001   187.2325   783.3809

       T/K    H(0)-H(T)+PV         H(T)/Eh          T*S/Eh         G(T)/Eh
   ------------------------------------------------------------------------
    298.15    0.305685E-01    0.454041E+00    0.889602E-01    0.365080E+00
   ------------------------------------------------------------------------

         :::::::::::::::::::::::::::::::::::::::::::::::::::::
         ::                  THERMODYNAMIC                  ::
         :::::::::::::::::::::::::::::::::::::::::::::::::::::
         :: total free energy         -91.370164583935 Eh   ::
         ::.................................................::
         :: total energy              -91.735244947082 Eh   ::
         :: zero point energy           0.423472072719 Eh   ::
         :: G(RRHO) w/o ZPVE           -0.058391709572 Eh   ::
         :: G(RRHO) contrib.            0.365080363147 Eh   ::
         :::::::::::::::::::::::::::::::::::::::::::::::::::::

           -------------------------------------------------
          | TOTAL ENERGY              -91.735244947082 Eh   |
          | TOTAL ENTHALPY            -91.281204362917 Eh   |
          | TOTAL FREE ENERGY         -91.370164583935 Eh   |
          | GRADIENT NORM               0.000083662918 Eh/α |
          | HOMO-LUMO GAP               2.128592191986 eV   |
           -------------------------------------------------

 * finished run on 2025/09/09 at 22:09:16.882
