   * xtb version 6.7.1 (edcfbbe) compiled by 'albert@albert-system' on 2024-07-22

   ID    Z sym.   atoms
    1    6 C      1-9, 11-18, 20-35, 37-42
    2    7 N      10, 19, 36
    3    1 H      43-75

          program call               : xtb data2507/toluene/Yad/Yad_toluene_S0_crest.xyz --gfn 2 --gbsa toluene --ohess vtight --parallel 40 --molden --ceasefiles --namespace data2507/toluene/Yad/Yad_toluene_S0_finalOpt
      * Solvation model:               GBSA
        Solvent                        toluene
        Solvent mass                       9.2140E+01 g/mol
          :  Hamiltonian                  GFN2-xTB          :
 * total energy  :  -109.2335792 Eh     change       -0.2270170E-08 Eh
 * total energy  :  -109.2336454 Eh     change       -0.6611893E-04 Eh
 * total energy  :  -109.2337161 Eh     change       -0.7074905E-04 Eh
 * total energy  :  -109.2337732 Eh     change       -0.5709868E-04 Eh
 * total energy  :  -109.2338257 Eh     change       -0.5248653E-04 Eh
 * total energy  :  -109.2339090 Eh     change       -0.8333950E-04 Eh
 * total energy  :  -109.2340246 Eh     change       -0.1155747E-03 Eh
 * total energy  :  -109.2340942 Eh     change       -0.6960588E-04 Eh
 * total energy  :  -109.2342141 Eh     change       -0.1198348E-03 Eh
 * total energy  :  -109.2343117 Eh     change       -0.9762263E-04 Eh
 * total energy  :  -109.2350718 Eh     change       -0.5730019E-06 Eh
 * total energy  :  -109.2350723 Eh     change       -0.5056320E-06 Eh
 * total energy  :  -109.2350728 Eh     change       -0.4315253E-06 Eh
 * total energy  :  -109.2350731 Eh     change       -0.3467035E-06 Eh
 * total energy  :  -109.2350734 Eh     change       -0.2790247E-06 Eh
 * total energy  :  -109.2350736 Eh     change       -0.2360392E-06 Eh
 * total energy  :  -109.2350739 Eh     change       -0.2145311E-06 Eh
 * total energy  :  -109.2350741 Eh     change       -0.2023414E-06 Eh
 * total energy  :  -109.2350741 Eh     change       -0.1586159E-08 Eh
   *** GEOMETRY OPTIMIZATION CONVERGED AFTER 68 ITERATIONS ***

 final structure:
================
75
 xtb: 6.7.1 (edcfbbe)
C            3.48898830198587        0.86010532978767       -1.96751498158714
C            3.75849815726249        1.51061146943710       -0.59438277658596
C            4.68954797858645        2.70417888255885       -0.80994130484475
C            4.35853142656650        0.46837439535717        0.33221271278040
C            5.69387457084201        0.42302226653104        0.70407221535124
C            6.16637552852680       -0.56808915028596        1.54844625189638
C            5.30078178142943       -1.51993603350972        2.05830361231864
C            3.96282173188571       -1.48479555275930        1.71283861482007
C            3.49758825047213       -0.51323965924917        0.83366467004275
N            2.13160458458698       -0.42951217708909        0.50725594587156
C            1.37810914156460       -1.49653226448977        0.10026923922950
C            1.98437333938344       -2.74950330954140       -0.21552332394359
C            1.19696592271711       -3.77267599062254       -0.64580804028940
C           -0.19838688693717       -3.58330505830484       -0.80039249954283
C           -1.08554385829273       -4.58138692559145       -1.23826399857335
C           -2.41545142146612       -4.29921002118193       -1.40610954850458
C           -2.90609476573566       -3.00955590935496       -1.15592442173469
C           -2.06928811517702       -2.01138260354171       -0.72680206436927
N           -2.57393813636208       -0.70278253960151       -0.48723382088993
C           -2.90844298314761       -0.35964154106473        0.81862328724440
C           -2.72658629461295       -1.26468183598128        1.86356494845770
C           -3.01492113463055       -0.90360471048069        3.16524640055666
C           -3.47538055951488        0.37039199378616        3.44203664200392
C           -3.68554613663204        1.26282565845693        2.40314332954978
C           -3.43136478743008        0.91440087339541        1.08688344629382
C           -3.77792851811810        1.79769605291946       -0.09486367061128
C           -5.10018596577331        1.26559915776614       -0.69313428504049
C           -3.99141246466658        3.26166344169320        0.29183379164514
C           -2.70060045010574        1.61426896509548       -1.14609207400920
C           -2.25326070234766        2.63726269476458       -1.96500964349582
C           -1.38534929089093        2.39446433008581       -3.01671883633117
C           -0.97979163509682        1.09961760978450       -3.28020821352901
C           -1.38873916412433        0.06767228980064       -2.45904929846352
C           -2.21234925440799        0.31724819453531       -1.36340101597164
C           -0.69056778080614       -2.28280779967258       -0.52048753392999
N            0.09117735219089       -1.29076235299768       -0.07208934534576
C            1.61814399009266        0.88784844307238        0.53112081380409
C            0.38829052533085        1.17282073554117        1.10547877692596
C           -0.06410067037191        2.47786918856261        1.14596599620344
C            0.71813260165523        3.49606824282815        0.63332512072617
C            1.95560066104733        3.21094624464896        0.08067612076402
C            2.42515517111024        1.90811939686818        0.01837630074457
H            3.05303449695399        1.59435288990367       -2.64139880932334
H            2.79727634006223        0.02566542483906       -1.88502367450617
H            4.42055550847364        0.49688805399032       -2.39720900334880
H            4.23053491350204        3.41728742722061       -1.48944464151351
H            4.91089094060942        3.20146583988781        0.13163644362489
H            5.61917296957312        2.37527367605848       -1.26737062589128
H            6.38563893048923        1.16243926177572        0.33555297279171
H            7.21189074648553       -0.58854936756620        1.81714536839349
H            5.66068714766960       -2.27998100133834        2.73559055875566
H            3.26985116369478       -2.19948744715045        2.13284326860906
H            3.05392985848497       -2.86672450871224       -0.14421315935348
H            1.62810006212261       -4.73269474021911       -0.89547946963472
H           -0.69992402131518       -5.57031132982619       -1.44225976370285
H           -3.09748166276599       -5.06610009633183       -1.74129449617204
H           -3.95486085484643       -2.79617166491725       -1.30305103729642
H           -2.34821429167865       -2.25459633705975        1.65491871380660
H           -2.86789934886006       -1.61783328089140        3.96283692862229
H           -3.68764149314466        0.66614034103209        4.45881073667721
H           -4.06676115417831        2.24325481481389        2.63982962553258
H           -5.89928089269813        1.34030724099511        0.04191990948458
H           -4.99751831596749        0.22383208706882       -0.98634234840120
H           -5.37273605063969        1.84562224361345       -1.57261600577572
H           -3.08503027557641        3.69289484730009        0.70989073113766
H           -4.79499483934416        3.34606447891343        1.01881117657580
H           -4.28825942731004        3.83915641718303       -0.57972133626400
H           -2.58756170626620        3.64853252853305       -1.79963580678238
H           -1.05220229268965        3.21037259739629       -3.64094563322651
H           -0.33598324451135        0.88735237538154       -4.12205866888590
H           -1.05942741945902       -0.93905222482536       -2.66800636856036
H           -0.21076805289711        0.37696266296909        1.51338240517945
H           -1.02372819052979        2.68923682071485        1.59195087762129
H            0.37085576242856        4.51830603255780        0.66440366962877
H            2.55015656605387        4.02282630428025       -0.30520208223321

          :  Hamiltonian                  GFN2-xTB          :
         :: gradient norm              0.000037707685 Eh/a0 ::
         :: HOMO-LUMO gap              1.898384946394 eV    ::
         :: SCC energy              -111.197266284437 Eh    ::
         :: -> dispersion             -0.115194889761 Eh    ::
         :: -> Gsolv                  -0.038542114323 Eh    ::
         :: repulsion energy           1.962192230252 Eh    ::

    * Orbital Energies and Occupations

         #    Occupation            Energy/Eh            Energy/eV
      -------------------------------------------------------------
         1        2.0000           -0.6736722             -18.3316
       ...           ...                  ...                  ...
        90        2.0000           -0.4114690             -11.1966
        91        2.0000           -0.4095190             -11.1436
        92        2.0000           -0.4052887             -11.0285
        93        2.0000           -0.4038100             -10.9882
        94        2.0000           -0.4009758             -10.9111
        95        2.0000           -0.3961683             -10.7803
        96        2.0000           -0.3953831             -10.7589
        97        2.0000           -0.3942714             -10.7287
        98        2.0000           -0.3894990             -10.5988
        99        2.0000           -0.3870844             -10.5331
       100        2.0000           -0.3663432              -9.9687
       101        2.0000           -0.3608744              -9.8199
       102        2.0000           -0.3427883              -9.3277 (HOMO)
       103                         -0.2730239              -7.4294 (LUMO)
       104                         -0.2406120              -6.5474
       105                         -0.2290550              -6.2329
       106                         -0.2235657              -6.0835
       107                         -0.2178478              -5.9279
       108                         -0.2165401              -5.8924
       109                         -0.2152483              -5.8572
       110                         -0.2139188              -5.8210
       111                         -0.2100703              -5.7163
       112                         -0.2010875              -5.4719
       113                         -0.1904303              -5.1819
       ...                                ...                  ...
       201                          0.6926275              18.8474
      -------------------------------------------------------------
                  HL-Gap            0.0697643 Eh            1.8984 eV

     #   Z          covCN         q      C6AA      α(0)
     1   6 C        3.762    -0.097    22.394     6.746
     2   6 C        3.910     0.022    20.141     6.379
     3   6 C        3.759    -0.110    22.652     6.785
     4   6 C        2.985    -0.006    28.161     8.705
     5   6 C        2.923    -0.038    28.957     8.825
     6   6 C        2.919    -0.038    28.935     8.821
     7   6 C        2.919    -0.034    28.845     8.807
     8   6 C        2.920    -0.048    29.186     8.859
     9   6 C        2.944     0.055    26.756     8.484
    10   7 N        2.762    -0.071    22.614     7.063
    11   6 C        2.890     0.163    24.485     8.113
    12   6 C        2.911    -0.065    29.622     8.925
    13   6 C        2.921    -0.023    28.584     8.768
    14   6 C        2.983    -0.017    28.430     8.746
    15   6 C        2.915    -0.041    29.012     8.832
    16   6 C        2.916    -0.038    28.948     8.823
    17   6 C        2.919    -0.045    29.108     8.847
    18   6 C        2.929     0.057    26.711     8.476
    19   7 N        2.752    -0.079    22.775     7.088
    20   6 C        2.939     0.067    26.492     8.441
    21   6 C        2.922    -0.056    29.385     8.889
    22   6 C        2.919    -0.037    28.929     8.820
    23   6 C        2.918    -0.048    29.183     8.859
    24   6 C        2.924    -0.042    29.041     8.837
    25   6 C        2.984    -0.013    28.324     8.730
    26   6 C        3.910     0.021    20.161     6.382
    27   6 C        3.765    -0.101    22.471     6.756
    28   6 C        3.758    -0.106    22.571     6.773
    29   6 C        2.985    -0.014    28.343     8.733
    30   6 C        2.924    -0.042    29.052     8.839
    31   6 C        2.918    -0.048    29.184     8.859
    32   6 C        2.920    -0.038    28.937     8.821
    33   6 C        2.922    -0.053    29.321     8.880
    34   6 C        2.938     0.069    26.457     8.436
    35   6 C        2.966     0.091    25.976     8.360
    36   7 N        1.854    -0.295    28.487     7.911
    37   6 C        2.947     0.064    26.564     8.453
    38   6 C        2.920    -0.040    29.002     8.831
    39   6 C        2.921    -0.033    28.816     8.803
    40   6 C        2.919    -0.037    28.925     8.819
    41   6 C        2.924    -0.041    29.017     8.834
    42   6 C        2.986    -0.009    28.228     8.715
    43   1 H        0.925     0.043     2.415     2.430
    44   1 H        0.925     0.027     2.625     2.534
    45   1 H        0.925     0.042     2.422     2.434
    46   1 H        0.925     0.046     2.369     2.407
    47   1 H        0.925     0.042     2.422     2.434
    48   1 H        0.925     0.046     2.368     2.406
    49   1 H        0.926     0.049     2.333     2.388
    50   1 H        0.926     0.039     2.466     2.456
    51   1 H        0.926     0.037     2.484     2.465
    52   1 H        0.926     0.032     2.558     2.501
    53   1 H        0.926     0.038     2.480     2.462
    54   1 H        0.925     0.038     2.480     2.463
    55   1 H        0.926     0.038     2.470     2.458
    56   1 H        0.926     0.041     2.436     2.441
    57   1 H        0.926     0.041     2.431     2.438
    58   1 H        0.926     0.014     2.830     2.631
    59   1 H        0.926     0.022     2.698     2.569
    60   1 H        0.926     0.025     2.662     2.551
    61   1 H        0.926     0.037     2.494     2.470
    62   1 H        0.925     0.039     2.459     2.452
    63   1 H        0.925     0.032     2.560     2.502
    64   1 H        0.925     0.039     2.463     2.454
    65   1 H        0.925     0.037     2.483     2.464
    66   1 H        0.925     0.042     2.427     2.436
    67   1 H        0.925     0.042     2.425     2.435
    68   1 H        0.926     0.038     2.479     2.462
    69   1 H        0.926     0.025     2.660     2.551
    70   1 H        0.926     0.022     2.704     2.572
    71   1 H        0.926     0.013     2.837     2.634
    72   1 H        0.926     0.047     2.354     2.399
    73   1 H        0.926     0.034     2.523     2.484
    74   1 H        0.926     0.036     2.498     2.472
    75   1 H        0.926     0.046     2.367     2.406

molecular dipole:
                 x           y           z       tot (Debye)
 q only:        0.939       0.449      -0.155
   full:        1.119      -0.181      -0.227       2.937

 projected vibrational frequencies (cm⁻¹)
eigval :       -0.00    -0.00     0.00     0.00     0.00     0.00
eigval :       14.90    24.14    27.45    34.18    44.18    58.10
eigval :       64.45    65.65    92.82   105.14   112.65   122.29
eigval :      128.64   131.74   164.53   168.12   169.80   188.22
eigval :      199.79   206.34   207.07   225.32   249.57   251.88
eigval :      270.12   279.65   284.61   293.00   297.66   303.81
eigval :      319.95   323.75   344.23   349.08   362.46   367.72
eigval :      392.31   396.58   399.73   408.28   411.73   415.93
eigval :      417.82   441.45   449.53   461.89   485.16   496.36
eigval :      498.32   506.46   509.92   520.71   522.43   538.68
eigval :      550.27   556.76   562.03   574.99   578.08   582.39
eigval :      592.94   599.76   615.10   653.73   666.70   669.29
eigval :      683.12   692.57   705.30   711.56   720.84   722.70
eigval :      732.95   769.16   773.58   774.76   781.00   786.05
eigval :      809.59   813.61   815.86   828.59   832.33   857.77
eigval :      861.83   874.63   882.85   884.23   891.55   898.11
eigval :      903.28   908.57   909.17   911.53   913.83   915.37
eigval :      916.17   918.15   921.92   923.77   935.90   936.46
eigval :      941.88   962.12   967.57   994.85  1008.05  1008.41
eigval :     1048.00  1072.88  1074.34  1084.56  1099.35  1100.09
eigval :     1106.42  1109.64  1111.03  1116.91  1137.14  1142.46
eigval :     1148.54  1150.76  1158.52  1172.48  1177.29  1180.84
eigval :     1185.50  1186.77  1188.08  1188.73  1204.33  1213.36
eigval :     1227.71  1231.36  1243.07  1256.69  1260.78  1269.21
eigval :     1271.87  1275.07  1280.36  1287.70  1300.10  1309.80
eigval :     1316.63  1323.00  1327.79  1333.73  1335.73  1337.70
eigval :     1362.22  1380.59  1391.16  1394.09  1408.78  1411.30
eigval :     1422.65  1438.49  1439.35  1442.14  1444.48  1453.32
eigval :     1458.70  1465.12  1479.76  1483.23  1487.56  1488.33
eigval :     1490.00  1493.60  1494.32  1503.30  1503.39  1519.06
eigval :     1526.46  1539.33  1574.51  1576.28  1583.45  1585.41
eigval :     1587.20  1588.86  1589.39  1595.78  1601.24  1603.21
eigval :     3021.16  3023.37  3023.59  3029.27  3030.15  3032.00
eigval :     3034.81  3035.55  3041.46  3045.87  3047.42  3047.65
eigval :     3059.73  3064.73  3066.25  3069.36  3074.36  3077.43
eigval :     3077.86  3078.23  3080.89  3081.54  3086.64  3088.58
eigval :     3091.97  3092.83  3093.32  3099.43  3106.18  3109.15
eigval :     3111.42  3114.29  3130.74

   temp. (K)  partition function   enthalpy   heat capacity  entropy
                                   cal/mol     cal/K/mol   cal/K/mol   J/K/mol
 298.15  VIB  0.361E+14            19936.451    132.242    119.586
         ROT  0.326E+08              888.752      2.981     37.363
         INT  0.118E+22            20825.203    135.223    156.949
         TR   0.123E+29             1481.254      4.968     44.745
         TOT                       22306.4572   140.1912   201.6936   843.8860

       T/K    H(0)-H(T)+PV         H(T)/Eh          T*S/Eh         G(T)/Eh
   ------------------------------------------------------------------------
    298.15    0.355476E-01    0.636869E+00    0.958311E-01    0.541038E+00
   ------------------------------------------------------------------------

         :::::::::::::::::::::::::::::::::::::::::::::::::::::
         ::                  THERMODYNAMIC                  ::
         :::::::::::::::::::::::::::::::::::::::::::::::::::::
         :: total free energy        -108.694036296583 Eh   ::
         ::.................................................::
         :: total energy             -109.235074054869 Eh   ::
         :: zero point energy           0.601321291987 Eh   ::
         :: G(RRHO) w/o ZPVE           -0.060283533701 Eh   ::
         :: G(RRHO) contrib.            0.541037758286 Eh   ::
         :::::::::::::::::::::::::::::::::::::::::::::::::::::

           -------------------------------------------------
          | TOTAL ENERGY             -109.235074054869 Eh   |
          | TOTAL ENTHALPY           -108.598205160658 Eh   |
          | TOTAL FREE ENERGY        -108.694036296583 Eh   |
          | GRADIENT NORM               0.000037703729 Eh/α |
          | HOMO-LUMO GAP               1.898384172465 eV   |
           -------------------------------------------------

 * finished run on 2025/08/22 at 15:23:41.544
