   * xtb version 6.7.1 (edcfbbe) compiled by 'albert@albert-system' on 2024-07-22

   ID    Z sym.   atoms
    1    6 C      1-9, 11-18, 20-35, 37-42
    2    7 N      10, 19, 36
    3    1 H      43-75

          program call               : xtb data2507/toluene/Yad/Yad.xyz --gfn 2 --gbsa toluene --ohess vtight --parallel 40 --molden --ceasefiles --namespace data2507/toluene/Yad/Yad_toluene_S0_preOpt
      * Solvation model:               GBSA
        Solvent                        toluene
        Solvent mass                       9.2140E+01 g/mol
          :  Hamiltonian                  GFN2-xTB          :
 * total energy  :  -109.1987631 Eh     change       -0.2876291E-08 Eh
 * total energy  :  -109.2189509 Eh     change       -0.2018780E-01 Eh
 * total energy  :  -109.2262955 Eh     change       -0.7344614E-02 Eh
 * total energy  :  -109.2276581 Eh     change       -0.1362591E-02 Eh
 * total energy  :  -109.2283282 Eh     change       -0.6700533E-03 Eh
 * total energy  :  -109.2285982 Eh     change       -0.2700331E-03 Eh
 * total energy  :  -109.2287620 Eh     change       -0.1637420E-03 Eh
 * total energy  :  -109.2289283 Eh     change       -0.1663788E-03 Eh
 * total energy  :  -109.2290477 Eh     change       -0.1193807E-03 Eh
 * total energy  :  -109.2291881 Eh     change       -0.1403974E-03 Eh
 * total energy  :  -109.2343342 Eh     change       -0.8402116E-06 Eh
 * total energy  :  -109.2343350 Eh     change       -0.8684935E-06 Eh
 * total energy  :  -109.2343360 Eh     change       -0.9521458E-06 Eh
 * total energy  :  -109.2343371 Eh     change       -0.1154311E-05 Eh
 * total energy  :  -109.2343386 Eh     change       -0.1445534E-05 Eh
 * total energy  :  -109.2343404 Eh     change       -0.1857230E-05 Eh
 * total energy  :  -109.2343427 Eh     change       -0.2300752E-05 Eh
 * total energy  :  -109.2343453 Eh     change       -0.2599464E-05 Eh
 * total energy  :  -109.2343453 Eh     change       -0.6057888E-08 Eh
   *** GEOMETRY OPTIMIZATION CONVERGED AFTER 152 ITERATIONS ***

 final structure:
================
75
 xtb: 6.7.1 (edcfbbe)
C            4.43421453393924        0.37979467804276       -1.97011395382146
C            4.44399824729716        0.94314989935008       -0.53237478415132
C            5.62857610365930        1.90164671822017       -0.40610642111812
C            4.53536856933118       -0.22049100151756        0.43402699467986
C            5.68556219621635       -0.58854478576868        1.11626149539967
C            5.70183759239446       -1.69905501921516        1.94347793431727
C            4.55448275869927       -2.45436612576467        2.11498416205735
C            3.39211000298879       -2.09164836872818        1.46328801308381
C            3.38204632356285       -0.98876306505032        0.61377468635779
N            2.18362636928135       -0.58512611766666        0.00266139454094
C            1.29899163007857       -1.52814639784725       -0.47550782406189
C            1.83165312970516       -2.73319752792557       -1.02591480929494
C            0.98495152543893       -3.63493546746015       -1.58929340755300
C           -0.40939932330498       -3.38332907716142       -1.60134538140511
C           -1.35115494106311       -4.26299679206615       -2.16036401447372
C           -2.68686893316668       -3.95933760925493       -2.12669974713623
C           -3.12654999723433       -2.77736454918937       -1.51871268965813
C           -2.23268270299274       -1.89432903532016       -0.96223911089176
N           -2.69853803877445       -0.72176149436413       -0.30842687209247
C           -3.12112089867199       -0.81866857542524        1.00664016146399
C           -3.06416814508739       -2.05074728842988        1.66593299559014
C           -3.50432931499412       -2.18457750377806        2.96613252433257
C           -4.01103884986586       -1.08653890536626        3.63779999708177
C           -4.05219015283557        0.13722536006680        2.99464951792432
C           -3.60987550560836        0.30147483273728        1.68907112135555
C           -3.66799080795545        1.67579946125221        1.04826964020060
C           -5.14059445637539        2.12165606559562        0.96415734619826
C           -2.86692537828098        2.65850961385940        1.92262001459115
C           -3.08978459322104        1.66760546138223       -0.35519390354337
C           -3.02682854978298        2.85167180420794       -1.07731222499022
C           -2.53642959862925        2.90060455634049       -2.36964037526709
C           -2.10403464578250        1.73329915927155       -2.97296563687350
C           -2.16278447214998        0.54194646585891       -2.28157472477346
C           -2.64257915920738        0.49235120368987       -0.96973722713468
C           -0.84172210024187       -2.16917795968784       -1.00668465401323
N            0.01156076931181       -1.27634644162487       -0.47281077348782
C            1.98068863924482        0.80780735297077       -0.07023348788241
C            0.72276984537242        1.37698555445434        0.07832558872588
C            0.56922229831081        2.74871680562720        0.00141198061929
C            1.67293754701710        3.55895819046935       -0.18574735473464
C            2.92920997071918        2.99234783918785       -0.32217125300547
C            3.10496987614455        1.61789152948653       -0.28469271871326
H            4.34627681519875        1.19483356490161       -2.68534595780784
H            3.59735957065313       -0.29750915534864       -2.12269456454677
H            5.35804850647047       -0.16136463914978       -2.16484865466166
H            5.54411299591361        2.70198220929831       -1.13620764205379
H            5.67698739179587        2.33266077062687        0.59133798728484
H            6.55713197831114        1.37586412954777       -0.61282953653853
H            6.59003778217825       -0.01360312769507        1.00462636151112
H            6.61161750966007       -1.97164423849895        2.45703331362731
H            4.55748498984686       -3.31506928256120        2.76704692752240
H            2.48149653157431       -2.65410675192383        1.61361335964683
H            2.89881489028886       -2.89382542632619       -1.02224205858750
H            1.36089567441071       -4.54098240512473       -2.04414269158175
H           -1.00329882126835       -5.18104744596688       -2.61186764109073
H           -3.41186162252074       -4.63204906418046       -2.55925197824206
H           -4.18289426994822       -2.55463407012472       -1.47394463394448
H           -2.66644040841835       -2.91188078359040        1.15036854089911
H           -3.45075643165241       -3.14836988125401        3.45173951868851
H           -4.36599131807189       -1.17902664576812        4.65337338286822
H           -4.44457507652574        0.98697298870343        3.53265079782530
H           -5.60000899210295        2.12477595711607        1.94903370601497
H           -5.69973193786277        1.43868275671778        0.32658887480688
H           -5.21773510880146        3.12176927324415        0.54609181430464
H           -1.84058518944424        2.31097386734597        2.02543594569043
H           -3.30232312977218        2.73830531994932        2.91471774743232
H           -2.85416943573384        3.65123064426682        1.48144014848078
H           -3.37487002300471        3.76855884091381       -0.62494676007968
H           -2.49889011081103        3.83997290863133       -2.90076191820983
H           -1.72479417029502        1.74676696788074       -3.98461125703489
H           -1.83319478111991       -0.36831414443938       -2.75968730755625
H           -0.12835471217061        0.73840218671565        0.23388817985234
H           -0.41680580863849        3.17657600826773        0.09280562067541
H            1.56100497352310        4.63211875901246       -0.23207819531569
H            3.77482337479406        3.64298646539528       -0.47395264821034

          :  Hamiltonian                  GFN2-xTB          :
         :: gradient norm              0.000060566761 Eh/a0 ::
         :: HOMO-LUMO gap              1.743493076726 eV    ::
         :: SCC energy              -111.195677819880 Eh    ::
         :: -> dispersion             -0.111354192272 Eh    ::
         :: -> Gsolv                  -0.039208776565 Eh    ::
         :: repulsion energy           1.961332476658 Eh    ::

    * Orbital Energies and Occupations

         #    Occupation            Energy/Eh            Energy/eV
      -------------------------------------------------------------
         1        2.0000           -0.6747790             -18.3617
       ...           ...                  ...                  ...
        90        2.0000           -0.4126280             -11.2282
        91        2.0000           -0.4078668             -11.0986
        92        2.0000           -0.4036416             -10.9836
        93        2.0000           -0.4031245             -10.9696
        94        2.0000           -0.4004678             -10.8973
        95        2.0000           -0.3983374             -10.8393
        96        2.0000           -0.3962490             -10.7825
        97        2.0000           -0.3943217             -10.7300
        98        2.0000           -0.3938451             -10.7171
        99        2.0000           -0.3883842             -10.5685
       100        2.0000           -0.3710078             -10.0956
       101        2.0000           -0.3593765              -9.7791
       102        2.0000           -0.3412597              -9.2861 (HOMO)
       103                         -0.2771875              -7.5427 (LUMO)
       104                         -0.2443319              -6.6486
       105                         -0.2272109              -6.1827
       106                         -0.2241344              -6.0990
       107                         -0.2198696              -5.9830
       108                         -0.2169099              -5.9024
       109                         -0.2152693              -5.8578
       110                         -0.2141223              -5.8266
       111                         -0.2126734              -5.7871
       112                         -0.2027470              -5.5170
       113                         -0.1851949              -5.0394
       ...                                ...                  ...
       201                          0.6853026              18.6480
      -------------------------------------------------------------
                  HL-Gap            0.0640722 Eh            1.7435 eV

     #   Z          covCN         q      C6AA      α(0)
     1   6 C        3.763    -0.099    22.429     6.751
     2   6 C        3.910     0.022    20.148     6.380
     3   6 C        3.758    -0.109    22.641     6.784
     4   6 C        2.985    -0.007    28.192     8.710
     5   6 C        2.923    -0.039    28.971     8.827
     6   6 C        2.919    -0.039    28.968     8.826
     7   6 C        2.919    -0.034    28.844     8.807
     8   6 C        2.921    -0.048    29.204     8.862
     9   6 C        2.945     0.057    26.732     8.480
    10   7 N        2.758    -0.074    22.674     7.072
    11   6 C        2.893     0.163    24.488     8.113
    12   6 C        2.914    -0.060    29.490     8.905
    13   6 C        2.921    -0.023    28.575     8.766
    14   6 C        2.985    -0.013    28.320     8.729
    15   6 C        2.916    -0.040    28.988     8.829
    16   6 C        2.915    -0.036    28.884     8.813
    17   6 C        2.919    -0.043    29.061     8.840
    18   6 C        2.927     0.058    26.694     8.473
    19   7 N        2.754    -0.066    22.516     7.047
    20   6 C        2.929     0.062    26.604     8.459
    21   6 C        2.924    -0.059    29.479     8.904
    22   6 C        2.919    -0.036    28.900     8.816
    23   6 C        2.917    -0.048    29.193     8.860
    24   6 C        2.928    -0.039    28.958     8.825
    25   6 C        2.979    -0.015    28.374     8.738
    26   6 C        3.908     0.021    20.166     6.383
    27   6 C        3.761    -0.103    22.519     6.765
    28   6 C        3.760    -0.103    22.520     6.765
    29   6 C        2.978    -0.015    28.370     8.737
    30   6 C        2.928    -0.038    28.943     8.823
    31   6 C        2.917    -0.047    29.171     8.857
    32   6 C        2.919    -0.035    28.883     8.813
    33   6 C        2.925    -0.056    29.382     8.889
    34   6 C        2.928     0.066    26.518     8.445
    35   6 C        2.965     0.088    26.033     8.369
    36   7 N        1.847    -0.285    28.242     7.876
    37   6 C        2.935     0.060    26.653     8.467
    38   6 C        2.920    -0.054    29.348     8.884
    39   6 C        2.921    -0.035    28.873     8.812
    40   6 C        2.918    -0.040    28.994     8.830
    41   6 C        2.924    -0.042    29.039     8.837
    42   6 C        2.985    -0.011    28.284     8.724
    43   1 H        0.925     0.042     2.421     2.433
    44   1 H        0.925     0.029     2.606     2.524
    45   1 H        0.925     0.042     2.421     2.433
    46   1 H        0.925     0.045     2.379     2.412
    47   1 H        0.925     0.041     2.437     2.441
    48   1 H        0.925     0.046     2.376     2.411
    49   1 H        0.926     0.047     2.353     2.399
    50   1 H        0.926     0.037     2.489     2.467
    51   1 H        0.926     0.035     2.511     2.478
    52   1 H        0.926     0.026     2.649     2.545
    53   1 H        0.926     0.038     2.470     2.457
    54   1 H        0.925     0.042     2.421     2.433
    55   1 H        0.926     0.042     2.417     2.431
    56   1 H        0.926     0.044     2.392     2.418
    57   1 H        0.926     0.044     2.400     2.422
    58   1 H        0.926     0.016     2.790     2.612
    59   1 H        0.926     0.024     2.676     2.558
    60   1 H        0.926     0.025     2.662     2.552
    61   1 H        0.926     0.032     2.552     2.498
    62   1 H        0.925     0.041     2.432     2.439
    63   1 H        0.925     0.029     2.603     2.523
    64   1 H        0.925     0.042     2.425     2.435
    65   1 H        0.925     0.033     2.549     2.497
    66   1 H        0.925     0.041     2.439     2.442
    67   1 H        0.925     0.040     2.443     2.444
    68   1 H        0.926     0.032     2.565     2.504
    69   1 H        0.926     0.025     2.659     2.550
    70   1 H        0.926     0.023     2.687     2.563
    71   1 H        0.926     0.016     2.799     2.616
    72   1 H        0.926     0.061     2.185     2.311
    73   1 H        0.926     0.036     2.501     2.473
    74   1 H        0.926     0.033     2.545     2.495
    75   1 H        0.926     0.044     2.402     2.424

molecular dipole:
                 x           y           z       tot (Debye)
 q only:        1.019       0.050      -0.238
   full:        1.108      -0.471      -0.443       3.262

 projected vibrational frequencies (cm⁻¹)
eigval :       -0.00    -0.00    -0.00    -0.00     0.00     0.00
eigval :        3.67    22.05    23.40    35.57    44.58    55.72
eigval :       65.69    67.27    91.86    96.67   100.27   114.36
eigval :      122.89   139.05   144.19   166.18   168.75   177.20
eigval :      201.90   203.53   207.39   220.58   222.11   238.28
eigval :      248.49   253.72   277.96   292.28   300.67   304.62
eigval :      325.29   331.26   333.52   345.20   353.38   365.75
eigval :      374.13   382.75   396.15   402.88   409.24   413.73
eigval :      414.66   443.43   450.36   462.50   483.63   491.19
eigval :      504.85   510.25   515.80   517.98   526.64   537.13
eigval :      544.67   547.79   556.93   572.97   581.22   582.92
eigval :      590.06   604.73   617.89   654.05   663.01   673.88
eigval :      682.94   690.97   694.18   710.71   718.26   722.37
eigval :      735.27   770.86   772.87   774.51   780.65   786.80
eigval :      811.70   813.91   823.68   829.58   836.75   856.72
eigval :      860.35   870.06   876.34   884.68   892.95   906.17
eigval :      908.78   910.24   911.52   913.81   914.69   915.81
eigval :      918.25   918.69   922.79   925.65   926.18   937.69
eigval :      940.59   956.41   964.53   992.24  1009.60  1012.94
eigval :     1049.53  1072.58  1076.40  1084.57  1101.03  1101.94
eigval :     1109.01  1111.64  1113.73  1118.12  1136.90  1139.52
eigval :     1149.71  1157.54  1158.60  1171.67  1173.06  1180.49
eigval :     1183.52  1186.13  1186.78  1187.76  1200.98  1212.62
eigval :     1225.96  1233.78  1243.81  1247.97  1254.91  1266.53
eigval :     1270.89  1272.01  1290.34  1293.14  1301.17  1307.58
eigval :     1322.17  1325.45  1327.34  1329.42  1334.89  1339.81
eigval :     1352.78  1374.30  1394.00  1398.37  1411.05  1413.95
eigval :     1417.04  1435.88  1437.73  1439.38  1441.56  1451.90
eigval :     1461.27  1477.81  1478.67  1486.74  1487.87  1489.14
eigval :     1490.14  1492.28  1495.73  1498.80  1503.78  1504.23
eigval :     1521.97  1539.36  1573.19  1575.54  1581.94  1585.51
eigval :     1587.89  1588.83  1590.85  1593.73  1600.19  1601.95
eigval :     3021.49  3023.74  3027.58  3027.79  3033.10  3033.50
eigval :     3036.05  3038.94  3040.67  3044.32  3049.26  3050.70
eigval :     3061.55  3068.94  3069.05  3070.57  3072.37  3074.46
eigval :     3076.94  3078.01  3078.97  3081.10  3084.51  3087.19
eigval :     3090.52  3091.82  3092.04  3093.97  3094.91  3101.19
eigval :     3111.94  3114.98  3147.67

   temp. (K)  partition function   enthalpy   heat capacity  entropy
                                   cal/mol     cal/K/mol   cal/K/mol   J/K/mol
 298.15  VIB  0.314E+15            20152.274    132.510    122.889
         ROT  0.368E+08              888.752      2.981     37.598
         INT  0.116E+23            21041.026    135.491    160.487
         TR   0.123E+29             1481.254      4.968     44.745
         TOT                       22522.2804   140.4594   205.2322   858.6916

       T/K    H(0)-H(T)+PV         H(T)/Eh          T*S/Eh         G(T)/Eh
   ------------------------------------------------------------------------
    298.15    0.358915E-01    0.636627E+00    0.975125E-01    0.539115E+00
   ------------------------------------------------------------------------

         :::::::::::::::::::::::::::::::::::::::::::::::::::::
         ::                  THERMODYNAMIC                  ::
         :::::::::::::::::::::::::::::::::::::::::::::::::::::
         :: total free energy        -108.695230482030 Eh   ::
         ::.................................................::
         :: total energy             -109.234345347446 Eh   ::
         :: zero point energy           0.600735779238 Eh   ::
         :: G(RRHO) w/o ZPVE           -0.061620913822 Eh   ::
         :: G(RRHO) contrib.            0.539114865416 Eh   ::
         :::::::::::::::::::::::::::::::::::::::::::::::::::::

           -------------------------------------------------
          | TOTAL ENERGY             -109.234345347446 Eh   |
          | TOTAL ENTHALPY           -108.597718029792 Eh   |
          | TOTAL FREE ENERGY        -108.695230482030 Eh   |
          | GRADIENT NORM               0.000060570577 Eh/α |
          | HOMO-LUMO GAP               1.743492935530 eV   |
           -------------------------------------------------

 * finished run on 2025/08/22 at 15:19:41.238
