   * xtb version 6.7.1 (edcfbbe) compiled by 'albert@albert-system' on 2024-07-22

   ID    Z sym.   atoms
    1    6 C      1-9, 11-18, 20-35, 37-42
    2    7 N      10, 19, 36
    3    1 H      43-75

          program call               : xtb data2507/toluene/Yad/Yad_toluene_S0_finalOpt.xtbopt.xyz --gfn 2 --uhf 2 --gbsa toluene --ohess vtight --parallel 40 --molden --ceasefiles --namespace data2507/toluene/Yad/Yad_toluene_T1_preOpt
      * Solvation model:               GBSA
        Solvent                        toluene
        Solvent mass                       9.2140E+01 g/mol
          :  Hamiltonian                  GFN2-xTB          :
 * total energy  :  -109.1432971 Eh     change       -0.1169639E-07 Eh
 * total energy  :  -109.1472332 Eh     change       -0.3936174E-02 Eh
 * total energy  :  -109.1483314 Eh     change       -0.1098181E-02 Eh
 * total energy  :  -109.1484715 Eh     change       -0.1400885E-03 Eh
 * total energy  :  -109.1486213 Eh     change       -0.1498181E-03 Eh
 * total energy  :  -109.1487363 Eh     change       -0.1149438E-03 Eh
 * total energy  :  -109.1489311 Eh     change       -0.1948316E-03 Eh
 * total energy  :  -109.1491560 Eh     change       -0.2249108E-03 Eh
 * total energy  :  -109.1493492 Eh     change       -0.1931530E-03 Eh
 * total energy  :  -109.1495109 Eh     change       -0.1617227E-03 Eh
 * total energy  :  -109.1504454 Eh     change       -0.2221670E-06 Eh
 * total energy  :  -109.1504456 Eh     change       -0.2035272E-06 Eh
 * total energy  :  -109.1504457 Eh     change       -0.1672562E-06 Eh
 * total energy  :  -109.1504459 Eh     change       -0.1629400E-06 Eh
 * total energy  :  -109.1504461 Eh     change       -0.1589467E-06 Eh
 * total energy  :  -109.1504462 Eh     change       -0.1852742E-06 Eh
 * total energy  :  -109.1504464 Eh     change       -0.1590621E-06 Eh
 * total energy  :  -109.1504465 Eh     change       -0.1234620E-06 Eh
 * total energy  :  -109.1504466 Eh     change       -0.8797970E-07 Eh
   *** GEOMETRY OPTIMIZATION CONVERGED AFTER 62 ITERATIONS ***

 final structure:
================
75
 xtb: 6.7.1 (edcfbbe)
C            3.60869043029339        0.99716410125418       -2.10993638123502
C            3.86474041277590        1.59960650154579       -0.71219863630477
C            4.74704640879610        2.83701548670016       -0.88252824408592
C            4.51086164538632        0.53925618453303        0.15979739286018
C            5.85153885669437        0.52352058091852        0.50891743457133
C            6.37343270858637       -0.48648337179770        1.30100563092246
C            5.54579285774491       -1.48720960640444        1.78268143813127
C            4.20458686920919       -1.48763561479022        1.45498869227702
C            3.68711681773689       -0.49772158566020        0.62221586125683
N            2.32047548650873       -0.44237015622424        0.32305881312298
C            1.55757572896737       -1.54446828591248       -0.02383246107950
C            2.08622222953544       -2.79741345885547       -0.29947811045600
C            1.21774326792598       -3.84432025112854       -0.60060940384103
C           -0.17643321395066       -3.62996771244031       -0.64418461441608
C           -1.12393629224953       -4.62511853566736       -0.89695592418650
C           -2.49289355510960       -4.32312222220398       -0.92689115861554
C           -2.92808805647388       -3.03669168367425       -0.73662106810833
C           -1.99961005547725       -1.99104331986881       -0.54794117536466
N           -2.47573710785286       -0.68252357260976       -0.32904327030433
C           -3.10581976531905       -0.39812080067022        0.87148556509724
C           -3.07552931708811       -1.34097983840358        1.90644841361243
C           -3.66437589822586       -1.07428541638924        3.12314982125595
C           -4.27813652427127        0.14911691841516        3.33550602352690
C           -4.29895788114022        1.09171117280506        2.32129665115971
C           -3.72462368700690        0.84567100175515        1.08312624152847
C           -3.82417580563377        1.82275544027191       -0.06818825577301
C           -5.08696386631821        1.44043926629874       -0.87837901428705
C           -3.97953369727963        3.27107632217755        0.40496846485905
C           -2.64493340964025        1.63513922854264       -1.00207690774242
C           -2.17907563731019        2.65495159116467       -1.81646126872321
C           -1.25083499581864        2.42128661511101       -2.81714299048653
C           -0.81569108037481        1.12903825615823       -3.05847329225706
C           -1.24504809483477        0.09919572221336       -2.25101414429552
C           -2.11050108480547        0.34491359180706       -1.17894789503159
C           -0.61008096334166       -2.27600367442992       -0.46421362000980
N            0.24098404055453       -1.29317178890414       -0.20466013279051
C            1.76611058750283        0.84144288976364        0.40757116453514
C            0.52919808739867        1.06138053315611        1.00630871866882
C            0.01495135297668        2.33991506031198        1.08208276882922
C            0.74821974710316        3.40838302298326        0.59757550053100
C            1.99816405340427        3.19493466263626        0.03631575662687
C            2.52592161546004        1.91962461873542       -0.07095758413121
H            3.12645887850638        1.73555088188790       -2.74645612182916
H            2.96651337978845        0.12210430863771       -2.05158410584470
H            4.55218569662969        0.70213765500072       -2.56506483284961
H            4.25509884703988        3.55999282231726       -1.52762008465668
H            4.95689515718030        3.30117168594785        0.07846227515530
H            5.68492972628709        2.56494147631002       -1.35965299972328
H            6.51152786149886        1.30237908858980        0.16368351151505
H            7.42338733116972       -0.48355942888166        1.55235364743397
H            5.93991203018057       -2.26010555081671        2.42588649894772
H            3.54499410369377       -2.23941440822071        1.86215092965574
H            3.14973873689812       -2.97230252998266       -0.27259173279666
H            1.60660225569361       -4.83699374150754       -0.77547920610518
H           -0.78891767150803       -5.63496275859124       -1.08590451470442
H           -3.20472198520986       -5.11361892354935       -1.11626136114876
H           -3.98011967973841       -2.79380283861259       -0.76712774654826
H           -2.56752512911976       -2.27991535114804        1.74876163329205
H           -3.63210481121923       -1.81571288727965        3.90746545545870
H           -4.73686979197298        0.37157509844866        4.28694188197211
H           -4.78246122552992        2.03481154597572        2.51433957295270
H           -5.97152009137192        1.52646897610422       -0.25122292597561
H           -5.01649422939141        0.41672350129309       -1.23965698495023
H           -5.19364116004718        2.10104482424759       -1.73569613533751
H           -3.11242184758951        3.58596704394296        0.98002074834691
H           -4.86982203604397        3.37884882505241        1.01693187593187
H           -4.10216990922966        3.93647152995982       -0.44380938063576
H           -2.54817172924612        3.65890281169556       -1.69057627847060
H           -0.90129788523033        3.23923110876937       -3.42865337126019
H           -0.14379613543490        0.92076706587491       -3.87774472885034
H           -0.91625266234739       -0.90695237056687       -2.44980350490074
H           -0.01850638976943        0.22751157590291        1.41317776570962
H           -0.94916870295605        2.49709528911757        1.54155931580520
H            0.35704492434636        4.41255812484068        0.66320482836077
H            2.55400290319173        4.04459304383704       -0.32518903023414

          :  Hamiltonian                  GFN2-xTB          :
         :: gradient norm              0.000029431374 Eh/a0 ::
         :: HOMO-LUMO gap              0.754092507046 eV    ::
         :: SCC energy              -111.097770105690 Eh    ::
         :: -> dispersion             -0.114802227251 Eh    ::
         :: -> Gsolv                  -0.040676950947 Eh    ::
         :: repulsion energy           1.947323488125 Eh    ::

    * Orbital Energies and Occupations

         #    Occupation            Energy/Eh            Energy/eV
      -------------------------------------------------------------
         1        2.0000           -0.6734491             -18.3255
       ...           ...                  ...                  ...
        91        2.0000           -0.4121660             -11.2156
        92        2.0000           -0.4094871             -11.1427
        93        2.0000           -0.4041992             -10.9988
        94        2.0000           -0.4036035             -10.9826
        95        2.0000           -0.4000568             -10.8861
        96        2.0000           -0.3994791             -10.8704
        97        2.0000           -0.3983140             -10.8387
        98        2.0000           -0.3952548             -10.7554
        99        2.0000           -0.3726006             -10.1390
       100        1.9999           -0.3603836              -9.8065
       101        1.9837           -0.3553944              -9.6708
       102        1.0164           -0.3476049              -9.4588
       103        1.0000           -0.2610254              -7.1029 (HOMO)
       104        0.0000           -0.2333135              -6.3488 (LUMO)
       105                         -0.2276645              -6.1951
       106                         -0.2263149              -6.1583
       107                         -0.2261325              -6.1534
       108                         -0.2233461              -6.0776
       109                         -0.2208692              -6.0102
       110                         -0.2177946              -5.9265
       111                         -0.2058302              -5.6009
       112                         -0.2010959              -5.4721
       113                         -0.1836411              -4.9971
       114                         -0.1355155              -3.6876
       ...                                ...                  ...
       201                          0.7026134              19.1191
      -------------------------------------------------------------
                  HL-Gap            0.0277120 Eh            0.7541 eV

     #   Z          covCN         q      C6AA      α(0)
     1   6 C        3.762    -0.098    22.415     6.749
     2   6 C        3.910     0.022    20.141     6.379
     3   6 C        3.759    -0.110    22.647     6.785
     4   6 C        2.986    -0.008    28.204     8.712
     5   6 C        2.922    -0.039    28.981     8.828
     6   6 C        2.918    -0.040    28.992     8.830
     7   6 C        2.919    -0.035    28.869     8.811
     8   6 C        2.920    -0.048    29.180     8.858
     9   6 C        2.945     0.056    26.753     8.483
    10   7 N        2.759    -0.057    22.337     7.019
    11   6 C        2.875     0.135    25.054     8.205
    12   6 C        2.908    -0.080    29.998     8.981
    13   6 C        2.922    -0.068    29.698     8.937
    14   6 C        2.973    -0.013    28.336     8.732
    15   6 C        2.915    -0.072    29.793     8.951
    16   6 C        2.910    -0.043    29.071     8.841
    17   6 C        2.912    -0.061    29.516     8.909
    18   6 C        2.928     0.016    27.664     8.626
    19   7 N        2.753    -0.016    21.555     6.895
    20   6 C        2.937     0.062    26.607     8.460
    21   6 C        2.923    -0.046    29.145     8.853
    22   6 C        2.917    -0.031    28.781     8.797
    23   6 C        2.918    -0.036    28.886     8.813
    24   6 C        2.923    -0.038    28.943     8.823
    25   6 C        2.980    -0.003    28.101     8.696
    26   6 C        3.909     0.024    20.117     6.375
    27   6 C        3.766    -0.101    22.472     6.756
    28   6 C        3.758    -0.110    22.663     6.787
    29   6 C        2.981    -0.004    28.109     8.697
    30   6 C        2.924    -0.039    28.961     8.825
    31   6 C        2.918    -0.035    28.866     8.810
    32   6 C        2.918    -0.031    28.783     8.798
    33   6 C        2.922    -0.040    28.988     8.829
    34   6 C        2.933     0.067    26.493     8.441
    35   6 C        2.943     0.096    25.862     8.341
    36   7 N        1.852    -0.298    28.564     7.921
    37   6 C        2.949     0.066    26.516     8.446
    38   6 C        2.920    -0.040    28.992     8.830
    39   6 C        2.919    -0.034    28.849     8.808
    40   6 C        2.919    -0.039    28.957     8.824
    41   6 C        2.923    -0.041    29.013     8.833
    42   6 C        2.986    -0.009    28.226     8.715
    43   1 H        0.925     0.043     2.403     2.424
    44   1 H        0.925     0.031     2.576     2.510
    45   1 H        0.925     0.041     2.430     2.438
    46   1 H        0.925     0.047     2.357     2.401
    47   1 H        0.925     0.042     2.427     2.436
    48   1 H        0.925     0.046     2.373     2.409
    49   1 H        0.926     0.047     2.355     2.400
    50   1 H        0.926     0.036     2.504     2.475
    51   1 H        0.926     0.034     2.529     2.487
    52   1 H        0.926     0.031     2.566     2.505
    53   1 H        0.926     0.013     2.837     2.634
    54   1 H        0.926     0.004     2.994     2.706
    55   1 H        0.926     0.009     2.899     2.662
    56   1 H        0.926     0.018     2.761     2.598
    57   1 H        0.926     0.020     2.740     2.588
    58   1 H        0.926     0.033     2.550     2.497
    59   1 H        0.926     0.036     2.502     2.474
    60   1 H        0.926     0.040     2.451     2.448
    61   1 H        0.926     0.051     2.313     2.378
    62   1 H        0.925     0.049     2.337     2.391
    63   1 H        0.925     0.032     2.554     2.499
    64   1 H        0.925     0.048     2.345     2.395
    65   1 H        0.925     0.042     2.418     2.432
    66   1 H        0.925     0.049     2.330     2.387
    67   1 H        0.925     0.050     2.322     2.383
    68   1 H        0.926     0.051     2.307     2.375
    69   1 H        0.926     0.040     2.452     2.449
    70   1 H        0.926     0.035     2.520     2.482
    71   1 H        0.926     0.036     2.496     2.471
    72   1 H        0.926     0.044     2.398     2.422
    73   1 H        0.926     0.033     2.547     2.496
    74   1 H        0.926     0.038     2.472     2.459
    75   1 H        0.926     0.047     2.353     2.399

molecular dipole:
                 x           y           z       tot (Debye)
 q only:       -0.535       2.903       0.140
   full:       -0.415       2.213       0.141       5.734

 projected vibrational frequencies (cm⁻¹)
eigval :       -0.00    -0.00    -0.00    -0.00     0.00     0.00
eigval :       13.57    17.04    31.33    32.83    36.42    51.46
eigval :       64.74    66.49    91.09   101.96   111.00   119.64
eigval :      128.92   130.27   155.79   164.98   175.88   186.55
eigval :      194.68   198.96   213.18   222.06   240.99   245.81
eigval :      253.99   273.90   281.97   289.44   294.02   302.22
eigval :      317.29   325.16   342.69   355.27   365.22   368.41
eigval :      382.23   388.91   391.18   404.76   408.39   413.81
eigval :      416.53   444.14   445.52   455.81   464.88   481.93
eigval :      496.06   499.21   503.02   508.97   518.54   532.77
eigval :      550.08   553.94   557.65   567.85   573.66   575.99
eigval :      582.64   592.88   609.55   611.24   649.96   660.01
eigval :      684.02   687.72   687.92   705.84   710.41   717.58
eigval :      718.19   724.75   750.87   765.43   769.09   771.50
eigval :      775.43   804.30   806.31   809.44   816.74   818.95
eigval :      836.25   856.55   856.90   859.78   864.83   875.87
eigval :      883.82   897.46   899.05   903.61   907.09   907.51
eigval :      911.89   915.46   919.98   928.39   929.08   933.00
eigval :      941.19   961.91   966.08   983.58  1004.04  1008.82
eigval :     1040.00  1072.15  1073.29  1082.87  1090.09  1098.18
eigval :     1099.35  1105.53  1108.09  1116.15  1127.79  1137.22
eigval :     1137.98  1141.66  1150.06  1168.45  1171.08  1177.53
eigval :     1179.90  1183.25  1185.89  1187.41  1202.68  1206.91
eigval :     1216.89  1230.61  1241.81  1252.21  1254.94  1261.23
eigval :     1267.78  1269.38  1277.07  1282.94  1290.33  1292.61
eigval :     1307.56  1316.64  1319.18  1326.29  1329.29  1333.51
eigval :     1333.89  1366.99  1380.40  1384.52  1391.59  1393.42
eigval :     1409.41  1410.28  1417.11  1418.58  1429.63  1430.94
eigval :     1435.40  1447.89  1451.83  1465.27  1470.04  1471.41
eigval :     1478.97  1484.65  1489.84  1490.35  1494.42  1496.23
eigval :     1503.74  1520.45  1524.47  1526.98  1554.54  1559.80
eigval :     1565.42  1566.06  1573.65  1574.62  1586.98  1588.43
eigval :     3023.26  3028.43  3030.62  3030.93  3034.40  3034.91
eigval :     3037.00  3040.91  3044.23  3047.46  3049.36  3060.63
eigval :     3063.53  3063.63  3069.15  3076.14  3078.22  3079.28
eigval :     3079.72  3082.17  3084.73  3088.22  3089.00  3090.61
eigval :     3092.73  3094.63  3098.48  3109.65  3111.38  3113.23
eigval :     3118.18  3118.95  3120.10

   temp. (K)  partition function   enthalpy   heat capacity  entropy
                                   cal/mol     cal/K/mol   cal/K/mol   J/K/mol
 298.15  VIB  0.957E+14            20235.013    133.721    121.588
         ROT  0.340E+08              888.752      2.981     37.442
         INT  0.325E+22            21123.765    136.702    159.030
         TR   0.123E+29             1481.254      4.968     44.745
         TOT                       22605.0193   141.6700   203.7748   852.5937

       T/K    H(0)-H(T)+PV         H(T)/Eh          T*S/Eh         G(T)/Eh
   ------------------------------------------------------------------------
    298.15    0.360234E-01    0.633518E+00    0.968200E-01    0.536698E+00
   ------------------------------------------------------------------------

         :::::::::::::::::::::::::::::::::::::::::::::::::::::
         ::                  THERMODYNAMIC                  ::
         :::::::::::::::::::::::::::::::::::::::::::::::::::::
         :: total free energy        -108.613748450387 Eh   ::
         ::.................................................::
         :: total energy             -109.150446616439 Eh   ::
         :: zero point energy           0.597494745759 Eh   ::
         :: G(RRHO) w/o ZPVE           -0.060796579707 Eh   ::
         :: G(RRHO) contrib.            0.536698166051 Eh   ::
         :::::::::::::::::::::::::::::::::::::::::::::::::::::

           -------------------------------------------------
          | TOTAL ENERGY             -109.150446616439 Eh   |
          | TOTAL ENTHALPY           -108.516928479495 Eh   |
          | TOTAL FREE ENERGY        -108.613748450387 Eh   |
          | GRADIENT NORM               0.000028931860 Eh/α |
          | HOMO-LUMO GAP               0.754081577638 eV   |
           -------------------------------------------------

 * finished run on 2025/08/22 at 15:23:49.906
