   * xtb version 6.7.1 (edcfbbe) compiled by 'albert@albert-system' on 2024-07-22

   ID    Z sym.   atoms
    1    6 C      1-9, 11-18, 20-35, 37-42
    2    7 N      10, 19, 36
    3    1 H      43-75

          program call               : xtb data2507/toluene/Yad/Yad_toluene_T1_crest.xyz --gfn 2 --uhf 2 --gbsa toluene --ohess vtight --parallel 40 --molden --ceasefiles --namespace data2507/toluene/Yad/Yad_toluene_T1_finalOpt
      * Solvation model:               GBSA
        Solvent                        toluene
        Solvent mass                       9.2140E+01 g/mol
          :  Hamiltonian                  GFN2-xTB          :
 * total energy  :  -109.1525572 Eh     change       -0.1961581E-08 Eh
 * total energy  :  -109.1527045 Eh     change       -0.1472447E-03 Eh
 * total energy  :  -109.1528598 Eh     change       -0.1553210E-03 Eh
 * total energy  :  -109.1529588 Eh     change       -0.9903248E-04 Eh
 * total energy  :  -109.1531077 Eh     change       -0.1489024E-03 Eh
 * total energy  :  -109.1532704 Eh     change       -0.1626882E-03 Eh
 * total energy  :  -109.1533964 Eh     change       -0.1259235E-03 Eh
 * total energy  :  -109.1534827 Eh     change       -0.8632612E-04 Eh
 * total energy  :  -109.1535552 Eh     change       -0.7253752E-04 Eh
 * total energy  :  -109.1536285 Eh     change       -0.7331869E-04 Eh
 * total energy  :  -109.1550303 Eh     change       -0.2326473E-05 Eh
 * total energy  :  -109.1550322 Eh     change       -0.1929384E-05 Eh
 * total energy  :  -109.1550339 Eh     change       -0.1684268E-05 Eh
 * total energy  :  -109.1550354 Eh     change       -0.1469565E-05 Eh
 * total energy  :  -109.1550365 Eh     change       -0.1140542E-05 Eh
 * total energy  :  -109.1550373 Eh     change       -0.7437404E-06 Eh
 * total energy  :  -109.1550378 Eh     change       -0.5011548E-06 Eh
 * total energy  :  -109.1550381 Eh     change       -0.3160191E-06 Eh
 * total energy  :  -109.1550381 Eh     change       -0.3833449E-08 Eh
   *** GEOMETRY OPTIMIZATION CONVERGED AFTER 68 ITERATIONS ***

 final structure:
================
75
 xtb: 6.7.1 (edcfbbe)
C            5.23986030644674        1.22735891516982       -1.70261674207044
C            4.09924381192427        1.11873421641375       -0.67213588803119
C            4.28545872669728        2.16706846638639        0.44202682150560
C            4.13237794021032       -0.25878230897721       -0.04260413193350
C            5.26049190241128       -0.65876787932854        0.66181630766730
C            5.33119293323090       -1.88107711754476        1.30374412205388
C            4.23509310989349       -2.72777336458359        1.27009773439880
C            3.10668446924778       -2.35998651952512        0.57113477464137
C            3.04509444999722       -1.14123424629612       -0.11685404318493
N            1.91246043746747       -0.81665057806034       -0.84410042091865
C            0.82497586975993       -1.71832060018217       -0.89152673083215
C            0.90856855480389       -2.93624442186366       -1.53504554703599
C           -0.20560525371555       -3.77452930823506       -1.54737938995732
C           -1.40006628523098       -3.37367564457878       -0.90794118336140
C           -2.55534044366619       -4.15714719421102       -0.82520576348088
C           -3.69718770847668       -3.68774224622746       -0.16906912515172
C           -3.71745106137196       -2.42915068629268        0.38369818323781
C           -2.57805083868574       -1.60994085017442        0.31736805225503
N           -2.58506706462280       -0.27724949004252        0.78564989102412
C           -1.62106414400353        0.07217123353438        1.70956087715784
C           -0.96966524205447       -0.94228089419179        2.43048230661311
C            0.03492431795128       -0.64641397932455        3.32207797992081
C            0.40004381404575        0.67465437020349        3.53315573182023
C           -0.28262133130672        1.68257439337273        2.87618716604917
C           -1.30186949387645        1.41241561088237        1.97347229456087
C           -2.05074306581532        2.55360412755705        1.32374438798110
C           -2.71875865184682        3.39220782262607        2.43185914410153
C           -1.05095755806450        3.41698578099604        0.52984000687809
C           -3.11604207883418        2.05566152457083        0.37096253304512
C           -3.90416525002330        2.97820799259176       -0.30565040684497
C           -4.85416950885869        2.59359321730178       -1.23300084769145
C           -5.01063466627745        1.24773855239143       -1.52361073394972
C           -4.24365767465013        0.31106460513308       -0.86706484726687
C           -3.31087840682061        0.69055635280121        0.10870251363697
C           -1.38570096808651       -2.08448922578622       -0.28830887492018
N           -0.30011725888565       -1.31548149944369       -0.26845998780845
C            1.77045316088468        0.41940561427725       -1.45038011504342
C            0.60465137918619        0.70580682339068       -2.17321472837372
C            0.41930976197829        1.93518552291102       -2.76722794224831
C            1.40730852948770        2.90159156327442       -2.67308023480048
C            2.57610911430754        2.61059919380461       -1.99324190276992
C            2.78552504426208        1.38371231454786       -1.37779818395390
H            5.25158635982645        2.21127484152826       -2.16252508199670
H            5.10483532569166        0.48338087608805       -2.48593984746773
H            6.20364264682316        1.05856490540359       -1.23112155520048
H            4.27687554660292        3.17259502281921        0.03194044882492
H            3.47707983748237        2.08164682699091        1.16583820764433
H            5.22858116615666        2.01808400819087        0.95949877230470
H            6.11228734995197        0.00143903341804        0.71751451028809
H            6.22607929630454       -2.16351546354133        1.83717691594871
H            4.25741805528630       -3.67489304829192        1.78861926595355
H            2.25030359558908       -3.01607025776509        0.55789340064778
H            1.82500695811317       -3.22140544813142       -2.03100699195808
H           -0.17190253160181       -4.71998297776547       -2.06767063539246
H           -2.54504055208984       -5.15200739021830       -1.24710741543085
H           -4.56641282703913       -4.32502236697960       -0.09415863967930
H           -4.59116531721973       -2.06443224982502        0.90427283773394
H           -1.27151105990463       -1.96749617423300        2.28208795129639
H            0.53323293616343       -1.44330706378204        3.85396300342550
H            1.19725198074410        0.91793626638365        4.21935320739078
H           -0.00780469696952        2.70680717410620        3.07626116109061
H           -1.97767221633618        3.76110705834842        3.13460494452272
H           -3.43640497858211        2.78178236893720        2.97701140879651
H           -3.24213842029599        4.24440628863868        2.00889271135819
H           -0.29018970990359        3.82754278610200        1.18702901006168
H           -1.55771774244123        4.24121424369689        0.03665393212317
H           -0.55971719722068        2.81030004639632       -0.22853646639847
H           -3.77068664547112        4.03119138525725       -0.11214664056334
H           -5.45303361335975        3.33670638505957       -1.73726344252388
H           -5.72562660293897        0.92644223848897       -2.26634788432950
H           -4.35611959576270       -0.73178501455603       -1.11563068820681
H           -0.16096512674064       -0.04662153581943       -2.26693099908550
H           -0.49473592880846        2.13398106103413       -3.30744510758700
H            1.27442372277434        3.86795472194275       -3.13513124793254
H            3.34552477175124        3.36567375569523       -1.94668635327822

          :  Hamiltonian                  GFN2-xTB          :
         :: gradient norm              0.000052803968 Eh/a0 ::
         :: HOMO-LUMO gap              0.851918796473 eV    ::
         :: SCC energy              -111.101797233846 Eh    ::
         :: -> dispersion             -0.110313355951 Eh    ::
         :: -> Gsolv                  -0.042691789283 Eh    ::
         :: repulsion energy           1.946759136509 Eh    ::

    * Orbital Energies and Occupations

         #    Occupation            Energy/Eh            Energy/eV
      -------------------------------------------------------------
         1        2.0000           -0.6716363             -18.2762
       ...           ...                  ...                  ...
        91        2.0000           -0.4097119             -11.1488
        92        2.0000           -0.4095171             -11.1435
        93        2.0000           -0.4084657             -11.1149
        94        2.0000           -0.4048417             -11.0163
        95        2.0000           -0.4033666             -10.9762
        96        2.0000           -0.3989236             -10.8553
        97        2.0000           -0.3980737             -10.8321
        98        2.0000           -0.3939320             -10.7194
        99        2.0000           -0.3720208             -10.1232
       100        2.0000           -0.3637398              -9.8979
       101        1.9885           -0.3543586              -9.6426
       102        1.0115           -0.3459010              -9.4124
       103        1.0000           -0.2642286              -7.1900 (HOMO)
       104                         -0.2329209              -6.3381 (LUMO)
       105                         -0.2309125              -6.2834
       106                         -0.2262073              -6.1554
       107                         -0.2252550              -6.1295
       108                         -0.2243560              -6.1050
       109                         -0.2234868              -6.0814
       110                         -0.2195837              -5.9752
       111                         -0.2024332              -5.5085
       112                         -0.1960556              -5.3349
       113                         -0.1845131              -5.0209
       114                         -0.1423149              -3.8726
       ...                                ...                  ...
       201                          0.6961572              18.9434
      -------------------------------------------------------------
                  HL-Gap            0.0313077 Eh            0.8519 eV

     #   Z          covCN         q      C6AA      α(0)
     1   6 C        3.761    -0.106    22.566     6.772
     2   6 C        3.909     0.022    20.147     6.380
     3   6 C        3.761    -0.106    22.581     6.774
     4   6 C        2.979    -0.008    28.218     8.714
     5   6 C        2.927    -0.037    28.909     8.817
     6   6 C        2.917    -0.040    28.991     8.829
     7   6 C        2.918    -0.032    28.808     8.802
     8   6 C        2.924    -0.052    29.283     8.874
     9   6 C        2.927     0.063    26.584     8.455
    10   7 N        2.756    -0.052    22.253     7.006
    11   6 C        2.890     0.131    25.135     8.220
    12   6 C        2.908    -0.066    29.649     8.928
    13   6 C        2.923    -0.072    29.807     8.953
    14   6 C        2.974    -0.009    28.233     8.716
    15   6 C        2.915    -0.072    29.796     8.951
    16   6 C        2.911    -0.048    29.189     8.859
    17   6 C        2.911    -0.059    29.472     8.902
    18   6 C        2.934     0.014    27.705     8.632
    19   7 N        2.753    -0.019    21.624     6.907
    20   6 C        2.937     0.073    26.359     8.420
    21   6 C        2.924    -0.036    28.885     8.814
    22   6 C        2.917    -0.031    28.766     8.795
    23   6 C        2.918    -0.034    28.840     8.806
    24   6 C        2.925    -0.036    28.897     8.816
    25   6 C        2.979    -0.001    28.057     8.689
    26   6 C        3.910     0.023    20.129     6.377
    27   6 C        3.761    -0.107    22.598     6.777
    28   6 C        3.761    -0.105    22.552     6.770
    29   6 C        2.979    -0.004    28.113     8.697
    30   6 C        2.926    -0.035    28.883     8.814
    31   6 C        2.917    -0.036    28.900     8.816
    32   6 C        2.918    -0.031    28.783     8.798
    33   6 C        2.923    -0.050    29.253     8.870
    34   6 C        2.927     0.062    26.610     8.460
    35   6 C        2.949     0.094    25.903     8.347
    36   7 N        1.848    -0.302    28.667     7.935
    37   6 C        2.931     0.068    26.480     8.439
    38   6 C        2.924    -0.048    29.191     8.860
    39   6 C        2.918    -0.033    28.830     8.805
    40   6 C        2.917    -0.039    28.972     8.826
    41   6 C        2.926    -0.037    28.916     8.818
    42   6 C        2.979    -0.008    28.221     8.714
    43   1 H        0.925     0.048     2.346     2.395
    44   1 H        0.925     0.031     2.568     2.506
    45   1 H        0.925     0.048     2.349     2.397
    46   1 H        0.925     0.049     2.336     2.390
    47   1 H        0.925     0.035     2.518     2.482
    48   1 H        0.925     0.047     2.353     2.399
    49   1 H        0.926     0.043     2.410     2.428
    50   1 H        0.926     0.036     2.504     2.474
    51   1 H        0.926     0.033     2.542     2.493
    52   1 H        0.926     0.029     2.604     2.524
    53   1 H        0.926     0.014     2.829     2.630
    54   1 H        0.926     0.009     2.908     2.667
    55   1 H        0.926     0.010     2.888     2.657
    56   1 H        0.926     0.017     2.779     2.607
    57   1 H        0.926     0.024     2.672     2.556
    58   1 H        0.926     0.035     2.522     2.483
    59   1 H        0.926     0.035     2.513     2.479
    60   1 H        0.926     0.040     2.452     2.449
    61   1 H        0.926     0.046     2.369     2.407
    62   1 H        0.925     0.050     2.322     2.383
    63   1 H        0.925     0.035     2.515     2.480
    64   1 H        0.925     0.051     2.310     2.377
    65   1 H        0.925     0.049     2.330     2.387
    66   1 H        0.925     0.049     2.330     2.387
    67   1 H        0.925     0.034     2.529     2.487
    68   1 H        0.926     0.046     2.372     2.408
    69   1 H        0.926     0.039     2.461     2.453
    70   1 H        0.926     0.036     2.496     2.471
    71   1 H        0.926     0.040     2.450     2.447
    72   1 H        0.926     0.032     2.562     2.503
    73   1 H        0.926     0.032     2.555     2.500
    74   1 H        0.926     0.037     2.483     2.464
    75   1 H        0.926     0.043     2.403     2.424

molecular dipole:
                 x           y           z       tot (Debye)
 q only:        0.847       2.799       0.767
   full:        0.769       2.207       0.521       6.086

 projected vibrational frequencies (cm⁻¹)
eigval :       -0.00    -0.00    -0.00    -0.00     0.00     0.00
eigval :       11.02    18.79    25.86    34.75    36.58    41.97
eigval :       63.78    67.32    94.05    95.36   102.08   107.58
eigval :      122.57   128.17   129.99   140.77   166.50   178.38
eigval :      190.28   190.85   203.63   212.79   220.96   228.54
eigval :      234.38   239.66   245.25   297.73   304.20   306.01
eigval :      327.97   329.44   340.72   344.17   348.76   352.20
eigval :      367.96   378.90   381.48   383.72   391.61   410.83
eigval :      414.10   453.25   455.05   456.39   475.38   497.13
eigval :      506.96   508.83   511.06   521.85   525.56   539.61
eigval :      540.90   546.05   551.48   556.13   577.24   583.17
eigval :      585.58   604.41   608.10   630.74   653.73   659.63
eigval :      688.02   688.21   690.68   700.91   703.96   712.00
eigval :      717.46   719.42   752.16   773.30   774.89   776.01
eigval :      777.17   805.66   817.65   823.41   824.66   826.46
eigval :      837.28   858.55   862.89   870.67   871.86   873.88
eigval :      888.93   907.75   909.84   910.52   912.26   912.92
eigval :      916.55   919.86   920.63   922.67   922.92   936.43
eigval :      937.30   957.17   958.05   981.98  1012.39  1012.70
eigval :     1041.96  1074.22  1075.07  1087.46  1092.30  1102.66
eigval :     1105.88  1109.11  1114.06  1114.42  1114.49  1136.83
eigval :     1137.68  1149.16  1153.45  1169.44  1171.12  1178.75
eigval :     1181.81  1182.53  1183.74  1184.63  1201.96  1207.63
eigval :     1216.90  1237.44  1239.54  1241.25  1242.75  1252.39
eigval :     1255.29  1272.38  1286.75  1292.88  1294.07  1302.64
eigval :     1305.56  1307.35  1320.17  1326.85  1327.01  1333.09
eigval :     1336.86  1357.10  1373.97  1384.52  1396.57  1397.86
eigval :     1404.07  1415.13  1416.28  1416.67  1425.88  1428.20
eigval :     1430.57  1455.49  1459.28  1469.71  1475.20  1478.97
eigval :     1481.97  1482.69  1483.49  1485.33  1492.86  1493.07
eigval :     1497.72  1499.42  1504.56  1533.57  1551.28  1559.06
eigval :     1565.96  1572.69  1576.96  1580.15  1588.68  1591.73
eigval :     3024.09  3026.61  3030.56  3032.12  3043.71  3045.94
eigval :     3046.11  3047.98  3051.16  3053.10  3055.31  3056.83
eigval :     3061.96  3064.11  3068.46  3076.00  3076.20  3076.39
eigval :     3077.51  3079.46  3082.02  3083.95  3084.12  3084.74
eigval :     3087.38  3093.32  3094.55  3096.03  3098.00  3098.56
eigval :     3100.68  3112.65  3115.34

   temp. (K)  partition function   enthalpy   heat capacity  entropy
                                   cal/mol     cal/K/mol   cal/K/mol   J/K/mol
 298.15  VIB  0.347E+15            20492.784    133.570    124.300
         ROT  0.327E+08              888.752      2.981     37.369
         INT  0.114E+23            21381.537    136.550    161.669
         TR   0.123E+29             1481.254      4.968     44.745
         TOT                       22862.7907   141.5186   206.4140   863.6361

       T/K    H(0)-H(T)+PV         H(T)/Eh          T*S/Eh         G(T)/Eh
   ------------------------------------------------------------------------
    298.15    0.364342E-01    0.633453E+00    0.980739E-01    0.535379E+00
   ------------------------------------------------------------------------

         :::::::::::::::::::::::::::::::::::::::::::::::::::::
         ::                  THERMODYNAMIC                  ::
         :::::::::::::::::::::::::::::::::::::::::::::::::::::
         :: total free energy        -108.619658893924 Eh   ::
         ::.................................................::
         :: total energy             -109.155038097734 Eh   ::
         :: zero point energy           0.597018976690 Eh   ::
         :: G(RRHO) w/o ZPVE           -0.061639772880 Eh   ::
         :: G(RRHO) contrib.            0.535379203810 Eh   ::
         :::::::::::::::::::::::::::::::::::::::::::::::::::::

           -------------------------------------------------
          | TOTAL ENERGY             -109.155038097734 Eh   |
          | TOTAL ENTHALPY           -108.521584944905 Eh   |
          | TOTAL FREE ENERGY        -108.619658893924 Eh   |
          | GRADIENT NORM               0.000052646760 Eh/α |
          | HOMO-LUMO GAP               0.851925977924 eV   |
           -------------------------------------------------

 * finished run on 2025/08/22 at 15:28:12.202
