   * xtb version 6.7.1 (edcfbbe) compiled by 'albert@albert-system' on 2024-07-22

   ID    Z sym.   atoms
    1    7 N      1, 10, 25
    2    6 C      2-9, 11-24, 26-33
    3    1 H      34-54

          program call               : xtb data2507/gas/DPimdPPA/DPimdPPA_gas_T1_crest.xyz --gfn 2 --spinpol --tblite --uhf 2 --ohess vtight --parallel 40 --molden --ceasefiles --namespace data2507/gas/DPimdPPA/DPimdPPA_gas_T1_finalOpt
 * total energy  :   -83.5959930 Eh     change       -0.1195045E-07 Eh
 * total energy  :   -83.5960286 Eh     change       -0.3556488E-04 Eh
 * total energy  :   -83.5960548 Eh     change       -0.2618587E-04 Eh
 * total energy  :   -83.5960748 Eh     change       -0.1999563E-04 Eh
 * total energy  :   -83.5960844 Eh     change       -0.9657800E-05 Eh
 * total energy  :   -83.5960959 Eh     change       -0.1152113E-04 Eh
 * total energy  :   -83.5961081 Eh     change       -0.1214390E-04 Eh
 * total energy  :   -83.5961181 Eh     change       -0.9978080E-05 Eh
 * total energy  :   -83.5961272 Eh     change       -0.9094230E-05 Eh
 * total energy  :   -83.5961368 Eh     change       -0.9690469E-05 Eh
 * total energy  :   -83.5962229 Eh     change       -0.6860916E-06 Eh
 * total energy  :   -83.5962234 Eh     change       -0.5122653E-06 Eh
 * total energy  :   -83.5962239 Eh     change       -0.5126818E-06 Eh
 * total energy  :   -83.5962245 Eh     change       -0.5607117E-06 Eh
 * total energy  :   -83.5962253 Eh     change       -0.8450801E-06 Eh
 * total energy  :   -83.5962263 Eh     change       -0.9696765E-06 Eh
 * total energy  :   -83.5962272 Eh     change       -0.9129363E-06 Eh
 * total energy  :   -83.5962280 Eh     change       -0.8084268E-06 Eh
 * total energy  :   -83.5962280 Eh     change       -0.1378530E-07 Eh
   *** GEOMETRY OPTIMIZATION CONVERGED AFTER 44 ITERATIONS ***

 final structure:
================
54
 xtb: 6.7.1 (edcfbbe)
N            4.88071153076103       -2.36362984361769        1.72922176128876
C            5.10088486506906       -1.36777554574723        1.18476149946220
C            5.37737440033114       -0.17417302515388        0.52554196118178
C            4.35065647816516        0.84423275973920        0.46470425391460
C            2.99072131311465        0.64928345432035        0.32694338130172
C            2.39355665042714       -0.62794396277409        0.08471407370035
C            1.04417851648883       -0.77250971053948       -0.00958743076306
C            0.17716567119837        0.33762453881471        0.11333526830306
C           -1.23678052395982        0.22233309798012        0.04438353235254
N           -2.08691773279401        1.23897047981868        0.10577612325256
C           -3.32984498508219        0.73092488783127        0.00906370178081
C           -4.48812437766841        1.61082936212781       -0.02216740711647
C           -5.62357690211645        1.30315837156504       -0.77066103738687
C           -6.69839615821736        2.17130308217102       -0.79080039580096
C           -6.65479112186750        3.35565297075402       -0.07269252731890
C           -5.52159358045682        3.67737043688927        0.65708083401130
C           -4.44287545030055        2.81504141205785        0.67928917182689
C           -3.26321211681024       -0.66666619856663       -0.10326321372163
C           -4.27610842806694       -1.69812962552080       -0.15280161587956
C           -5.47902013560858       -1.55204883066045        0.54376373088435
C           -6.43226072804718       -2.54948162862518        0.50634839652857
C           -6.20640209417858       -3.70885323230327       -0.21995546655597
C           -5.01448229625121       -3.86724689091965       -0.90794286881362
C           -4.05425312795169       -2.87491363186691       -0.87324492257263
N           -1.92775355356387       -0.95461184134299       -0.09686625344677
C            0.75465487809730        1.61614769324210        0.30842903313210
C            2.10017273438560        1.76939684545510        0.40249653624930
C            6.69172536734040        0.03057327734607        0.00890566666675
C            7.72572825822044       -0.89038298877080        0.28504652075906
C            8.99589918138363       -0.69043686324542       -0.20213944745757
C            9.28235390509667        0.42092822135815       -0.98689730031110
C            8.27396923963713        1.32942744249714       -1.28456704761117
C            6.99937931564118        1.14392373775261       -0.80054232722279
H            4.69929313323136        1.86382908377423        0.56995481669882
H            3.03362850702106       -1.48882719508166       -0.02554595588432
H            0.63670130640498       -1.75749884233266       -0.19015060898585
H           -5.65574800023324        0.39079243494216       -1.34801087453918
H           -7.57386203123123        1.92534971815162       -1.37415936774316
H           -7.49910462808289        4.02909071853295       -0.08886253484265
H           -5.48078624496227        4.60482254646444        1.20948035792629
H           -3.55146457413945        3.05329452343693        1.23837871131126
H           -5.64941874965326       -0.65707638565438        1.12253855403849
H           -7.35643353028877       -2.42539649296412        1.05096787038107
H           -6.95524693706897       -4.48588864487368       -0.24835956321400
H           -4.83332192503128       -4.76783392167097       -1.47609933664401
H           -3.13735520265934       -2.99912169968253       -1.43266507679834
H           -1.53533306499191       -1.88097554589415       -0.11488081239547
H            0.08456885420978        2.45818366205667        0.38074771921561
H            2.52715006256554        2.75006376476991        0.55623130703252
H            7.50649776165313       -1.75374025181547        0.89622505863161
H            9.77574452920864       -1.40199045016532        0.02643642282496
H           10.28100254578203        0.57485597024556       -1.36670361233243
H            8.49134641240162        2.18781774233697       -1.90377355184833
H            6.22145697194799        1.84712672965754       -1.05684237705113

 projected vibrational frequencies (cm⁻¹)
eigval :       -0.00    -0.00    -0.00    -0.00     0.00     0.00
eigval :        9.80    15.47    25.01    33.78    39.17    44.56
eigval :       48.58    58.13    73.71    83.31    88.68   115.61
eigval :      126.96   132.55   152.75   162.94   191.37   237.34
eigval :      242.26   249.53   282.95   294.15   304.49   321.31
eigval :      353.42   364.02   368.07   369.24   376.96   391.76
eigval :      422.20   427.51   428.15   456.42   461.16   480.68
eigval :      516.39   546.18   563.23   570.05   583.44   586.70
eigval :      589.76   593.32   610.00   639.62   644.62   650.04
eigval :      654.71   659.28   666.38   677.41   691.04   724.28
eigval :      733.43   745.19   757.55   765.09   765.90   804.66
eigval :      828.46   841.64   849.79   873.21   877.85   884.65
eigval :      900.61   901.27   904.80   920.84   922.84   925.29
eigval :      928.15   929.82   930.55   931.53   934.05   938.18
eigval :      958.00   974.37   984.32  1015.61  1026.65  1072.46
eigval :     1077.54  1080.81  1083.46  1116.84  1118.33  1123.16
eigval :     1123.41  1136.05  1176.08  1179.76  1181.44  1181.54
eigval :     1193.75  1196.11  1200.30  1209.10  1228.31  1251.69
eigval :     1253.83  1274.14  1277.98  1281.29  1285.99  1298.45
eigval :     1313.15  1319.01  1322.24  1330.53  1336.80  1343.69
eigval :     1381.65  1406.62  1425.32  1428.60  1432.18  1434.49
eigval :     1440.63  1445.99  1476.80  1487.27  1498.52  1515.22
eigval :     1530.34  1535.46  1563.68  1570.53  1577.81  1578.98
eigval :     1589.58  1595.47  2251.13  3043.71  3063.21  3066.74
eigval :     3072.68  3074.64  3074.87  3077.18  3078.89  3080.47
eigval :     3084.86  3085.62  3089.67  3091.77  3092.89  3095.14
eigval :     3097.31  3100.78  3104.92  3109.05  3110.88  3471.92

   temp. (K)  partition function   enthalpy   heat capacity  entropy
                                   cal/mol     cal/K/mol   cal/K/mol   J/K/mol
 298.15  VIB  0.479E+13            15705.337     97.160     98.807
         ROT  0.395E+08              888.752      2.981     37.743
         INT  0.189E+21            16594.090    100.141    136.550
         TR   0.843E+28             1481.254      4.968     44.001
         TOT                       18075.3437   105.1089   180.5502   755.4221

       T/K    H(0)-H(T)+PV         H(T)/Eh          T*S/Eh         G(T)/Eh
   ------------------------------------------------------------------------
    298.15    0.288049E-01    0.439001E+00    0.857852E-01    0.353216E+00
   ------------------------------------------------------------------------

         :::::::::::::::::::::::::::::::::::::::::::::::::::::
         ::                  THERMODYNAMIC                  ::
         :::::::::::::::::::::::::::::::::::::::::::::::::::::
         :: total free energy         -83.243011798577 Eh   ::
         ::.................................................::
         :: total energy              -83.596228005820 Eh   ::
         :: zero point energy           0.410196546791 Eh   ::
         :: G(RRHO) w/o ZPVE           -0.056980339548 Eh   ::
         :: G(RRHO) contrib.            0.353216207243 Eh   ::
         :::::::::::::::::::::::::::::::::::::::::::::::::::::

           -------------------------------------------------
          | TOTAL ENERGY              -83.596228005820 Eh   |
          | TOTAL ENTHALPY            -83.157226565364 Eh   |
          | TOTAL FREE ENERGY         -83.243011798577 Eh   |
          | GRADIENT NORM               0.000166115055 Eh/α |
           -------------------------------------------------

 * finished run on 2025/07/20 at 02:28:14.663
