   * xtb version 6.7.1 (edcfbbe) compiled by 'albert@albert-system' on 2024-07-22

   ID    Z sym.   atoms
    1    7 N      1, 10, 25
    2    6 C      2-9, 11-24, 26-33
    3    1 H      34-54

          program call               : xtb data2507/gas/DPimdPPA/DPimdPPA.xyz --gfn 2 --ohess vtight --parallel 40 --molden --ceasefiles --namespace data2507/gas/DPimdPPA/DPimdPPA_gas_S0_preOpt
          :  Hamiltonian                  GFN2-xTB          :
 * total energy  :   -83.6437610 Eh     change       -0.3592788E-08 Eh
 * total energy  :   -83.6505961 Eh     change       -0.6835142E-02 Eh
 * total energy  :   -83.6524817 Eh     change       -0.1885598E-02 Eh
 * total energy  :   -83.6537366 Eh     change       -0.1254862E-02 Eh
 * total energy  :   -83.6551047 Eh     change       -0.1368088E-02 Eh
 * total energy  :   -83.6560712 Eh     change       -0.9665378E-03 Eh
 * total energy  :   -83.6568329 Eh     change       -0.7617093E-03 Eh
 * total energy  :   -83.6575671 Eh     change       -0.7341998E-03 Eh
 * total energy  :   -83.6580355 Eh     change       -0.4683875E-03 Eh
 * total energy  :   -83.6583842 Eh     change       -0.3486953E-03 Eh
 * total energy  :   -83.6597834 Eh     change       -0.8891370E-06 Eh
 * total energy  :   -83.6597841 Eh     change       -0.7041820E-06 Eh
 * total energy  :   -83.6597846 Eh     change       -0.5421320E-06 Eh
 * total energy  :   -83.6597854 Eh     change       -0.8084748E-06 Eh
 * total energy  :   -83.6597859 Eh     change       -0.4784467E-06 Eh
 * total energy  :   -83.6597861 Eh     change       -0.2269265E-06 Eh
 * total energy  :   -83.6597857 Eh     change        0.4590326E-06 Eh
 * total energy  :   -83.6597864 Eh     change       -0.7087154E-06 Eh
 * total energy  :   -83.6597865 Eh     change       -0.9099128E-07 Eh
   *** GEOMETRY OPTIMIZATION CONVERGED AFTER 125 ITERATIONS ***

 final structure:
================
54
 xtb: 6.7.1 (edcfbbe)
N            5.12885608571871       -3.01938488913957       -0.41948230254390
C            5.23375912550540       -1.88844594568603       -0.24468701057359
C            5.46983907936100       -0.51299112889448       -0.03883387560260
C            4.49633410405506        0.42307091018691        0.06562535194686
C            3.06283995091247        0.26960681886921        0.05357875502517
C            2.40414397906269       -0.96162331690427        0.14922529126000
C            1.02903088079160       -1.03276044383080        0.13533964339971
C            0.25316663769075        0.12443666937889        0.02553335965443
C           -1.18836472478763        0.09731224968334        0.00483096803426
N           -1.95563432791030        1.16413528925258       -0.07019562996884
C           -3.24155443146448        0.73547140508204       -0.06649865352443
C           -4.33645792933987        1.68654835542375       -0.19935376945868
C           -5.52092040998008        1.35368842691667       -0.85365206754462
C           -6.53468012337839        2.28528999959893       -0.97338931111046
C           -6.37975833702935        3.55907473707571       -0.45092042637698
C           -5.19706613094411        3.90309058992179        0.18319083186197
C           -4.18022229318176        2.97596588028989        0.30562388965115
C           -3.26765625441107       -0.65403682238720        0.02493315599216
C           -4.34629769455733       -1.61856196777269        0.13855920805406
C           -5.49913021496484       -1.31364777435253        0.86384251328959
C           -6.51422255285639       -2.24205862904586        0.98305685384902
C           -6.39708765026186       -3.48843310602706        0.38777395545105
C           -5.25432549377760       -3.80291023949573       -0.32807213811717
C           -4.23419987009457       -2.87839955928228       -0.45078294421460
N           -1.95243773503388       -1.03199264172113        0.05551832884489
C            0.90445207042376        1.35985800573821       -0.06087229339296
C            2.27597836496409        1.42841569700726       -0.04211066503289
C            6.89869419440481       -0.15752836220328        0.01379649906996
C            7.82663210913753       -0.86707628901722       -0.74820315533229
C            9.16622744928069       -0.52956296716468       -0.71247030361650
C            9.60204355684261        0.51188301328389        0.08995092831080
C            8.68959389627297        1.21192997900789        0.86207770864311
C            7.34841151052776        0.88113985910166        0.82748785139233
H            4.83057940544339        1.45128772777133        0.14249893038593
H            2.97584169220861       -1.86991278536356        0.24638869954305
H            0.56102831488496       -2.00339053876674        0.21550463231117
H           -5.64073885240308        0.36793378804009       -1.27883730125431
H           -7.44970565784967        2.01784853084061       -1.48209450961291
H           -7.17602440320310        4.28299938762621       -0.54483573993596
H           -5.06884081690476        4.89871394387471        0.58288215191239
H           -3.25154953872667        3.23096392315335        0.79226486024406
H           -5.58520332944946       -0.34708378572198        1.33683392074511
H           -7.40109704925980       -1.99461240708103        1.54748041351494
H           -7.19316520620371       -4.21168864550140        0.48197425268478
H           -5.15779314393381       -4.77201970206032       -0.79549177705390
H           -3.35533871742057       -3.12614369441914       -1.03030036491365
H           -1.62763724756913       -1.98037228492387        0.14563426781978
H            0.29901068361960        2.24839011000791       -0.14169762225784
H            2.76297513896092        2.39099585788382       -0.11091941424325
H            7.49031628529974       -1.67819120272186       -1.37778613315538
H            9.87321532127254       -1.08294522289431       -1.31255140907747
H           10.64937476846984        0.77281823107584        0.11934592395946
H            9.02550547074104        2.01665775649414        1.49961374108206
H            6.64925906105391        1.41624920980011        1.45367192999184

          :  Hamiltonian                  GFN2-xTB          :
         :: gradient norm              0.000062953640 Eh/a0 ::
         :: HOMO-LUMO gap              1.850804907151 eV    ::
         :: SCC energy               -85.268068800672 Eh    ::
         :: -> dispersion             -0.065718024228 Eh    ::
         :: repulsion energy           1.608282325811 Eh    ::

    * Orbital Energies and Occupations

         #    Occupation            Energy/Eh            Energy/eV
      -------------------------------------------------------------
         1        2.0000           -0.6920996             -18.8330
       ...           ...                  ...                  ...
        66        2.0000           -0.4249735             -11.5641
        67        2.0000           -0.4214549             -11.4684
        68        2.0000           -0.4181073             -11.3773
        69        2.0000           -0.4171889             -11.3523
        70        2.0000           -0.4165495             -11.3349
        71        2.0000           -0.4144909             -11.2789
        72        2.0000           -0.4129868             -11.2379
        73        2.0000           -0.4125034             -11.2248
        74        2.0000           -0.4023458             -10.9484
        75        2.0000           -0.3989127             -10.8550
        76        2.0000           -0.3886879             -10.5767
        77        2.0000           -0.3795105             -10.3270
        78        2.0000           -0.3634729              -9.8906 (HOMO)
        79                         -0.2954571              -8.0398 (LUMO)
        80                         -0.2548069              -6.9336
        81                         -0.2382355              -6.4827
        82                         -0.2315636              -6.3012
        83                         -0.2312716              -6.2932
        84                         -0.2311638              -6.2903
        85                         -0.2265440              -6.1646
        86                         -0.2166724              -5.8960
        87                         -0.2151876              -5.8556
        88                         -0.2022153              -5.5026
        89                         -0.1694522              -4.6110
       ...                                ...                  ...
       153                          1.1607614              31.5859
      -------------------------------------------------------------
                  HL-Gap            0.0680158 Eh            1.8508 eV

     #   Z          covCN         q      C6AA      α(0)
     1   7 N        0.911    -0.254    26.597     7.459
     2   6 C        1.913     0.120    28.159     8.570
     3   6 C        2.951     0.005    27.899     8.663
     4   6 C        2.913    -0.026    28.662     8.779
     5   6 C        2.968     0.013    27.723     8.637
     6   6 C        2.920    -0.032    28.804     8.801
     7   6 C        2.920    -0.035    28.877     8.812
     8   6 C        2.973     0.003    27.952     8.672
     9   6 C        3.149     0.126    24.993     8.178
    10   7 N        1.917    -0.282    28.164     7.869
    11   6 C        3.172     0.057    26.356     8.386
    12   6 C        2.974     0.011    27.767     8.644
    13   6 C        2.923    -0.036    28.887     8.814
    14   6 C        2.919    -0.030    28.749     8.793
    15   6 C        2.920    -0.031    28.783     8.798
    16   6 C        2.919    -0.029    28.733     8.790
    17   6 C        2.927    -0.029    28.731     8.790
    18   6 C        3.059     0.025    27.387     8.582
    19   6 C        2.971     0.005    27.904     8.665
    20   6 C        2.925    -0.032    28.798     8.800
    21   6 C        2.919    -0.027    28.675     8.781
    22   6 C        2.920    -0.030    28.752     8.793
    23   6 C        2.918    -0.029    28.720     8.788
    24   6 C        2.925    -0.037    28.925     8.820
    25   7 N        2.809    -0.112    23.433     7.190
    26   6 C        2.924    -0.029    28.734     8.791
    27   6 C        2.927    -0.030    28.760     8.795
    28   6 C        2.988     0.015    27.665     8.628
    29   6 C        2.924    -0.031    28.767     8.796
    30   6 C        2.918    -0.027    28.675     8.781
    31   6 C        2.920    -0.028    28.702     8.786
    32   6 C        2.919    -0.028    28.702     8.785
    33   6 C        2.923    -0.034    28.847     8.808
    34   1 H        0.925     0.044     2.390     2.418
    35   1 H        0.926     0.048     2.339     2.392
    36   1 H        0.926     0.026     2.641     2.542
    37   1 H        0.926     0.027     2.628     2.535
    38   1 H        0.926     0.028     2.615     2.529
    39   1 H        0.926     0.029     2.606     2.524
    40   1 H        0.926     0.030     2.582     2.513
    41   1 H        0.926     0.047     2.353     2.399
    42   1 H        0.926     0.037     2.489     2.467
    43   1 H        0.926     0.034     2.530     2.487
    44   1 H        0.926     0.033     2.547     2.495
    45   1 H        0.926     0.032     2.559     2.502
    46   1 H        0.925     0.025     2.665     2.553
    47   1 H        0.860     0.165     1.303     1.788
    48   1 H        0.926     0.062     2.178     2.308
    49   1 H        0.926     0.038     2.479     2.462
    50   1 H        0.926     0.038     2.472     2.458
    51   1 H        0.926     0.036     2.508     2.476
    52   1 H        0.926     0.034     2.527     2.486
    53   1 H        0.926     0.034     2.537     2.491
    54   1 H        0.926     0.033     2.547     2.496

molecular dipole:
                 x           y           z       tot (Debye)
 q only:       -0.267       0.392       0.292
   full:       -0.246       0.222       0.367       1.257

 projected vibrational frequencies (cm⁻¹)
eigval :       -0.00    -0.00    -0.00     0.00     0.00     0.00
eigval :        9.94    15.30    24.49    34.31    34.39    43.10
eigval :       44.39    53.96    67.93    71.40    97.94   113.70
eigval :      124.86   148.59   155.24   157.20   204.91   232.26
eigval :      238.53   265.62   278.23   297.17   323.63   331.13
eigval :      349.30   367.19   369.69   370.25   376.69   389.15
eigval :      423.68   431.82   448.82   475.39   487.32   502.79
eigval :      528.56   562.89   586.21   586.78   590.47   596.38
eigval :      600.19   611.14   618.90   648.87   655.84   662.53
eigval :      664.03   667.16   668.43   686.18   698.71   726.12
eigval :      757.28   759.56   765.32   777.59   810.50   848.26
eigval :      854.62   873.32   876.13   878.84   882.25   901.14
eigval :      903.35   903.48   907.87   926.84   928.80   928.97
eigval :      929.81   931.73   932.19   934.23   940.00   954.14
eigval :      970.39   976.03  1015.44  1018.87  1044.44  1080.58
eigval :     1083.05  1085.46  1086.39  1118.32  1122.38  1125.34
eigval :     1125.74  1143.09  1181.81  1181.94  1182.11  1193.23
eigval :     1195.86  1200.96  1203.40  1211.19  1230.39  1253.03
eigval :     1270.98  1274.95  1281.05  1282.50  1287.16  1296.08
eigval :     1318.60  1318.77  1322.09  1329.04  1357.24  1368.48
eigval :     1405.51  1415.56  1430.12  1431.51  1434.90  1447.70
eigval :     1463.04  1471.94  1491.05  1523.04  1549.38  1555.76
eigval :     1563.94  1577.35  1579.23  1582.10  1594.70  1595.78
eigval :     1599.72  1612.19  2344.84  3047.61  3063.78  3070.07
eigval :     3072.71  3073.05  3074.33  3074.35  3078.13  3079.05
eigval :     3082.66  3083.81  3084.13  3089.77  3089.97  3092.86
eigval :     3096.80  3098.87  3102.63  3114.30  3130.74  3467.90

   temp. (K)  partition function   enthalpy   heat capacity  entropy
                                   cal/mol     cal/K/mol   cal/K/mol   J/K/mol
 298.15  VIB  0.554E+13            15506.974     95.348     97.716
         ROT  0.400E+08              888.752      2.981     37.767
         INT  0.222E+21            16395.726     98.329    135.482
         TR   0.843E+28             1481.254      4.968     44.001
         TOT                       17876.9800   103.2970   179.4829   750.9562

       T/K    H(0)-H(T)+PV         H(T)/Eh          T*S/Eh         G(T)/Eh
   ------------------------------------------------------------------------
    298.15    0.284888E-01    0.441746E+00    0.852781E-01    0.356468E+00
   ------------------------------------------------------------------------

         :::::::::::::::::::::::::::::::::::::::::::::::::::::
         ::                  THERMODYNAMIC                  ::
         :::::::::::::::::::::::::::::::::::::::::::::::::::::
         :: total free energy         -83.303318115695 Eh   ::
         ::.................................................::
         :: total energy              -83.659786474857 Eh   ::
         :: zero point energy           0.413257672035 Eh   ::
         :: G(RRHO) w/o ZPVE           -0.056789312872 Eh   ::
         :: G(RRHO) contrib.            0.356468359162 Eh   ::
         :::::::::::::::::::::::::::::::::::::::::::::::::::::

           -------------------------------------------------
          | TOTAL ENERGY              -83.659786474857 Eh   |
          | TOTAL ENTHALPY            -83.218040021753 Eh   |
          | TOTAL FREE ENERGY         -83.303318115695 Eh   |
          | GRADIENT NORM               0.000062743257 Eh/α |
          | HOMO-LUMO GAP               1.850803585257 eV   |
           -------------------------------------------------

 * finished run on 2025/07/20 at 02:24:13.806
