   * xtb version 6.7.1 (edcfbbe) compiled by 'albert@albert-system' on 2024-07-22

   ID    Z sym.   atoms
    1    7 N      1, 10, 25
    2    6 C      2-9, 11-24, 26-33
    3    1 H      34-54

          program call               : xtb data2507/gas/DPimdPPA/DPimdPPA_gas_S0_finalOpt.xtbopt.xyz --gfn 2 --spinpol --tblite --uhf 2 --ohess vtight --parallel 40 --molden --ceasefiles --namespace data2507/gas/DPimdPPA/DPimdPPA_gas_T1_preOpt
 * total energy  :   -83.5835873 Eh     change       -0.1475313E-07 Eh
 * total energy  :   -83.5915443 Eh     change       -0.7956974E-02 Eh
 * total energy  :   -83.5919501 Eh     change       -0.4058309E-03 Eh
 * total energy  :   -83.5937052 Eh     change       -0.1755095E-02 Eh
 * total energy  :   -83.5940654 Eh     change       -0.3602214E-03 Eh
 * total energy  :   -83.5942507 Eh     change       -0.1852548E-03 Eh
 * total energy  :   -83.5945190 Eh     change       -0.2682874E-03 Eh
 * total energy  :   -83.5947267 Eh     change       -0.2077181E-03 Eh
 * total energy  :   -83.5949960 Eh     change       -0.2693276E-03 Eh
 * total energy  :   -83.5951576 Eh     change       -0.1615764E-03 Eh
 * total energy  :   -83.5961943 Eh     change       -0.7595614E-06 Eh
 * total energy  :   -83.5961948 Eh     change       -0.5642949E-06 Eh
 * total energy  :   -83.5961953 Eh     change       -0.4766386E-06 Eh
 * total energy  :   -83.5961958 Eh     change       -0.5204979E-06 Eh
 * total energy  :   -83.5961962 Eh     change       -0.3929787E-06 Eh
 * total energy  :   -83.5961967 Eh     change       -0.4898329E-06 Eh
 * total energy  :   -83.5961975 Eh     change       -0.7428036E-06 Eh
 * total energy  :   -83.5961984 Eh     change       -0.9866846E-06 Eh
 * total energy  :   -83.5961985 Eh     change       -0.8490687E-08 Eh
   *** GEOMETRY OPTIMIZATION CONVERGED AFTER 68 ITERATIONS ***

 final structure:
================
54
 xtb: 6.7.1 (edcfbbe)
N            4.84984369019247       -2.35792425185805       -1.81847913411070
C            5.07955250379670       -1.37365277151561       -1.25720511680749
C            5.36992285682754       -0.19444879215847       -0.57802688456867
C            4.35007233527345        0.82658701605652       -0.47725083328155
C            2.98882226099661        0.63833421395827       -0.34324323535347
C            2.37918291100901       -0.64097520289972       -0.14618575398034
C            1.02848430230177       -0.77600945108038       -0.05851240728413
C            0.17200478963703        0.34613474293492       -0.14212613706465
C           -1.24273103998397        0.24266791831201       -0.07949163256372
N           -2.08325009695758        1.26767957339610       -0.13870703365983
C           -3.33141784323613        0.77026718286578       -0.05961884013801
C           -4.48530055758542        1.65000616906358       -0.16626401607824
C           -5.67067437228980        1.23578217515165       -0.77242514949528
C           -6.73940424329942        2.10572559713639       -0.87416646402250
C           -6.64048230489298        3.39655708941693       -0.37996704622987
C           -5.45860808569194        3.82126685968128        0.20569911650220
C           -4.38575113277215        2.95744123883400        0.30798556361075
C           -3.27779851376681       -0.62679789673043        0.06794524732426
C           -4.29617396282701       -1.63541457839707        0.26238073691769
C           -5.44762511744880       -1.35379510614698        1.00297774262610
C           -6.40606847866356       -2.32730701484132        1.19938012213571
C           -6.23645638480225       -3.59620786756587        0.66659567394345
C           -5.09565475992126       -3.88814631615691       -0.06313702052172
C           -4.13022673569552       -2.92037282295097       -0.26158125727182
N           -1.94616309241929       -0.92979870195503        0.03627769523974
C            0.76197754684558        1.62551635785357       -0.29115066261635
C            2.10875998499491        1.76903249088538       -0.37908349510953
C            6.69475055684648       -0.00518802830963       -0.08156251126231
C            7.72048641066205       -0.92174116381170       -0.40002853285198
C            9.00071001319342       -0.73682304655099        0.06630962150435
C            9.30620398678769        0.35467013507473        0.87149095120449
C            8.30649819428357        1.25800013287742        1.21109281241266
C            7.02194656368750        1.08726273773065        0.74842326840798
H            4.70533189271358        1.84688945392450       -0.54718291933528
H            3.01070110485001       -1.51131769487517       -0.06585890734475
H            0.61145882350303       -1.76319949146286        0.08436165885535
H           -5.74688100550764        0.23739083198529       -1.17754673660597
H           -7.65364277327544        1.77697223314313       -1.34670551999340
H           -7.48000124732906        4.07152431822037       -0.45901911869183
H           -5.37506177918030        4.83036294605064        0.58217720658111
H           -3.45677121511228        3.27438973743172        0.75580344909281
H           -5.57342010115050       -0.37100307266372        1.43118617370101
H           -7.28998190755936       -2.09775452262456        1.77568932611770
H           -6.98947635827531       -4.35427579902352        0.82040277289340
H           -4.95889233764364       -4.87436218163869       -0.48182180748519
H           -3.25515230326159       -3.15219662620675       -0.85276557738436
H           -1.55988814039529       -1.85364518087089        0.13467817798355
H            0.09952174917852        2.47531092460184       -0.33880870210412
H            2.54514724260437        2.75021179574187       -0.49956388917132
H            7.48684783187009       -1.76950378326515       -1.02745886728263
H            9.77366025021560       -1.44466421909271       -0.19487457674385
H           10.31268729490350        0.49703047318265        1.23474861942308
H            8.53850981215525        2.10063327087930        1.84644370100249
H            6.25180524979792        1.78607006558539        1.03795517095133

 projected vibrational frequencies (cm⁻¹)
eigval :       -0.00    -0.00     0.00     0.00     0.00     0.00
eigval :       10.83    16.16    25.49    33.05    36.70    45.10
eigval :       49.80    59.49    71.57    80.49    90.48   113.96
eigval :      129.69   136.44   149.00   160.92   196.49   227.70
eigval :      237.88   265.48   280.83   289.99   305.29   321.30
eigval :      351.94   364.17   368.89   369.49   376.89   387.74
eigval :      423.49   427.75   431.64   453.22   461.84   480.75
eigval :      516.17   546.96   563.13   567.56   583.48   586.56
eigval :      589.51   593.13   610.02   638.94   644.72   650.57
eigval :      654.82   658.74   666.32   677.61   691.07   724.28
eigval :      734.46   746.04   757.60   764.99   766.28   804.75
eigval :      828.35   841.47   849.61   873.45   877.95   884.47
eigval :      900.62   900.99   904.70   920.86   922.75   925.22
eigval :      928.23   929.71   930.15   931.44   933.93   938.11
eigval :      957.85   974.29   983.59  1015.54  1026.71  1071.86
eigval :     1077.69  1080.76  1083.47  1117.54  1118.37  1123.12
eigval :     1123.57  1136.19  1176.47  1179.66  1181.38  1181.51
eigval :     1193.68  1196.60  1200.31  1209.40  1228.41  1251.73
eigval :     1253.77  1274.62  1277.89  1281.34  1285.86  1299.21
eigval :     1312.63  1318.96  1322.21  1330.63  1337.20  1343.55
eigval :     1381.23  1407.03  1425.31  1428.60  1431.67  1434.44
eigval :     1440.52  1446.15  1477.09  1487.74  1499.48  1514.73
eigval :     1530.01  1535.34  1563.69  1570.40  1578.00  1579.30
eigval :     1589.47  1595.41  2251.59  3044.67  3063.14  3067.49
eigval :     3073.03  3074.58  3074.91  3077.41  3079.04  3080.60
eigval :     3085.12  3085.99  3089.97  3092.13  3093.16  3095.20
eigval :     3097.54  3100.68  3104.82  3109.07  3112.32  3472.19

   temp. (K)  partition function   enthalpy   heat capacity  entropy
                                   cal/mol     cal/K/mol   cal/K/mol   J/K/mol
 298.15  VIB  0.435E+13            15707.457     97.146     98.701
         ROT  0.395E+08              888.752      2.981     37.744
         INT  0.172E+21            16596.209    100.127    136.445
         TR   0.843E+28             1481.254      4.968     44.001
         TOT                       18077.4630   105.0948   180.4452   754.9827

       T/K    H(0)-H(T)+PV         H(T)/Eh          T*S/Eh         G(T)/Eh
   ------------------------------------------------------------------------
    298.15    0.288083E-01    0.439014E+00    0.857353E-01    0.353279E+00
   ------------------------------------------------------------------------

         :::::::::::::::::::::::::::::::::::::::::::::::::::::
         ::                  THERMODYNAMIC                  ::
         :::::::::::::::::::::::::::::::::::::::::::::::::::::
         :: total free energy         -83.242919792049 Eh   ::
         ::.................................................::
         :: total energy              -83.596198454376 Eh   ::
         :: zero point energy           0.410205730186 Eh   ::
         :: G(RRHO) w/o ZPVE           -0.056927067859 Eh   ::
         :: G(RRHO) contrib.            0.353278662327 Eh   ::
         :::::::::::::::::::::::::::::::::::::::::::::::::::::

           -------------------------------------------------
          | TOTAL ENERGY              -83.596198454376 Eh   |
          | TOTAL ENTHALPY            -83.157184453162 Eh   |
          | TOTAL FREE ENERGY         -83.242919792049 Eh   |
          | GRADIENT NORM               0.000064286028 Eh/α |
           -------------------------------------------------

 * finished run on 2025/07/20 at 02:26:11.714
