   * xtb version 6.7.1 (edcfbbe) compiled by 'albert@albert-system' on 2024-07-22

   ID    Z sym.   atoms
    1    7 N      1, 10, 25
    2    6 C      2-9, 11-24, 26-33
    3    1 H      34-54

          program call               : xtb data2507/gas/DPimdPPA/DPimdPPA_gas_S0_crest.xyz --gfn 2 --ohess vtight --parallel 40 --molden --ceasefiles --namespace data2507/gas/DPimdPPA/DPimdPPA_gas_S0_finalOpt
          :  Hamiltonian                  GFN2-xTB          :
 * total energy  :   -83.6597785 Eh     change       -0.2982190E-08 Eh
 * total energy  :   -83.6597790 Eh     change       -0.4735331E-06 Eh
 * total energy  :   -83.6597788 Eh     change        0.1594881E-06 Eh
 * total energy  :   -83.6597805 Eh     change       -0.1677314E-05 Eh
 * total energy  :   -83.6597813 Eh     change       -0.8054061E-06 Eh
 * total energy  :   -83.6597820 Eh     change       -0.6488366E-06 Eh
 * total energy  :   -83.6597825 Eh     change       -0.5374929E-06 Eh
 * total energy  :   -83.6597831 Eh     change       -0.5785165E-06 Eh
 * total energy  :   -83.6597836 Eh     change       -0.4742116E-06 Eh
 * total energy  :   -83.6597839 Eh     change       -0.3180416E-06 Eh
 * total energy  :   -83.6597851 Eh     change       -0.4534374E-06 Eh
 * total energy  :   -83.6597854 Eh     change       -0.3297393E-06 Eh
 * total energy  :   -83.6597857 Eh     change       -0.2269680E-06 Eh
 * total energy  :   -83.6597859 Eh     change       -0.2286743E-06 Eh
 * total energy  :   -83.6597861 Eh     change       -0.2131926E-06 Eh
 * total energy  :   -83.6597863 Eh     change       -0.2550805E-06 Eh
 * total energy  :   -83.6597866 Eh     change       -0.2472673E-06 Eh
 * total energy  :   -83.6597867 Eh     change       -0.1345712E-06 Eh
 * total energy  :   -83.6597868 Eh     change       -0.9692494E-07 Eh
   *** GEOMETRY OPTIMIZATION CONVERGED AFTER 21 ITERATIONS ***

 final structure:
================
54
 xtb: 6.7.1 (edcfbbe)
N            5.07034119929686       -2.83781649581793       -0.45504300872335
C            5.15638963631002       -1.70768270900960       -0.26529258390863
C            5.36979410435981       -0.33108737898577       -0.04227546627219
C            4.38042493378803        0.58631107945054        0.07745970837462
C            2.94996545889283        0.40586908639750        0.06833462227391
C            2.31606928324645       -0.83852026062676        0.16069209789049
C            0.94271165677497       -0.93697253549349        0.14852119871010
C            0.14372237045067        0.20490558938287        0.04404255161771
C           -1.29695607719186        0.14737559144014        0.02396265044969
N           -2.08815542960189        1.19742875493673       -0.03796326513223
C           -3.36412770824349        0.73969429624924       -0.03937376209877
C           -4.48082402487319        1.66674290423178       -0.15990359149899
C           -5.65841197111085        1.31370294123680       -0.81607630730006
C           -6.69410128977493        2.22242566843035       -0.92326272958735
C           -6.56820852472863        3.49338262402158       -0.38632087796945
C           -5.39262512910430        3.85786323896050        0.24958504665944
C           -4.35396990410514        2.95362194993157        0.35959775684328
C           -3.35871182888852       -0.65108781959477        0.03472246288758
C           -4.41393439613409       -1.64265309207713        0.13534847885915
C           -5.57346021124264       -1.37648651443787        0.86510765428112
C           -6.56475283832430       -2.33173906349964        0.97235743548895
C           -6.41679513839928       -3.56671135895009        0.36042503010771
C           -5.26724846512684       -3.84263370845078       -0.36044966559909
C           -4.27087572357420       -2.89115568060672       -0.47123275517375
N           -2.03530773559323       -0.99937892315206        0.06089585437212
C            0.77007464953312        1.45343666939731       -0.03743640371704
C            2.14010325240286        1.54922983942059       -0.02041925110404
C            6.79267908191724        0.04745162048666        0.00953168037214
C            7.72937605931009       -0.63823962199979       -0.76358454687498
C            9.06356856839442       -0.28008475263361       -0.72777010075076
C            9.48536471786172        0.75857885404973        0.08567863311642
C            8.56431300739019        1.43519052169300        0.86841051743969
C            7.22838488627505        1.08372476463465        0.83381712045336
H            4.69613519249157        1.61950024322795        0.16510028612174
H            2.90584047639856       -1.73554404500384        0.25431747216424
H            0.49440641062231       -1.91701896700995        0.22643236869017
H           -5.75582473098984        0.33040773122570       -1.25252090366977
H           -7.60360640969475        1.93931115387651       -1.43340004196105
H           -7.38156363288896        4.19930355054923       -0.47038363187960
H           -5.28710127757993        4.85158216770588        0.66050270934110
H           -3.43063002337583        3.22480761968801        0.84763899777201
H           -5.68344540733998       -0.41882157423225        1.35108060526736
H           -7.45709112811296       -2.11434331839109        1.54053063998638
H           -7.19421893841305       -4.31107525543062        0.44551386337402
H           -5.14677954436831       -4.80259406534568       -0.84101941784458
H           -3.38664810984349       -3.10877322762162       -1.05468145704527
H           -1.68922853032510       -1.94130168853423        0.13858645426119
H            0.14699188213604        2.33013816351947       -0.11339495580076
H            2.60776764604747        2.52158165019206       -0.08589426793116
H            7.40395899999504       -1.44714779018749       -1.40168073027124
H            9.77732051775032       -0.81519973434251       -1.33635147846199
H           10.52857006446152        1.03550949236656        0.11528243281663
H            8.88946871203984        2.23768253752593        1.51429188598048
H            6.52277512160331        1.60047030000616        1.46813412600308

          :  Hamiltonian                  GFN2-xTB          :
         :: gradient norm              0.000039862072 Eh/a0 ::
         :: HOMO-LUMO gap              1.850888603740 eV    ::
         :: SCC energy               -85.268031908847 Eh    ::
         :: -> dispersion             -0.065717095147 Eh    ::
         :: repulsion energy           1.608245079934 Eh    ::

    * Orbital Energies and Occupations

         #    Occupation            Energy/Eh            Energy/eV
      -------------------------------------------------------------
         1        2.0000           -0.6920788             -18.8324
       ...           ...                  ...                  ...
        66        2.0000           -0.4249859             -11.5645
        67        2.0000           -0.4214490             -11.4682
        68        2.0000           -0.4180770             -11.3765
        69        2.0000           -0.4171718             -11.3518
        70        2.0000           -0.4165594             -11.3352
        71        2.0000           -0.4145134             -11.2795
        72        2.0000           -0.4130029             -11.2384
        73        2.0000           -0.4124992             -11.2247
        74        2.0000           -0.4023427             -10.9483
        75        2.0000           -0.3988852             -10.8542
        76        2.0000           -0.3886875             -10.5767
        77        2.0000           -0.3794887             -10.3264
        78        2.0000           -0.3634627              -9.8903 (HOMO)
        79                         -0.2954437              -8.0394 (LUMO)
        80                         -0.2547875              -6.9331
        81                         -0.2382560              -6.4833
        82                         -0.2315873              -6.3018
        83                         -0.2312722              -6.2932
        84                         -0.2311776              -6.2907
        85                         -0.2265563              -6.1649
        86                         -0.2166476              -5.8953
        87                         -0.2151983              -5.8558
        88                         -0.2022210              -5.5027
        89                         -0.1694632              -4.6113
       ...                                ...                  ...
       153                          1.1605216              31.5794
      -------------------------------------------------------------
                  HL-Gap            0.0680189 Eh            1.8509 eV

     #   Z          covCN         q      C6AA      α(0)
     1   7 N        0.911    -0.254    26.596     7.459
     2   6 C        1.913     0.120    28.160     8.570
     3   6 C        2.951     0.005    27.899     8.663
     4   6 C        2.913    -0.026    28.662     8.779
     5   6 C        2.968     0.013    27.723     8.636
     6   6 C        2.920    -0.032    28.803     8.801
     7   6 C        2.920    -0.035    28.878     8.812
     8   6 C        2.973     0.003    27.952     8.672
     9   6 C        3.149     0.126    24.993     8.178
    10   7 N        1.916    -0.282    28.163     7.868
    11   6 C        3.172     0.057    26.356     8.386
    12   6 C        2.974     0.011    27.767     8.644
    13   6 C        2.923    -0.036    28.888     8.814
    14   6 C        2.919    -0.030    28.749     8.793
    15   6 C        2.920    -0.031    28.783     8.798
    16   6 C        2.919    -0.029    28.733     8.790
    17   6 C        2.927    -0.029    28.731     8.790
    18   6 C        3.059     0.025    27.387     8.582
    19   6 C        2.971     0.005    27.904     8.665
    20   6 C        2.924    -0.032    28.798     8.800
    21   6 C        2.919    -0.027    28.675     8.781
    22   6 C        2.920    -0.030    28.752     8.793
    23   6 C        2.918    -0.029    28.720     8.788
    24   6 C        2.925    -0.037    28.925     8.820
    25   7 N        2.809    -0.112    23.433     7.190
    26   6 C        2.924    -0.029    28.733     8.790
    27   6 C        2.927    -0.030    28.759     8.795
    28   6 C        2.988     0.015    27.666     8.628
    29   6 C        2.924    -0.031    28.767     8.796
    30   6 C        2.918    -0.027    28.675     8.781
    31   6 C        2.920    -0.028    28.702     8.785
    32   6 C        2.919    -0.028    28.702     8.785
    33   6 C        2.923    -0.034    28.847     8.808
    34   1 H        0.925     0.044     2.390     2.418
    35   1 H        0.926     0.048     2.339     2.392
    36   1 H        0.926     0.026     2.641     2.541
    37   1 H        0.926     0.027     2.628     2.535
    38   1 H        0.926     0.028     2.615     2.529
    39   1 H        0.926     0.029     2.606     2.524
    40   1 H        0.926     0.030     2.583     2.513
    41   1 H        0.926     0.047     2.352     2.399
    42   1 H        0.926     0.037     2.489     2.467
    43   1 H        0.926     0.034     2.530     2.487
    44   1 H        0.926     0.033     2.547     2.495
    45   1 H        0.926     0.032     2.559     2.502
    46   1 H        0.925     0.025     2.665     2.553
    47   1 H        0.860     0.165     1.303     1.788
    48   1 H        0.926     0.062     2.178     2.308
    49   1 H        0.926     0.038     2.479     2.462
    50   1 H        0.926     0.038     2.471     2.458
    51   1 H        0.926     0.036     2.508     2.476
    52   1 H        0.926     0.034     2.527     2.486
    53   1 H        0.926     0.034     2.536     2.491
    54   1 H        0.926     0.033     2.547     2.496

molecular dipole:
                 x           y           z       tot (Debye)
 q only:       -0.267       0.381       0.297
   full:       -0.240       0.210       0.371       1.242

 projected vibrational frequencies (cm⁻¹)
eigval :       -0.00    -0.00     0.00     0.00     0.00     0.00
eigval :       10.14    15.18    24.10    34.31    34.61    43.13
eigval :       44.51    53.93    68.00    71.44    98.09   113.68
eigval :      124.76   148.73   155.37   157.44   204.79   232.55
eigval :      238.57   265.53   278.23   297.13   323.68   331.32
eigval :      349.19   367.26   369.69   370.23   376.72   389.07
eigval :      423.83   431.84   448.85   475.43   487.22   502.80
eigval :      528.64   562.90   586.22   586.79   590.50   596.40
eigval :      600.22   611.08   618.88   648.89   655.85   662.52
eigval :      664.05   667.14   668.43   686.18   698.70   726.10
eigval :      757.30   759.59   765.35   777.57   810.50   848.29
eigval :      854.61   873.30   876.17   878.88   881.99   901.16
eigval :      903.31   903.53   907.91   926.80   928.83   928.97
eigval :      929.84   931.74   932.20   934.26   940.00   954.17
eigval :      970.36   976.03  1015.48  1018.85  1044.29  1080.59
eigval :     1083.05  1085.49  1086.39  1118.31  1122.35  1125.35
eigval :     1125.78  1143.04  1181.81  1181.94  1182.12  1193.31
eigval :     1195.88  1200.99  1203.42  1211.21  1230.33  1253.08
eigval :     1270.97  1274.90  1281.11  1282.48  1287.16  1296.01
eigval :     1318.52  1318.77  1322.08  1328.84  1356.75  1368.35
eigval :     1405.47  1415.53  1430.12  1431.51  1434.89  1447.73
eigval :     1463.07  1471.95  1491.04  1523.25  1549.37  1555.72
eigval :     1563.96  1577.34  1579.21  1582.08  1594.70  1595.79
eigval :     1599.69  1612.10  2344.70  3047.70  3063.72  3070.02
eigval :     3072.85  3073.09  3074.31  3074.33  3078.12  3079.06
eigval :     3082.63  3083.82  3084.13  3089.77  3089.95  3092.84
eigval :     3096.81  3098.84  3102.62  3114.16  3130.68  3467.92

   temp. (K)  partition function   enthalpy   heat capacity  entropy
                                   cal/mol     cal/K/mol   cal/K/mol   J/K/mol
 298.15  VIB  0.549E+13            15505.940     95.351     97.702
         ROT  0.400E+08              888.752      2.981     37.766
         INT  0.219E+21            16394.692     98.332    135.468
         TR   0.843E+28             1481.254      4.968     44.001
         TOT                       17875.9461   103.3000   179.4685   750.8963

       T/K    H(0)-H(T)+PV         H(T)/Eh          T*S/Eh         G(T)/Eh
   ------------------------------------------------------------------------
    298.15    0.284871E-01    0.441745E+00    0.852713E-01    0.356473E+00
   ------------------------------------------------------------------------

         :::::::::::::::::::::::::::::::::::::::::::::::::::::
         ::                  THERMODYNAMIC                  ::
         :::::::::::::::::::::::::::::::::::::::::::::::::::::
         :: total free energy         -83.303313477886 Eh   ::
         ::.................................................::
         :: total energy              -83.659786828906 Eh   ::
         :: zero point energy           0.413257502997 Eh   ::
         :: G(RRHO) w/o ZPVE           -0.056784151976 Eh   ::
         :: G(RRHO) contrib.            0.356473351021 Eh   ::
         :::::::::::::::::::::::::::::::::::::::::::::::::::::

           -------------------------------------------------
          | TOTAL ENERGY              -83.659786828906 Eh   |
          | TOTAL ENTHALPY            -83.218042192591 Eh   |
          | TOTAL FREE ENERGY         -83.303313477886 Eh   |
          | GRADIENT NORM               0.000039859299 Eh/α |
          | HOMO-LUMO GAP               1.850889649806 eV   |
           -------------------------------------------------

 * finished run on 2025/07/20 at 02:26:05.820
