   * xtb version 6.7.1 (edcfbbe) compiled by 'albert@albert-system' on 2024-07-22

   ID    Z sym.   atoms
    1    7 N      1, 7, 9, 24
    2    6 C      2-6, 8, 10-23, 25-36
    3    1 H      37-54

          program call               : xtb data2507/gas/DCzIPN/DCzIPN_gas_S0_crest.xyz --gfn 2 --ohess vtight --parallel 40 --molden --ceasefiles --namespace data2507/gas/DCzIPN/DCzIPN_gas_S0_finalOpt
          :  Hamiltonian                  GFN2-xTB          :
 * total energy  :   -89.3858381 Eh     change       -0.1937622E-08 Eh
 * total energy  :   -89.3858331 Eh     change        0.4989594E-05 Eh
 * total energy  :   -89.3858403 Eh     change       -0.7209161E-05 Eh
 * total energy  :   -89.3858411 Eh     change       -0.7685183E-06 Eh
 * total energy  :   -89.3858424 Eh     change       -0.1336446E-05 Eh
 * total energy  :   -89.3858437 Eh     change       -0.1279808E-05 Eh
 * total energy  :   -89.3858444 Eh     change       -0.7330333E-06 Eh
 * total energy  :   -89.3858451 Eh     change       -0.7157001E-06 Eh
 * total energy  :   -89.3858459 Eh     change       -0.7156745E-06 Eh
 * total energy  :   -89.3858465 Eh     change       -0.5988662E-06 Eh
 * total energy  :   -89.3858469 Eh     change       -0.4267942E-06 Eh
 * total energy  :   -89.3858472 Eh     change       -0.3299092E-06 Eh
 * total energy  :   -89.3858475 Eh     change       -0.2652258E-06 Eh
 * total energy  :   -89.3858477 Eh     change       -0.2484209E-06 Eh
 * total energy  :   -89.3858480 Eh     change       -0.2265393E-06 Eh
 * total energy  :   -89.3858481 Eh     change       -0.1573777E-06 Eh
 * total energy  :   -89.3858482 Eh     change       -0.7857390E-07 Eh
   *** GEOMETRY OPTIMIZATION CONVERGED AFTER 17 ITERATIONS ***

 final structure:
================
54
 xtb: 6.7.1 (edcfbbe)
N           -3.37221029250850       -2.77826748574348       -2.13270852118162
C           -2.41576214233391       -2.32068886800506       -1.69709940360611
C           -1.21087533119451       -1.75736771541171       -1.21874170547430
C           -0.00436048133772       -2.33503533032075       -1.59680959659691
C            1.20468695353857       -1.76335919060481       -1.21771482655886
C            2.40750652067607       -2.33311107486341       -1.69359626549193
N            3.36268195772349       -2.79567940796683       -2.12672281992989
C            1.21177880214977       -0.58727553922762       -0.43745032542293
N            2.40960278536799       -0.02357384721334       -0.02072324687084
C            3.44813136566013       -0.69621821274643        0.61012725440680
C            3.51463718166762       -2.01138970146012        1.04100585664440
C            4.66627071975594       -2.41895312068235        1.68814113792844
C            5.72019456382832       -1.53975876467417        1.91876481883319
C            5.64106087018463       -0.21811259247474        1.52675150093456
C            4.49466707922787        0.21266862666464        0.87371412493033
C            4.06806338438484        1.49177918089920        0.37379915829523
C            4.66633555987460        2.74314711726224        0.32532082681883
C            3.97393402246193        3.78592490706999       -0.25888348107425
C            2.71049733476676        3.58743704884285       -0.80764932005115
C            2.09736421544047        2.34863240184515       -0.77306072766881
C            2.77469389200197        1.30713925480659       -0.16035909080778
C            0.00065151974395       -0.01013244782797       -0.07255586856652
C           -1.21310354308094       -0.58181206334348       -0.43750064531404
N           -2.40855557641013       -0.01393652552769       -0.02002097481605
C           -3.45148406451341       -0.68502417196850        0.60543423466876
C           -3.52367793455407       -2.00112615774787        1.03258464046482
C           -4.67893142209801       -2.40686259591253        1.67439562376386
C           -5.73091257816875       -1.52501475971681        1.90366905073813
C           -5.64596335054614       -0.20243330025289        1.51605416622531
C           -4.49579360573919        0.22650537913372        0.86848225864875
C           -4.06297495888577        1.50586825476142        0.37460881550549
C           -4.65684869901049        2.75942058062819        0.32913065159417
C           -3.95883573063003        3.80223835959491       -0.24827587572537
C           -2.69407356717716        3.60161258292058       -0.79312917783195
C           -2.08535752405578        2.36052133112179       -0.76161823772408
C           -2.76843316471794        1.31871269084723       -0.15586463719911
H           -0.00633989576793       -3.22442953152722       -2.21024459413829
H            2.69959459143676       -2.70291404737222        0.88888455822371
H            4.74595781967695       -3.44159045542281        2.02420002928976
H            6.60504278613893       -1.89761463155022        2.42298269031535
H            6.44737040298697        0.47092782096569        1.72627204213478
H            5.65498899473595        2.89144924977581        0.73164289394629
H            4.42018731082075        4.76784503285245       -0.30377208167809
H            2.19918906997691        4.41546395399882       -1.27530595419592
H            1.12910255863545        2.20218010827341       -1.22640468361187
H            0.00277661994473        0.87014523742998        0.55252363407800
H           -2.71021007330691       -2.69481034089267        0.88188990630966
H           -4.76303313818697       -3.43019244226969        2.00723832388508
H           -6.61884719121209       -1.88155337283647        2.40336768677320
H           -6.45062555377578        0.48871218233864        1.71492270512966
H           -5.64640365355041        2.90937303542909        0.73263426667089
H           -4.40151202134259        4.78588631485129       -0.29060269495608
H           -2.17803974762318        4.42983031718774       -1.25521912303180
H           -1.11580861617973        2.21309727586203       -1.21177870173316

          :  Hamiltonian                  GFN2-xTB          :
         :: gradient norm              0.000050993268 Eh/a0 ::
         :: HOMO-LUMO gap              2.201052886067 eV    ::
         :: SCC energy               -91.131541778106 Eh    ::
         :: -> dispersion             -0.079482543726 Eh    ::
         :: repulsion energy           1.745693589928 Eh    ::

    * Orbital Energies and Occupations

         #    Occupation            Energy/Eh            Energy/eV
      -------------------------------------------------------------
         1        2.0000           -0.7066576             -19.2291
       ...           ...                  ...                  ...
        71        2.0000           -0.4347588             -11.8304
        72        2.0000           -0.4341335             -11.8134
        73        2.0000           -0.4326562             -11.7732
        74        2.0000           -0.4324540             -11.7677
        75        2.0000           -0.4299905             -11.7006
        76        2.0000           -0.4292148             -11.6795
        77        2.0000           -0.4282581             -11.6535
        78        2.0000           -0.4174744             -11.3601
        79        2.0000           -0.4173769             -11.3574
        80        2.0000           -0.3909861             -10.6393
        81        2.0000           -0.3909451             -10.6382
        82        2.0000           -0.3808978             -10.3648
        83        2.0000           -0.3803614             -10.3502 (HOMO)
        84                         -0.2994742              -8.1491 (LUMO)
        85                         -0.2864940              -7.7959
        86                         -0.2570916              -6.9958
        87                         -0.2565408              -6.9808
        88                         -0.2342336              -6.3738
        89                         -0.2341485              -6.3715
        90                         -0.2268651              -6.1733
        91                         -0.2248463              -6.1184
        92                         -0.2154056              -5.8615
        93                         -0.2049422              -5.5768
        94                         -0.2009410              -5.4679
       ...                                ...                  ...
       162                          1.1576582              31.5015
      -------------------------------------------------------------
                  HL-Gap            0.0808872 Eh            2.2011 eV

     #   Z          covCN         q      C6AA      α(0)
     1   7 N        0.911    -0.225    25.927     7.364
     2   6 C        1.911     0.116    28.249     8.584
     3   6 C        2.971    -0.000    28.029     8.684
     4   6 C        2.938    -0.014    28.371     8.736
     5   6 C        2.971    -0.000    28.028     8.684
     6   6 C        1.911     0.116    28.249     8.584
     7   7 N        0.911    -0.225    25.926     7.364
     8   6 C        2.913     0.079    26.234     8.399
     9   7 N        2.802    -0.044    22.091     6.981
    10   6 C        3.067     0.049    26.842     8.496
    11   6 C        2.910    -0.044    29.088     8.844
    12   6 C        2.925    -0.028    28.706     8.786
    13   6 C        2.920    -0.036    28.884     8.813
    14   6 C        2.913    -0.030    28.750     8.792
    15   6 C        3.067    -0.012    28.247     8.715
    16   6 C        3.066    -0.012    28.243     8.714
    17   6 C        2.913    -0.030    28.757     8.794
    18   6 C        2.920    -0.037    28.926     8.820
    19   6 C        2.924    -0.031    28.781     8.798
    20   6 C        2.910    -0.048    29.203     8.861
    21   6 C        3.066     0.047    26.878     8.501
    22   6 C        2.924    -0.058    29.435     8.897
    23   6 C        2.913     0.079    26.234     8.399
    24   7 N        2.802    -0.044    22.089     6.980
    25   6 C        3.067     0.049    26.843     8.496
    26   6 C        2.910    -0.044    29.087     8.844
    27   6 C        2.925    -0.028    28.705     8.786
    28   6 C        2.920    -0.035    28.883     8.813
    29   6 C        2.913    -0.030    28.750     8.792
    30   6 C        3.067    -0.012    28.246     8.715
    31   6 C        3.066    -0.012    28.243     8.714
    32   6 C        2.913    -0.030    28.757     8.794
    33   6 C        2.920    -0.037    28.925     8.820
    34   6 C        2.924    -0.031    28.781     8.798
    35   6 C        2.910    -0.048    29.204     8.861
    36   6 C        3.066     0.047    26.878     8.501
    37   1 H        0.926     0.057     2.235     2.338
    38   1 H        0.926     0.024     2.670     2.555
    39   1 H        0.926     0.038     2.478     2.461
    40   1 H        0.926     0.036     2.499     2.472
    41   1 H        0.926     0.037     2.483     2.464
    42   1 H        0.926     0.037     2.486     2.466
    43   1 H        0.926     0.034     2.524     2.485
    44   1 H        0.926     0.034     2.524     2.485
    45   1 H        0.926     0.024     2.676     2.558
    46   1 H        0.926     0.059     2.210     2.325
    47   1 H        0.926     0.024     2.669     2.555
    48   1 H        0.926     0.038     2.477     2.461
    49   1 H        0.926     0.036     2.499     2.472
    50   1 H        0.926     0.037     2.483     2.464
    51   1 H        0.926     0.037     2.486     2.465
    52   1 H        0.926     0.034     2.524     2.484
    53   1 H        0.926     0.034     2.524     2.484
    54   1 H        0.926     0.024     2.673     2.557

molecular dipole:
                 x           y           z       tot (Debye)
 q only:       -0.002       1.017       1.034
   full:       -0.002       1.264       1.245       4.510

 projected vibrational frequencies (cm⁻¹)
eigval :       -0.00    -0.00     0.00     0.00     0.00     0.00
eigval :       17.69    24.62    30.25    43.20    44.42    63.55
eigval :       89.07   101.85   107.76   111.07   123.08   125.34
eigval :      145.58   150.53   153.07   184.75   200.83   253.46
eigval :      253.79   270.73   272.48   277.07   278.93   289.46
eigval :      347.62   377.62   393.53   394.77   399.36   418.94
eigval :      420.87   435.52   438.37   486.60   491.87   494.69
eigval :      518.10   518.60   522.03   526.90   537.52   540.33
eigval :      541.19   569.04   576.19   579.58   590.07   597.43
eigval :      637.30   659.21   666.97   672.70   672.74   689.61
eigval :      705.82   707.09   713.74   721.86   756.52   756.67
eigval :      765.66   769.39   778.33   780.75   861.26   864.48
eigval :      871.15   871.27   873.83   891.56   894.94   898.74
eigval :      900.34   903.71   903.75   908.96   909.96   911.26
eigval :      921.04   922.81   922.90   924.56  1012.40  1012.91
eigval :     1068.65  1072.20  1072.87  1076.63  1078.80  1109.06
eigval :     1149.08  1150.01  1153.95  1170.79  1172.12  1178.31
eigval :     1180.75  1183.20  1186.90  1223.16  1223.78  1231.00
eigval :     1234.90  1236.65  1259.60  1293.80  1294.50  1296.38
eigval :     1300.25  1309.81  1344.83  1355.41  1357.94  1358.57
eigval :     1360.12  1365.44  1409.01  1419.97  1426.29  1427.05
eigval :     1459.59  1465.24  1472.72  1474.70  1485.98  1486.29
eigval :     1504.25  1557.28  1578.10  1578.41  1591.44  1592.12
eigval :     1600.17  1600.51  1612.78  1613.43  2366.96  2370.87
eigval :     3080.30  3080.51  3081.40  3082.51  3085.46  3085.56
eigval :     3087.02  3088.06  3093.07  3093.56  3093.80  3094.83
eigval :     3095.58  3100.88  3101.09  3101.99  3102.25  3102.56

   temp. (K)  partition function   enthalpy   heat capacity  entropy
                                   cal/mol     cal/K/mol   cal/K/mol   J/K/mol
 298.15  VIB  0.107E+12            15619.883    101.517     94.947
         ROT  0.284E+08              888.752      2.981     37.089
         INT  0.304E+19            16508.635    104.498    132.035
         TR   0.950E+28             1481.254      4.968     44.237
         TOT                       17989.8894   109.4663   176.2725   737.5242

       T/K    H(0)-H(T)+PV         H(T)/Eh          T*S/Eh         G(T)/Eh
   ------------------------------------------------------------------------
    298.15    0.286687E-01    0.426798E+00    0.837528E-01    0.343045E+00
   ------------------------------------------------------------------------

         :::::::::::::::::::::::::::::::::::::::::::::::::::::
         ::                  THERMODYNAMIC                  ::
         :::::::::::::::::::::::::::::::::::::::::::::::::::::
         :: total free energy         -89.042803087521 Eh   ::
         ::.................................................::
         :: total energy              -89.385848188174 Eh   ::
         :: zero point energy           0.398129144879 Eh   ::
         :: G(RRHO) w/o ZPVE           -0.055084044226 Eh   ::
         :: G(RRHO) contrib.            0.343045100653 Eh   ::
         :::::::::::::::::::::::::::::::::::::::::::::::::::::

           -------------------------------------------------
          | TOTAL ENERGY              -89.385848188174 Eh   |
          | TOTAL ENTHALPY            -88.959050329710 Eh   |
          | TOTAL FREE ENERGY         -89.042803087521 Eh   |
          | GRADIENT NORM               0.000050946882 Eh/α |
          | HOMO-LUMO GAP               2.201052216184 eV   |
           -------------------------------------------------

 * finished run on 2025/07/19 at 21:57:50.501
