   * xtb version 6.7.1 (edcfbbe) compiled by 'albert@albert-system' on 2024-07-22

   ID    Z sym.   atoms
    1    7 N      1, 7, 9, 24
    2    6 C      2-6, 8, 10-23, 25-36
    3    1 H      37-54

          program call               : xtb data2507/gas/DCzIPN/DCzIPN_gas_T1_crest.xyz --gfn 2 --spinpol --tblite --uhf 2 --ohess vtight --parallel 40 --molden --ceasefiles --namespace data2507/gas/DCzIPN/DCzIPN_gas_T1_finalOpt
 * total energy  :   -89.2986801 Eh     change       -0.1918589E-07 Eh
 * total energy  :   -89.2986976 Eh     change       -0.1744126E-04 Eh
 * total energy  :   -89.2986968 Eh     change        0.8033688E-06 Eh
 * total energy  :   -89.2987022 Eh     change       -0.5477225E-05 Eh
 * total energy  :   -89.2987045 Eh     change       -0.2280882E-05 Eh
 * total energy  :   -89.2987011 Eh     change        0.3458575E-05 Eh
 * total energy  :   -89.2987060 Eh     change       -0.4880668E-05 Eh
 * total energy  :   -89.2987065 Eh     change       -0.5466820E-06 Eh
 * total energy  :   -89.2987075 Eh     change       -0.1043061E-05 Eh
 * total energy  :   -89.2987080 Eh     change       -0.4437743E-06 Eh
 * total energy  :   -89.2987082 Eh     change       -0.2380269E-06 Eh
 * total energy  :   -89.2987084 Eh     change       -0.1843365E-06 Eh
 * total energy  :   -89.2987085 Eh     change       -0.1092414E-06 Eh
 * total energy  :   -89.2987086 Eh     change       -0.9400166E-07 Eh
   *** GEOMETRY OPTIMIZATION CONVERGED AFTER 14 ITERATIONS ***

 final structure:
================
54
 xtb: 6.7.1 (edcfbbe)
N           -3.38738556581118       -2.65996837537685       -2.21189361191243
C           -2.40387861340949       -2.23680245152360       -1.77774639999356
C           -1.21107014229916       -1.73464601089062       -1.26440804033271
C            0.00235872412384       -2.27071239870195       -1.67242110998359
C            1.21480552118102       -1.73158871278340       -1.26544268198567
C            2.40865254501675       -2.23107147686418       -1.77889218268117
N            3.39324891502999       -2.65206879568133       -2.21264503102169
C            1.20902140502830       -0.54968240318957       -0.39918537289046
N            2.41882343929207       -0.00007652730737        0.01444344549860
C            3.44153204848004       -0.69217785120633        0.62715128352987
C            3.48350795321966       -2.02000313311260        1.03384201712780
C            4.64033646489317       -2.46876288716007        1.64206605458233
C            5.72131963700783       -1.61842336806921        1.86048371463324
C            5.67005216320094       -0.28387036663157        1.49097716130427
C            4.52268937024729        0.18782994231457        0.87668744282770
C            4.11266191744480        1.48077555159945        0.39431210512225
C            4.72400672308247        2.72237020676733        0.34801310384283
C            4.03520373709538        3.78042656987662       -0.22249454966325
C            2.76165381412617        3.60448843505419       -0.75753573183700
C            2.13185615210118        2.37447660001950       -0.72161493493552
C            2.80610243990409        1.31604460472135       -0.12811005715701
C            0.00016459976841        0.01445502225627       -0.03318001011703
C           -1.20767712072747       -0.55323811852334       -0.39739706768130
N           -2.41840854535848       -0.00790505169976        0.01891328692444
C           -3.43878390245443       -0.70435558692517        0.63068681664852
C           -3.47699102115468       -2.03333631090121        1.03401103965162
C           -4.63231094102220       -2.48682344278266        1.64159949965770
C           -5.71548102182974       -1.63999576914893        1.86280963895254
C           -5.66784961185178       -0.30427260079582        1.49707871921293
C           -4.52204335579315        0.17213523735660        0.88352130912123
C           -4.11565331516028        1.46755380115333        0.40478052347825
C           -4.73006086308720        2.70780162012085        0.36320662504836
C           -4.04436058693422        3.76945038804746       -0.20434364278268
C           -2.77092476837731        3.59835102707771       -0.74122442029428
C           -2.13813322893268        2.36975008146395       -0.71004526182047
C           -2.80914910338678        1.30769894096305       -0.11932370437440
H            0.00313220643176       -3.12211788678650       -2.33922225809553
H            2.64379448488368       -2.68089455616263        0.88549827252961
H            4.70483293859094       -3.49841583459797        1.95853622147178
H            6.60952786083925       -2.00601767843693        2.33596723282969
H            6.50390945103923        0.37515024102861        1.67859056190200
H            5.71926604279413        2.85882940109422        0.74224694125979
H            4.49508118222085        4.75606440304633       -0.26528523782342
H            2.25808623002692        4.44353911792556       -1.21330319891318
H            1.15443501479902        2.23911572554886       -1.15755442320009
H           -0.00052859118716        0.87653604250495        0.61944499933771
H           -2.63558617681644       -2.69161712040677        0.88367826331506
H           -4.69387535101403       -3.51749096713328        1.95533665444836
H           -6.60245526715342       -2.03126350455740        2.33758757928323
H           -6.50329847317969        0.35206594412112        1.68700201194710
H           -5.72525763275377        2.84051499683777        0.75887299750052
H           -4.50658629173651        4.74413585855635       -0.24333194826861
H           -2.26978071837988        4.44012812747960       -1.19462496674232
H           -1.16080138545804        2.23835688952151       -1.14735351498196

 projected vibrational frequencies (cm⁻¹)
eigval :       -0.00    -0.00    -0.00     0.00     0.00     0.00
eigval :       15.02    26.28    27.31    39.51    46.66    58.79
eigval :       84.27   100.28   104.17   109.41   114.29   123.94
eigval :      140.40   145.55   148.55   179.85   193.25   243.38
eigval :      249.13   264.45   269.64   270.66   275.35   287.39
eigval :      350.24   361.83   372.58   387.04   394.03   415.27
eigval :      415.35   418.43   420.71   431.64   434.34   485.36
eigval :      512.29   513.13   523.74   528.26   532.34   532.91
eigval :      537.44   544.81   568.61   572.88   582.33   588.19
eigval :      594.50   618.14   641.60   656.47   670.63   671.19
eigval :      689.10   706.15   707.66   715.94   754.14   754.35
eigval :      762.40   765.28   770.50   773.07   858.16   861.12
eigval :      863.78   864.56   869.91   872.23   887.39   893.28
eigval :      895.91   898.72   899.37   901.58   901.64   906.75
eigval :      915.53   917.31   917.86   919.21  1008.91  1009.30
eigval :     1063.11  1066.35  1066.89  1070.13  1070.30  1102.33
eigval :     1115.35  1133.16  1136.45  1148.66  1165.58  1166.17
eigval :     1174.94  1175.62  1177.13  1181.40  1217.22  1221.69
eigval :     1225.27  1225.66  1261.51  1269.61  1270.55  1286.28
eigval :     1286.74  1292.35  1314.01  1329.91  1330.10  1355.39
eigval :     1362.61  1366.66  1370.39  1397.08  1403.02  1403.73
eigval :     1409.79  1415.91  1439.80  1452.88  1457.44  1462.37
eigval :     1478.85  1480.35  1560.61  1561.20  1568.22  1568.63
eigval :     1571.02  1572.07  1594.05  1596.37  2223.86  2289.90
eigval :     3074.73  3079.15  3084.59  3085.09  3086.03  3086.15
eigval :     3089.75  3090.38  3091.20  3091.58  3096.15  3096.72
eigval :     3097.59  3098.56  3101.63  3103.03  3103.71  3105.04

   temp. (K)  partition function   enthalpy   heat capacity  entropy
                                   cal/mol     cal/K/mol   cal/K/mol   J/K/mol
 298.15  VIB  0.252E+12            15965.487    103.095     97.353
         ROT  0.286E+08              888.752      2.981     37.097
         INT  0.720E+19            16854.239    106.076    134.450
         TR   0.950E+28             1481.254      4.968     44.237
         TOT                       18335.4930   111.0438   178.6869   747.6260

       T/K    H(0)-H(T)+PV         H(T)/Eh          T*S/Eh         G(T)/Eh
   ------------------------------------------------------------------------
    298.15    0.292195E-01    0.422938E+00    0.848999E-01    0.338039E+00
   ------------------------------------------------------------------------

         :::::::::::::::::::::::::::::::::::::::::::::::::::::
         ::                  THERMODYNAMIC                  ::
         :::::::::::::::::::::::::::::::::::::::::::::::::::::
         :: total free energy         -88.960670026451 Eh   ::
         ::.................................................::
         :: total energy              -89.298708610729 Eh   ::
         :: zero point energy           0.393719025046 Eh   ::
         :: G(RRHO) w/o ZPVE           -0.055680440768 Eh   ::
         :: G(RRHO) contrib.            0.338038584278 Eh   ::
         :::::::::::::::::::::::::::::::::::::::::::::::::::::

           -------------------------------------------------
          | TOTAL ENERGY              -89.298708610729 Eh   |
          | TOTAL ENTHALPY            -88.875770117669 Eh   |
          | TOTAL FREE ENERGY         -88.960670026451 Eh   |
          | GRADIENT NORM               0.000073063390 Eh/α |
           -------------------------------------------------

 * finished run on 2025/07/19 at 22:00:22.740
