   * xtb version 6.7.1 (edcfbbe) compiled by 'albert@albert-system' on 2024-07-22

   ID    Z sym.   atoms
    1    7 N      1, 7, 9, 24
    2    6 C      2-6, 8, 10-23, 25-36
    3    1 H      37-54

          program call               : xtb data2507/gas/DCzIPN/DCzIPN_gas_S0_finalOpt.xtbopt.xyz --gfn 2 --spinpol --tblite --uhf 2 --ohess vtight --parallel 40 --molden --ceasefiles --namespace data2507/gas/DCzIPN/DCzIPN_gas_T1_preOpt
 * total energy  :   -89.2934960 Eh     change       -0.9588561E-08 Eh
 * total energy  :   -89.2975996 Eh     change       -0.4103651E-02 Eh
 * total energy  :   -89.2985083 Eh     change       -0.9086681E-03 Eh
 * total energy  :   -89.2985773 Eh     change       -0.6899748E-04 Eh
 * total energy  :   -89.2986172 Eh     change       -0.3992399E-04 Eh
 * total energy  :   -89.2986400 Eh     change       -0.2284118E-04 Eh
 * total energy  :   -89.2986616 Eh     change       -0.2155316E-04 Eh
 * total energy  :   -89.2986725 Eh     change       -0.1087201E-04 Eh
 * total energy  :   -89.2986777 Eh     change       -0.5257431E-05 Eh
 * total energy  :   -89.2986802 Eh     change       -0.2502851E-05 Eh
 * total energy  :   -89.2987038 Eh     change       -0.3324969E-05 Eh
 * total energy  :   -89.2987062 Eh     change       -0.2419186E-05 Eh
 * total energy  :   -89.2987075 Eh     change       -0.1263232E-05 Eh
 * total energy  :   -89.2987080 Eh     change       -0.5957522E-06 Eh
 * total energy  :   -89.2987082 Eh     change       -0.2019766E-06 Eh
 * total energy  :   -89.2987081 Eh     change        0.1215332E-06 Eh
 * total energy  :   -89.2987083 Eh     change       -0.1927295E-06 Eh
 * total energy  :   -89.2987084 Eh     change       -0.1073858E-06 Eh
 * total energy  :   -89.2987085 Eh     change       -0.7704048E-07 Eh
   *** GEOMETRY OPTIMIZATION CONVERGED AFTER 25 ITERATIONS ***

 final structure:
================
54
 xtb: 6.7.1 (edcfbbe)
N           -3.39469976808447       -2.69675374543607       -2.15418328005396
C           -2.40987394819570       -2.26573962104303       -1.73090850464014
C           -1.21576642967604       -1.75506542435969       -1.22915396469019
C           -0.00355156956024       -2.30514132126778       -1.62197164441093
C            1.21018166086041       -1.76001155815795       -1.22689353732286
C            2.40313741991150       -2.27613867210357       -1.72576313672513
N            3.38697682691017       -2.71085844716764       -2.14750831271529
C            1.20720138662656       -0.55721678051386       -0.38999992117596
N            2.41752085819994       -0.00223288689866        0.01464298449792
C            3.43487827859893       -0.68215646043737        0.64958445832027
C            3.47204731309718       -2.00069435422142        1.08582591378703
C            4.62361426389874       -2.43723137350531        1.71267581859395
C            5.70405759023298       -1.58355395016706        1.92045842661824
C            5.65743932681982       -0.25750399385346        1.52096041070002
C            4.51540437868572        0.20183742713820        0.88765406638535
C            4.11055840906624        1.48451473280743        0.37451225386411
C            4.72341493782246        2.72437581018941        0.30660925818005
C            4.03979027952070        3.77075553201145       -0.29101040886980
C            2.77007863195968        3.58459048593054       -0.83175358909262
C            2.13880469324565        2.35616311766439       -0.77452256407637
C            2.80756302113238        1.30998549395244       -0.15362142080591
C           -0.00029174046594        0.01981063362694       -0.03995403675379
C           -1.20949412168310       -0.55266607257620       -0.39170826119347
N           -2.41822956878303        0.00629389450333        0.01212408944487
C           -3.43865667549188       -0.67055406557058        0.64547930058667
C           -3.48137819480616       -1.98959065437146        1.07970613256159
C           -4.63505397084638       -2.42247106194320        1.70522006278025
C           -5.71217227804143       -1.56478440155029        1.91374281292368
C           -5.65999392993672       -0.23832506661706        1.51630640478040
C           -4.51578378141338        0.21738239989068        0.88429807344202
C           -4.10555293393583        1.49921384001390        0.37334675308726
C           -4.71340166722826        2.74162946525006        0.30713876537662
C           -4.02531941027436        3.78620105420473       -0.28851814631238
C           -2.75614661002376        3.59576996641187       -0.82905125781709
C           -2.12981589986259        2.36474391712630       -0.77344681632427
C           -2.80298758842982        1.32029366921103       -0.15439296965223
H           -0.00471623106722       -3.17295982695190       -2.26726736368465
H            2.63265137552497       -2.66379063874107        0.94585261185892
H            4.68421975653323       -3.45965704408975        2.05248455701828
H            6.58798884191571       -1.96148879396923        2.41143232608851
H            6.49065575234441        0.40459108183071        1.70040632358181
H            5.71582470304432        2.86834355798526        0.70533029317735
H            4.50079893801593        4.74496967265798       -0.35072095707812
H            2.27073273250748        4.41426405110339       -1.30883041950752
H            1.16448035291397        2.21242902372566       -1.21471031639297
H            0.00094079917892        0.89752889837683        0.59148089092605
H           -2.64458439204214       -2.65586202554995        0.93924946184742
H           -4.69995322744734       -3.44517472946185        2.04339619621815
H           -6.59787883043390       -1.93991330773136        2.40366813905277
H           -6.49062702622758        0.42685204763808        1.69633143969262
H           -5.70538968134144        2.88895150199021        0.70568378984163
H           -4.48236543615555        4.76236340675300       -0.34684911439714
H           -2.25328864794775        4.42416220045971       -1.30466200127459
H           -1.15590607687577        2.21781446771935       -1.21348940193169

 projected vibrational frequencies (cm⁻¹)
eigval :       -0.00    -0.00    -0.00     0.00     0.00     0.00
eigval :       15.24    26.19    27.42    39.62    46.75    58.95
eigval :       84.30   100.26   104.26   109.22   114.51   123.57
eigval :      140.68   145.34   148.60   179.64   193.10   243.44
eigval :      249.01   264.45   269.69   270.65   275.47   287.59
eigval :      350.11   361.90   372.44   387.06   394.05   415.29
eigval :      415.32   418.37   420.66   431.70   434.36   485.38
eigval :      512.29   513.13   523.82   528.05   532.37   532.92
eigval :      537.48   544.79   568.69   572.90   582.41   588.26
eigval :      594.52   618.15   641.61   656.60   670.64   671.20
eigval :      689.08   706.11   707.65   715.75   754.10   754.31
eigval :      762.49   765.34   770.56   773.15   858.39   861.30
eigval :      863.77   864.57   870.10   872.19   887.43   893.24
eigval :      896.07   898.79   899.38   901.63   901.70   906.93
eigval :      915.63   917.39   917.89   919.35  1008.79  1009.20
eigval :     1062.94  1066.32  1066.72  1070.05  1070.63  1102.29
eigval :     1114.86  1133.26  1136.53  1148.71  1165.62  1166.56
eigval :     1175.20  1175.82  1177.35  1181.65  1217.32  1221.96
eigval :     1225.65  1225.74  1261.62  1269.81  1270.76  1286.59
eigval :     1287.63  1292.61  1314.18  1329.89  1330.08  1355.69
eigval :     1362.77  1366.43  1370.60  1397.14  1403.31  1404.12
eigval :     1409.93  1416.21  1439.91  1452.98  1457.68  1462.49
eigval :     1479.10  1480.57  1560.64  1561.24  1568.22  1568.62
eigval :     1570.86  1572.04  1593.96  1596.37  2223.88  2289.92
eigval :     3075.32  3079.65  3084.84  3085.33  3086.20  3086.36
eigval :     3089.93  3090.60  3091.44  3091.77  3096.38  3097.01
eigval :     3097.83  3098.67  3102.12  3103.40  3104.04  3105.14

   temp. (K)  partition function   enthalpy   heat capacity  entropy
                                   cal/mol     cal/K/mol   cal/K/mol   J/K/mol
 298.15  VIB  0.247E+12            15964.615    103.097     97.340
         ROT  0.285E+08              888.752      2.981     37.096
         INT  0.706E+19            16853.367    106.078    134.436
         TR   0.950E+28             1481.254      4.968     44.237
         TOT                       18334.6213   111.0459   178.6734   747.5696

       T/K    H(0)-H(T)+PV         H(T)/Eh          T*S/Eh         G(T)/Eh
   ------------------------------------------------------------------------
    298.15    0.292181E-01    0.422967E+00    0.848935E-01    0.338073E+00
   ------------------------------------------------------------------------

         :::::::::::::::::::::::::::::::::::::::::::::::::::::
         ::                  THERMODYNAMIC                  ::
         :::::::::::::::::::::::::::::::::::::::::::::::::::::
         :: total free energy         -88.960635107354 Eh   ::
         ::.................................................::
         :: total energy              -89.298708503961 Eh   ::
         :: zero point energy           0.393748825372 Eh   ::
         :: G(RRHO) w/o ZPVE           -0.055675428765 Eh   ::
         :: G(RRHO) contrib.            0.338073396607 Eh   ::
         :::::::::::::::::::::::::::::::::::::::::::::::::::::

           -------------------------------------------------
          | TOTAL ENERGY              -89.298708503961 Eh   |
          | TOTAL ENTHALPY            -88.875741599726 Eh   |
          | TOTAL FREE ENERGY         -88.960635107354 Eh   |
          | GRADIENT NORM               0.000075628100 Eh/α |
           -------------------------------------------------

 * finished run on 2025/07/19 at 21:57:54.392
