   * xtb version 6.7.1 (edcfbbe) compiled by 'albert@albert-system' on 2024-07-22

   ID    Z sym.   atoms
    1    7 N      1, 7, 9, 24
    2    6 C      2-6, 8, 10-23, 25-36
    3    1 H      37-54

          program call               : xtb data2507/gas/DCzIPN/DCzIPN.xyz --gfn 2 --ohess vtight --parallel 40 --molden --ceasefiles --namespace data2507/gas/DCzIPN/DCzIPN_gas_S0_preOpt
          :  Hamiltonian                  GFN2-xTB          :
 * total energy  :   -89.3683746 Eh     change       -0.2462826E-08 Eh
 * total energy  :   -89.3811548 Eh     change       -0.1278022E-01 Eh
 * total energy  :   -89.3824587 Eh     change       -0.1303815E-02 Eh
 * total energy  :   -89.3836646 Eh     change       -0.1205965E-02 Eh
 * total energy  :   -89.3845210 Eh     change       -0.8563409E-03 Eh
 * total energy  :   -89.3847673 Eh     change       -0.2463807E-03 Eh
 * total energy  :   -89.3849478 Eh     change       -0.1804215E-03 Eh
 * total energy  :   -89.3850016 Eh     change       -0.5380843E-04 Eh
 * total energy  :   -89.3850035 Eh     change       -0.1958210E-05 Eh
 * total energy  :   -89.3851200 Eh     change       -0.1164761E-03 Eh
 * total energy  :   -89.3856582 Eh     change       -0.2468681E-06 Eh
 * total energy  :   -89.3856585 Eh     change       -0.2269107E-06 Eh
 * total energy  :   -89.3856587 Eh     change       -0.2468795E-06 Eh
 * total energy  :   -89.3856589 Eh     change       -0.2439307E-06 Eh
 * total energy  :   -89.3856591 Eh     change       -0.1923225E-06 Eh
 * total energy  :   -89.3856593 Eh     change       -0.1400900E-06 Eh
 * total energy  :   -89.3856594 Eh     change       -0.1218901E-06 Eh
 * total energy  :   -89.3856595 Eh     change       -0.1242997E-06 Eh
 * total energy  :   -89.3856595 Eh     change       -0.1397325E-08 Eh
   *** GEOMETRY OPTIMIZATION CONVERGED AFTER 44 ITERATIONS ***

 final structure:
================
54
 xtb: 6.7.1 (edcfbbe)
N           -3.31334824692229        3.76764672116312       -0.56070098532944
C           -2.38079179116878        3.13935454079963       -0.33813710159757
C           -1.19862221248555        2.39907363528111       -0.10945919111936
C            0.00031538994623        3.08424704236882        0.05155076891038
C            1.19910842279972        2.39381408281703        0.18952504780023
C            2.38141988175344        3.12575428750285        0.44291106671591
N            3.31408559823746        3.74610965962705        0.68640586783175
C            1.20565264851632        0.98330942813618        0.14731598711616
N            2.39174867895452        0.27398166725397        0.26949283902904
C            3.55649704239270        0.50162970665035       -0.45088266686234
C            3.78712916068582        1.37677471862815       -1.50002361442786
C            5.04338417281539        1.37160765057316       -2.07708915003963
C            6.04159437375176        0.50742410462983       -1.63683205131362
C            5.80277048616071       -0.39385587523330       -0.61821109704629
C            4.54909978207689       -0.40514064170684       -0.02288794209194
C            3.95521771938614       -1.21219860245440        1.00880850394015
C            4.43708987561031       -2.23754745101802        1.81048856102791
C            3.58982443833752       -2.80067109538580        2.74478730541978
C            2.28457585981554       -2.34186562142072        2.89568586504117
C            1.78319489307033       -1.32046894712317        2.10942442964702
C            2.62199410839281       -0.77132368324166        1.15265234074048
C            0.00002291451808        0.30605790185310        0.00500547963134
C           -1.20546789273258        0.98794636685907       -0.11452240682928
N           -2.39171630851418        0.28335626909006       -0.26032332287712
C           -2.62219850118935       -0.73183171760685       -1.17788522686144
C           -1.78355751421311       -1.24886605586532       -2.15252050532059
C           -2.28515476680575       -2.24337875592622       -2.97239064465859
C           -3.59046648714720       -2.70675951264453       -2.83679224423416
C           -4.43758287013483       -2.17498240869997       -1.88417083305627
C           -3.95548854180029       -1.17703872486065       -1.04875172127091
C           -4.54915925076512       -0.40480123411432        0.00937822624909
C           -5.80278707529868       -0.41320337064956        0.60483913339750
C           -6.04138398561279        0.45357450029232        1.65302730689584
C           -5.04298869247596        1.30238307792138        2.12184889264454
C           -3.78677300609088        1.32661656322439        1.54518393704542
C           -3.55637208005410        0.48699620509791        0.46735294880680
H            0.00042582210738        4.16452491028923        0.06964839457541
H            3.01893415767585        2.04055428963597       -1.86759958167047
H            5.25106553197961        2.05135109681141       -2.88940848642458
H            7.01138918939380        0.53718482576377       -2.11000196846153
H            6.56844872247783       -1.08094785388226       -0.29206216676295
H            5.45538680147809       -2.57920771912232        1.70629916536112
H            3.94401981722820       -3.60089950035774        3.37688173919121
H            1.64906968518276       -2.78859216849284        3.64558405044439
H            0.77530262453879       -0.96078618607157        2.25385302859869
H           -0.00008900836091       -0.77310678947704       -0.01307003534524
H           -0.77562002659028       -0.88471842898801       -2.28494548477607
H           -1.64977322008160       -2.66492947612663       -3.73682849416613
H           -3.94482615151288       -3.48540845937287       -3.49519834909453
H           -5.45591984093798       -2.51978658669499       -1.79134863687724
H           -6.56861899231518       -1.08885520212290        0.25594319930038
H           -7.01114868885193        0.46768982193104        2.12698450532631
H           -5.25048483352741        1.95461622879753        2.95646443613954
H           -3.01842981370363        1.97758976566395        1.93469788169174

          :  Hamiltonian                  GFN2-xTB          :
         :: gradient norm              0.000086277033 Eh/a0 ::
         :: HOMO-LUMO gap              2.181332382669 eV    ::
         :: SCC energy               -91.130749685184 Eh    ::
         :: -> dispersion             -0.078579132809 Eh    ::
         :: repulsion energy           1.745090161957 Eh    ::

    * Orbital Energies and Occupations

         #    Occupation            Energy/Eh            Energy/eV
      -------------------------------------------------------------
         1        2.0000           -0.7066191             -19.2281
       ...           ...                  ...                  ...
        71        2.0000           -0.4345623             -11.8250
        72        2.0000           -0.4338053             -11.8044
        73        2.0000           -0.4326791             -11.7738
        74        2.0000           -0.4311585             -11.7324
        75        2.0000           -0.4300925             -11.7034
        76        2.0000           -0.4290058             -11.6738
        77        2.0000           -0.4289157             -11.6714
        78        2.0000           -0.4172902             -11.3550
        79        2.0000           -0.4171091             -11.3501
        80        2.0000           -0.3907451             -10.6327
        81        2.0000           -0.3907394             -10.6326
        82        2.0000           -0.3812611             -10.3746
        83        2.0000           -0.3796329             -10.3303 (HOMO)
        84                         -0.2994705              -8.1490 (LUMO)
        85                         -0.2863623              -7.7923
        86                         -0.2567489              -6.9865
        87                         -0.2564544              -6.9785
        88                         -0.2340346              -6.3684
        89                         -0.2339523              -6.3662
        90                         -0.2266640              -6.1678
        91                         -0.2250829              -6.1248
        92                         -0.2152059              -5.8560
        93                         -0.2060647              -5.6073
        94                         -0.1992366              -5.4215
       ...                                ...                  ...
       162                          1.1574786              31.4966
      -------------------------------------------------------------
                  HL-Gap            0.0801625 Eh            2.1813 eV

     #   Z          covCN         q      C6AA      α(0)
     1   7 N        0.911    -0.225    25.925     7.364
     2   6 C        1.911     0.116    28.249     8.584
     3   6 C        2.971     0.000    28.025     8.683
     4   6 C        2.938    -0.014    28.373     8.736
     5   6 C        2.971     0.000    28.025     8.683
     6   6 C        1.911     0.116    28.249     8.584
     7   7 N        0.911    -0.225    25.925     7.364
     8   6 C        2.913     0.079    26.235     8.399
     9   7 N        2.802    -0.044    22.096     6.982
    10   6 C        3.066     0.049    26.844     8.496
    11   6 C        2.910    -0.044    29.090     8.844
    12   6 C        2.925    -0.028    28.705     8.786
    13   6 C        2.920    -0.036    28.884     8.813
    14   6 C        2.913    -0.030    28.751     8.793
    15   6 C        3.066    -0.012    28.250     8.715
    16   6 C        3.066    -0.012    28.241     8.714
    17   6 C        2.913    -0.030    28.760     8.794
    18   6 C        2.920    -0.037    28.924     8.819
    19   6 C        2.925    -0.031    28.782     8.798
    20   6 C        2.910    -0.050    29.231     8.865
    21   6 C        3.065     0.047    26.882     8.502
    22   6 C        2.925    -0.059    29.469     8.902
    23   6 C        2.913     0.079    26.235     8.399
    24   7 N        2.802    -0.044    22.096     6.982
    25   6 C        3.065     0.047    26.882     8.502
    26   6 C        2.910    -0.050    29.231     8.865
    27   6 C        2.925    -0.031    28.782     8.798
    28   6 C        2.920    -0.037    28.924     8.819
    29   6 C        2.913    -0.030    28.760     8.794
    30   6 C        3.066    -0.012    28.241     8.714
    31   6 C        3.066    -0.012    28.250     8.715
    32   6 C        2.913    -0.030    28.751     8.793
    33   6 C        2.920    -0.036    28.884     8.813
    34   6 C        2.925    -0.028    28.705     8.786
    35   6 C        2.910    -0.044    29.090     8.844
    36   6 C        3.066     0.049    26.844     8.496
    37   1 H        0.926     0.057     2.236     2.338
    38   1 H        0.926     0.024     2.667     2.554
    39   1 H        0.926     0.038     2.476     2.461
    40   1 H        0.926     0.036     2.500     2.473
    41   1 H        0.926     0.037     2.485     2.465
    42   1 H        0.926     0.037     2.485     2.465
    43   1 H        0.926     0.034     2.524     2.485
    44   1 H        0.926     0.034     2.525     2.485
    45   1 H        0.926     0.026     2.646     2.544
    46   1 H        0.926     0.060     2.201     2.320
    47   1 H        0.926     0.026     2.646     2.544
    48   1 H        0.926     0.034     2.525     2.485
    49   1 H        0.926     0.034     2.524     2.485
    50   1 H        0.926     0.037     2.485     2.465
    51   1 H        0.926     0.037     2.485     2.465
    52   1 H        0.926     0.036     2.500     2.473
    53   1 H        0.926     0.038     2.476     2.461
    54   1 H        0.926     0.024     2.667     2.554

molecular dipole:
                 x           y           z       tot (Debye)
 q only:       -0.000      -1.418      -0.024
   full:       -0.000      -1.735      -0.029       4.409

 projected vibrational frequencies (cm⁻¹)
eigval :       -0.00    -0.00    -0.00    -0.00     0.00     0.00
eigval :       20.33    21.99    25.29    45.72    46.52    63.33
eigval :       89.70   100.55   105.40   117.35   121.09   127.71
eigval :      144.32   150.86   152.46   186.13   204.74   245.67
eigval :      258.01   270.28   272.02   277.13   278.05   291.81
eigval :      344.64   378.94   394.14   396.28   401.29   420.48
eigval :      420.82   436.88   437.76   483.50   495.27   495.64
eigval :      517.85   518.22   521.71   526.25   540.73   540.82
eigval :      548.32   555.69   576.79   581.20   590.54   595.67
eigval :      644.34   654.18   667.78   672.89   673.02   693.67
eigval :      705.48   706.31   711.22   722.16   755.54   757.15
eigval :      769.16   769.62   780.50   781.20   864.24   871.27
eigval :      871.54   873.56   873.66   891.17   894.65   899.42
eigval :      903.63   903.83   904.74   907.94   909.35   915.79
eigval :      922.82   922.99   923.51   926.94  1011.57  1012.80
eigval :     1072.30  1072.61  1072.95  1076.35  1080.71  1108.62
eigval :     1149.65  1153.40  1154.09  1170.79  1172.62  1180.58
eigval :     1180.63  1184.58  1186.17  1223.76  1223.96  1234.43
eigval :     1235.21  1237.28  1259.94  1294.23  1294.74  1296.71
eigval :     1300.06  1310.52  1345.34  1354.90  1357.85  1358.21
eigval :     1359.67  1365.17  1408.93  1420.64  1426.79  1427.07
eigval :     1460.27  1466.91  1472.45  1474.52  1485.92  1485.93
eigval :     1504.40  1558.45  1578.09  1578.14  1591.05  1591.54
eigval :     1599.78  1599.84  1612.47  1612.88  2366.92  2370.80
eigval :     3078.59  3078.60  3079.85  3079.86  3084.90  3084.90
eigval :     3085.69  3085.72  3092.34  3092.40  3093.71  3094.33
eigval :     3094.33  3100.63  3100.67  3102.13  3102.33  3105.17

   temp. (K)  partition function   enthalpy   heat capacity  entropy
                                   cal/mol     cal/K/mol   cal/K/mol   J/K/mol
 298.15  VIB  0.109E+12            15607.174    101.473     94.891
         ROT  0.142E+08              888.752      2.981     35.704
         INT  0.155E+19            16495.926    104.454    130.595
         TR   0.950E+28             1481.254      4.968     44.237
         TOT                       17977.1799   109.4217   174.8321   731.4975

       T/K    H(0)-H(T)+PV         H(T)/Eh          T*S/Eh         G(T)/Eh
   ------------------------------------------------------------------------
    298.15    0.286485E-01    0.426880E+00    0.830684E-01    0.343812E+00
   ------------------------------------------------------------------------

         :::::::::::::::::::::::::::::::::::::::::::::::::::::
         ::                  THERMODYNAMIC                  ::
         :::::::::::::::::::::::::::::::::::::::::::::::::::::
         :: total free energy         -89.041847722407 Eh   ::
         ::.................................................::
         :: total energy              -89.385659523226 Eh   ::
         :: zero point energy           0.398231709218 Eh   ::
         :: G(RRHO) w/o ZPVE           -0.054419908398 Eh   ::
         :: G(RRHO) contrib.            0.343811800820 Eh   ::
         :::::::::::::::::::::::::::::::::::::::::::::::::::::

           -------------------------------------------------
          | TOTAL ENERGY              -89.385659523226 Eh   |
          | TOTAL ENTHALPY            -88.958779354216 Eh   |
          | TOTAL FREE ENERGY         -89.041847722407 Eh   |
          | GRADIENT NORM               0.000086322864 Eh/α |
          | HOMO-LUMO GAP               2.181331918726 eV   |
           -------------------------------------------------

 * finished run on 2025/07/19 at 21:55:53.229
