   * xtb version 6.7.1 (edcfbbe) compiled by 'albert@albert-system' on 2024-07-22

   ID    Z sym.   atoms
    1    8 O      1, 21, 25
    2   15 P      2, 24
    3    6 C      3-20, 22, 23, 26-48, 50-79
    4    7 N      49
    5    1 H      80-128

          program call               : xtb data2507/gas/9ArFDBFxPO/9ArFDBFxPO_gas_S0_crest.xyz --gfn 2 --ohess vtight --parallel 40 --molden --ceasefiles --namespace data2507/gas/9ArFDBFxPO/9ArFDBFxPO_gas_S0_finalOpt
          :  Hamiltonian                  GFN2-xTB          :
 * total energy  :  -201.6307038 Eh     change       -0.2888839E-08 Eh
 * total energy  :  -201.6307065 Eh     change       -0.2709751E-05 Eh
 * total energy  :  -201.6307101 Eh     change       -0.3590213E-05 Eh
 * total energy  :  -201.6307153 Eh     change       -0.5269593E-05 Eh
 * total energy  :  -201.6307177 Eh     change       -0.2315415E-05 Eh
 * total energy  :  -201.6307203 Eh     change       -0.2594191E-05 Eh
 * total energy  :  -201.6307256 Eh     change       -0.5375341E-05 Eh
 * total energy  :  -201.6307355 Eh     change       -0.9848756E-05 Eh
 * total energy  :  -201.6307464 Eh     change       -0.1087840E-04 Eh
 * total energy  :  -201.6307549 Eh     change       -0.8501323E-05 Eh
 * total energy  :  -201.6308429 Eh     change       -0.1263506E-05 Eh
 * total energy  :  -201.6308443 Eh     change       -0.1344298E-05 Eh
 * total energy  :  -201.6308457 Eh     change       -0.1415503E-05 Eh
 * total energy  :  -201.6308471 Eh     change       -0.1470239E-05 Eh
 * total energy  :  -201.6308485 Eh     change       -0.1366244E-05 Eh
 * total energy  :  -201.6308496 Eh     change       -0.1074627E-05 Eh
 * total energy  :  -201.6308504 Eh     change       -0.8416852E-06 Eh
 * total energy  :  -201.6308511 Eh     change       -0.6716223E-06 Eh
 * total energy  :  -201.6308511 Eh     change       -0.4574588E-08 Eh
   *** GEOMETRY OPTIMIZATION CONVERGED AFTER 44 ITERATIONS ***

 final structure:
================
128
 xtb: 6.7.1 (edcfbbe)
O            6.76599831259525       -2.51421382281086        0.64703584714271
P            7.24001830871306       -1.25134444435460        1.22253538529401
C            7.73338917606444       -0.00207909780017       -0.00099786161314
C            8.14807927451339       -0.47419205591596       -1.23721245967901
C            8.60951688115586        0.40900809218546       -2.19607597741070
C            8.67410890951404        1.76270031021867       -1.91027395146630
C            8.25222373613533        2.23604132020000       -0.67721771209257
C            7.77387852077939        1.35729211097642        0.27775036316014
C            8.69594535665014       -1.45936977138994        2.29545561806853
C            9.08532107358840       -2.76125089294612        2.57438158837531
C           10.18087551137136       -2.99932845530047        3.38513804684809
C           10.88919427079078       -1.93353744736503        3.91507183215009
C           10.50504986922393       -0.63170879327697        3.63171559598147
C            9.41061575067782       -0.39087445234231        2.82175279901852
C            5.98847035677884       -0.43952423782499        2.26909633695534
C            6.06132300729641       -0.27236154762684        3.64399308811402
C            4.98194596286472        0.22567130361131        4.36854964271156
C            3.78578942620627        0.54580422395641        3.75404309701933
C            3.68430081042341        0.37675660600404        2.37904702929796
C            4.79382000499006       -0.09784650038879        1.65503549548795
O            4.53555850736635       -0.19268807192427        0.32905867152526
C            3.23540213410686        0.17776078646503        0.17085822598821
C            2.50037957736765        0.18121969357536       -1.00414296005299
P            3.11805806028771       -0.28881241828921       -2.65357384789901
O            2.02488268411798       -0.68573744606065       -3.55118719751489
C            4.33585629270846       -1.61098208609253       -2.38889393766564
C            4.01016885961747       -2.64651569970407       -1.52494301295123
C            4.85864209546208       -3.72953731494964       -1.39888117867111
C            6.02105892802633       -3.78568635362966       -2.14971454168318
C            6.33709239305715       -2.75919371948630       -3.02358670855756
C            5.49619038342738       -1.66666514647269       -3.14387156739659
C            4.01173974075967        1.18591618086643       -3.22786008323530
C            5.04066811927767        1.76675077005033       -2.49849085525608
C            5.63570486579702        2.92298036495681       -2.96811653538709
C            5.21754850437695        3.48962967356153       -4.16253692226620
C            4.19747109965524        2.90370862674574       -4.89361185247227
C            3.58974030402211        1.75440458305693       -4.42109173781622
C            1.17085752916042        0.56211556053626       -0.92166925335591
C            0.56368152468705        0.93530013891622        0.28201410758244
C           -0.86318216340682        1.28772181775356        0.31354737192065
C           -1.77968417826237        0.59680312383195       -0.47619158935437
C           -3.12533950660488        0.89771043635540       -0.42233135543219
C           -3.59961931474761        1.89205362197810        0.42659325508172
C           -5.07433195268698        2.23711858833172        0.44727636155415
C           -5.95236950796739        1.01020793398690        0.30754834878965
C           -5.61320589872357       -0.16723943905117        0.96613838354109
C           -6.42216502428638       -1.28249335701990        0.88474361519931
C           -7.59353473812264       -1.24307150958712        0.13419009702789
N           -8.40129998131912       -2.38316477217697        0.02826576870918
C           -9.76193574174226       -2.43809464201013        0.25287410437944
C          -10.62928471589186       -1.44004938938341        0.67349928367804
C          -11.95865041326410       -1.77310735883096        0.84880213131538
C          -12.42101711581486       -3.06758535371133        0.62153970794444
C          -11.55855381982126       -4.07005571651859        0.22559862517545
C          -10.21740714685892       -3.76019115703081        0.04255818384859
C           -9.06718397165889       -4.53303137152920       -0.33393451849663
C           -8.88208693237762       -5.86535119924176       -0.67933460501547
C           -7.61374153507043       -6.29038972674052       -1.02005954410343
C           -6.54016216228629       -5.40255029054719       -1.03339430284123
C           -6.69902215882512       -4.07294790377543       -0.69331107613583
C           -7.96716872996170       -3.64493101630029       -0.32721214776061
C           -7.94742489245760       -0.06316316624228       -0.51160486806785
C           -7.13749090504929        1.05241957771209       -0.41515815046090
C           -5.50833783880024        2.97815238894634        1.69810008812190
C           -5.52400288831483        2.53145165269650        3.00197426076546
C           -5.98594427202988        3.38667908148684        3.99344433008909
C           -6.42823472711740        4.66318151295706        3.68159640934243
C           -6.42003891444622        5.11570168521377        2.37216375412334
C           -5.95884604782035        4.26702524605201        1.37944717840591
C           -5.83208260688515        4.46065964427207       -0.05586740817024
C           -6.12238670046185        5.55547844687197       -0.85308629219759
C           -5.89436723415461        5.46253667075882       -2.21646805123733
C           -5.38284128564620        4.29998109762853       -2.77272463062621
C           -5.09000109858457        3.19963534588831       -1.97825517571432
C           -5.32273371963292        3.28383167015268       -0.62228725976768
C           -2.68549950828067        2.60249509618739        1.19336483589838
C           -1.33795367454582        2.30133768231370        1.14164830016211
C            1.31524170183184        0.93460828027559        1.45197158605077
C            2.64663445729477        0.55079545601162        1.39646703230304
H            8.08930655523478       -1.53575751357782       -1.42754671735817
H            8.92710917938995        0.04459264654509       -3.16186774933291
H            9.04904746071473        2.45265034220442       -2.65228695568218
H            8.29804324358204        3.29377061652397       -0.45831240427157
H            7.42410112585554        1.72452989117558        1.23347372925637
H            8.51587327408684       -3.57246259358882        2.14428314075619
H           10.48301540477184       -4.01294657023090        3.60390320986222
H           11.74489373183616       -2.11521055355970        4.54866743730233
H           11.06233435322387        0.19701471316032        4.04392541448590
H            9.11191686044887        0.62231073454470        2.59578990312443
H            6.97315071677200       -0.54003283300972        4.15815538419728
H            5.08100440259359        0.34665666427187        5.43693554414172
H            2.94626497448734        0.90999202071587        4.32583654392070
H            3.08990737550907       -2.59286628024435       -0.95729348957782
H            4.61835623539181       -4.52904976964887       -0.71462514352602
H            6.68440981170219       -4.63198577262261       -2.05003692228580
H            7.24029614873450       -2.81046636372006       -3.61589902928896
H            5.73454966016548       -0.85564576473165       -3.81985164266632
H            5.37301315821354        1.30953801320928       -1.57761031766420
H            6.42856646447690        3.38643968000681       -2.40086609651045
H            5.68950525087585        4.39237027875593       -4.52271590987205
H            3.87455282224418        3.34504499762595       -5.82518338751912
H            2.78492430490365        1.27804589446600       -4.96239828483240
H            0.59998565430568        0.55904011912006       -1.83899949920046
H           -1.43692343654762       -0.19844626012837       -1.12084157761746
H           -3.81871370970846        0.34066691327284       -1.03561486106291
H           -4.70100337809196       -0.21602228961909        1.54258734716929
H           -6.15598163353460       -2.18760930529196        1.40998990275866
H          -10.27704806842531       -0.43828504634841        0.86910927081917
H          -12.65460119030127       -1.01320983495695        1.17284758737975
H          -13.46837705712985       -3.28683980749388        0.76720235677828
H          -11.91362272185519       -5.07681763791966        0.06436480712973
H           -9.71724795044705       -6.54953048361251       -0.68429757050107
H           -7.44775436300844       -7.32276371355064       -1.28995353485385
H           -5.56215239667742       -5.76052081859352       -1.31961248897229
H           -5.86391565519525       -3.38937557127881       -0.72343405377851
H           -8.85051836917627       -0.02858563044193       -1.10232268602845
H           -7.42552477689565        1.96166523023169       -0.92168964145947
H           -5.18202445116099        1.53836915060535        3.25268360683763
H           -6.00142663125860        3.05239643552311        5.02045134801807
H           -6.78425748015174        5.31100834869520        4.46938560981886
H           -6.76682486200606        6.10956387173125        2.13123028675682
H           -6.51731336650625        6.46320648507000       -0.42158846182795
H           -6.11524711405082        6.30599053452259       -2.85427761283084
H           -5.20918700898073        4.24916272766891       -3.83747346676994
H           -4.69045186022551        2.29784481597314       -2.41756015316339
H           -3.03018677678203        3.39654288424020        1.83973459472140
H           -0.64318260511550        2.87438450717112        1.73827011931621
H            0.86418172178714        1.19152971895349        2.39812301535371

          :  Hamiltonian                  GFN2-xTB          :
         :: gradient norm              0.000056893133 Eh/a0 ::
         :: HOMO-LUMO gap              2.372883376757 eV    ::
         :: SCC energy              -205.325342095426 Eh    ::
         :: -> dispersion             -0.204321526852 Eh    ::
         :: repulsion energy           3.694490997091 Eh    ::

    * Orbital Energies and Occupations

         #    Occupation            Energy/Eh            Energy/eV
      -------------------------------------------------------------
         1        2.0000           -0.7469143             -20.3246
       ...           ...                  ...                  ...
       175        2.0000           -0.4044772             -11.0064
       176        2.0000           -0.4021732             -10.9437
       177        2.0000           -0.3997116             -10.8767
       178        2.0000           -0.3995912             -10.8734
       179        2.0000           -0.3988686             -10.8538
       180        2.0000           -0.3981017             -10.8329
       181        2.0000           -0.3970404             -10.8040
       182        2.0000           -0.3962543             -10.7826
       183        2.0000           -0.3931044             -10.6969
       184        2.0000           -0.3847702             -10.4701
       185        2.0000           -0.3801994             -10.3458
       186        2.0000           -0.3729101             -10.1474
       187        2.0000           -0.3567369              -9.7073 (HOMO)
       188                         -0.2695350              -7.3344 (LUMO)
       189                         -0.2598897              -7.0720
       190                         -0.2576958              -7.0123
       191                         -0.2538650              -6.9080
       192                         -0.2439980              -6.6395
       193                         -0.2434027              -6.6233
       194                         -0.2409771              -6.5573
       195                         -0.2384457              -6.4884
       196                         -0.2378720              -6.4728
       197                         -0.2367029              -6.4410
       198                         -0.2333181              -6.3489
       ...                                ...                  ...
       375                          1.2184649              33.1561
      -------------------------------------------------------------
                  HL-Gap            0.0872019 Eh            2.3729 eV

     #   Z          covCN         q      C6AA      α(0)
     1   8 O        0.808    -0.353    20.793     6.113
     2  15 P        4.078     0.084   156.548    22.476
     3   6 C        2.922     0.015    27.680     8.628
     4   6 C        3.035    -0.018    28.423     8.745
     5   6 C        2.919    -0.025    28.619     8.773
     6   6 C        2.921    -0.023    28.585     8.768
     7   6 C        2.920    -0.026    28.662     8.779
     8   6 C        2.975    -0.023    28.580     8.769
     9   6 C        2.921     0.009    27.818     8.649
    10   6 C        3.030    -0.020    28.477     8.753
    11   6 C        2.919    -0.027    28.667     8.780
    12   6 C        2.921    -0.025    28.623     8.773
    13   6 C        2.920    -0.028    28.702     8.785
    14   6 C        2.973    -0.027    28.664     8.782
    15   6 C        2.908    -0.012    28.321     8.726
    16   6 C        2.965    -0.029    28.721     8.791
    17   6 C        2.920    -0.038    28.936     8.821
    18   6 C        2.913    -0.031    28.764     8.794
    19   6 C        3.055    -0.021    28.466     8.750
    20   6 C        3.230     0.139    24.237     7.994
    21   8 O        1.715    -0.200    17.327     5.620
    22   6 C        3.151     0.131    24.880     8.158
    23   6 C        2.907    -0.012    28.316     8.725
    24  15 P        4.078     0.076   156.878    22.499
    25   8 O        0.808    -0.357    20.867     6.123
    26   6 C        2.923     0.022    27.510     8.601
    27   6 C        3.014    -0.009    28.233     8.716
    28   6 C        2.920    -0.012    28.318     8.727
    29   6 C        2.921    -0.015    28.378     8.736
    30   6 C        2.921    -0.024    28.596     8.769
    31   6 C        2.994    -0.020    28.491     8.756
    32   6 C        2.922     0.013    27.716     8.633
    33   6 C        2.978    -0.024    28.604     8.773
    34   6 C        2.921    -0.030    28.738     8.791
    35   6 C        2.921    -0.026    28.643     8.776
    36   6 C        2.919    -0.028    28.692     8.784
    37   6 C        3.029    -0.021    28.493     8.756
    38   6 C        3.042    -0.030    28.714     8.789
    39   6 C        2.975     0.006    27.894     8.663
    40   6 C        2.977     0.008    27.832     8.654
    41   6 C        2.924    -0.034    28.851     8.809
    42   6 C        2.923    -0.033    28.830     8.805
    43   6 C        2.980     0.016    27.639     8.624
    44   6 C        3.947     0.008    20.383     6.415
    45   6 C        2.979     0.014    27.689     8.631
    46   6 C        2.924    -0.033    28.826     8.805
    47   6 C        2.922    -0.044    29.089     8.845
    48   6 C        2.913     0.062    26.610     8.459
    49   7 N        2.803    -0.044    22.092     6.981
    50   6 C        3.076     0.047    26.875     8.500
    51   6 C        2.910    -0.051    29.268     8.871
    52   6 C        2.924    -0.034    28.841     8.807
    53   6 C        2.920    -0.041    29.028     8.835
    54   6 C        2.912    -0.033    28.824     8.804
    55   6 C        3.068    -0.017    28.370     8.734
    56   6 C        3.068    -0.017    28.372     8.734
    57   6 C        2.913    -0.033    28.822     8.803
    58   6 C        2.920    -0.041    29.020     8.834
    59   6 C        2.924    -0.033    28.831     8.805
    60   6 C        2.910    -0.051    29.260     8.870
    61   6 C        3.077     0.047    26.876     8.500
    62   6 C        2.922    -0.044    29.083     8.844
    63   6 C        2.923    -0.035    28.869     8.811
    64   6 C        3.057     0.004    27.887     8.660
    65   6 C        2.914    -0.034    28.839     8.806
    66   6 C        2.922    -0.032    28.806     8.802
    67   6 C        2.921    -0.033    28.811     8.802
    68   6 C        2.915    -0.034    28.844     8.807
    69   6 C        3.035     0.001    27.966     8.674
    70   6 C        3.035     0.001    27.975     8.675
    71   6 C        2.915    -0.034    28.844     8.807
    72   6 C        2.921    -0.032    28.806     8.801
    73   6 C        2.923    -0.032    28.789     8.799
    74   6 C        2.914    -0.033    28.828     8.804
    75   6 C        3.058     0.004    27.885     8.660
    76   6 C        2.922    -0.036    28.891     8.815
    77   6 C        2.924    -0.035    28.864     8.811
    78   6 C        2.918    -0.037    28.920     8.819
    79   6 C        3.057    -0.021    28.476     8.751
    80   1 H        0.926     0.060     2.203     2.321
    81   1 H        0.926     0.038     2.469     2.457
    82   1 H        0.926     0.037     2.483     2.464
    83   1 H        0.926     0.034     2.529     2.487
    84   1 H        0.925     0.033     2.538     2.491
    85   1 H        0.926     0.064     2.153     2.295
    86   1 H        0.926     0.041     2.441     2.443
    87   1 H        0.926     0.039     2.468     2.457
    88   1 H        0.926     0.037     2.494     2.470
    89   1 H        0.926     0.040     2.455     2.450
    90   1 H        0.926     0.045     2.388     2.417
    91   1 H        0.926     0.043     2.404     2.424
    92   1 H        0.926     0.045     2.384     2.415
    93   1 H        0.925     0.036     2.498     2.472
    94   1 H        0.926     0.044     2.394     2.420
    95   1 H        0.926     0.041     2.437     2.441
    96   1 H        0.925     0.032     2.560     2.502
    97   1 H        0.925     0.030     2.584     2.514
    98   1 H        0.926     0.039     2.460     2.453
    99   1 H        0.926     0.033     2.540     2.492
   100   1 H        0.926     0.036     2.505     2.475
   101   1 H        0.926     0.039     2.459     2.452
   102   1 H        0.926     0.065     2.137     2.286
   103   1 H        0.926     0.073     2.052     2.240
   104   1 H        0.926     0.042     2.421     2.433
   105   1 H        0.926     0.034     2.528     2.486
   106   1 H        0.926     0.036     2.502     2.474
   107   1 H        0.926     0.041     2.433     2.439
   108   1 H        0.926     0.026     2.641     2.541
   109   1 H        0.926     0.028     2.620     2.531
   110   1 H        0.926     0.027     2.632     2.537
   111   1 H        0.926     0.030     2.585     2.514
   112   1 H        0.926     0.030     2.587     2.515
   113   1 H        0.926     0.027     2.623     2.533
   114   1 H        0.926     0.029     2.594     2.519
   115   1 H        0.926     0.027     2.629     2.535
   116   1 H        0.926     0.041     2.433     2.439
   117   1 H        0.926     0.037     2.494     2.469
   118   1 H        0.926     0.029     2.596     2.520
   119   1 H        0.926     0.031     2.578     2.511
   120   1 H        0.926     0.031     2.578     2.511
   121   1 H        0.926     0.032     2.563     2.504
   122   1 H        0.926     0.031     2.567     2.505
   123   1 H        0.926     0.031     2.573     2.508
   124   1 H        0.926     0.032     2.555     2.499
   125   1 H        0.926     0.032     2.562     2.503
   126   1 H        0.926     0.032     2.557     2.501
   127   1 H        0.926     0.031     2.569     2.507
   128   1 H        0.926     0.045     2.378     2.411

molecular dipole:
                 x           y           z       tot (Debye)
 q only:        1.624       1.788       1.342
   full:        2.036       2.181       1.695       8.723

 projected vibrational frequencies (cm⁻¹)
eigval :       -0.00    -0.00     0.00     0.00     0.00     0.00
eigval :        4.86     6.42    10.10    12.84    14.74    16.99
eigval :       19.88    25.27    26.17    28.09    29.37    30.71
eigval :       36.32    38.09    44.31    47.84    49.40    54.00
eigval :       61.14    65.06    66.34    70.75    75.98    83.73
eigval :       86.04    91.04    95.91    97.16   102.47   106.59
eigval :      128.84   135.84   144.98   145.22   151.44   157.88
eigval :      159.14   166.18   173.90   178.45   192.27   196.67
eigval :      197.15   212.73   217.84   232.00   233.03   236.18
eigval :      241.68   247.85   252.63   260.25   270.17   271.83
eigval :      273.01   278.93   286.05   296.02   306.96   313.38
eigval :      328.93   348.55   358.47   362.80   365.23   366.40
eigval :      367.64   372.35   377.36   385.50   387.93   388.80
eigval :      391.80   395.75   406.06   412.78   413.59   415.27
eigval :      421.50   425.14   434.56   437.86   456.57   458.07
eigval :      465.43   473.40   481.87   492.96   500.86   506.79
eigval :      509.97   515.38   518.03   520.87   530.05   534.62
eigval :      539.42   541.30   543.22   558.28   573.67   581.61
eigval :      585.63   586.24   586.53   587.28   588.30   593.73
eigval :      595.99   597.50   604.03   618.79   620.59   628.12
eigval :      637.57   656.63   657.02   659.28   660.33   673.18
eigval :      673.88   674.41   683.50   689.16   690.06   693.45
eigval :      700.16   708.34   712.02   715.40   717.97   724.88
eigval :      727.87   730.08   740.48   741.09   744.18   748.35
eigval :      754.74   757.39   768.02   769.70   780.93   785.05
eigval :      793.06   798.54   812.14   820.96   848.23   853.46
eigval :      864.85   867.56   873.71   876.03   876.62   877.31
eigval :      877.49   878.62   881.43   881.98   883.03   890.74
eigval :      891.24   897.02   900.23   901.03   902.17   902.71
eigval :      902.78   903.64   905.15   906.20   907.51   909.36
eigval :      912.10   917.74   919.88   921.44   921.97   925.85
eigval :      926.88   927.23   927.43   927.96   928.44   929.22
eigval :      933.40   934.26   934.45   934.78   936.86   937.94
eigval :      938.14   956.42   973.09   974.06   976.06   977.33
eigval :     1007.96  1012.19  1014.76  1026.57  1065.27  1070.22
eigval :     1073.80  1076.25  1076.42  1078.01  1078.82  1079.37
eigval :     1081.57  1089.65  1099.21  1108.59  1111.08  1112.22
eigval :     1114.94  1116.80  1118.45  1125.05  1125.90  1128.94
eigval :     1133.54  1140.73  1144.76  1147.63  1152.88  1168.56
eigval :     1175.50  1176.55  1177.35  1180.51  1180.61  1181.47
eigval :     1181.50  1182.03  1184.10  1184.93  1185.46  1188.12
eigval :     1189.51  1190.66  1192.00  1194.59  1204.22  1205.88
eigval :     1208.55  1224.89  1228.81  1233.87  1237.20  1238.51
eigval :     1242.80  1250.95  1254.78  1257.33  1263.11  1264.53
eigval :     1267.97  1270.45  1271.86  1273.21  1274.22  1277.88
eigval :     1285.96  1301.09  1305.04  1307.62  1315.43  1322.40
eigval :     1322.88  1323.54  1324.12  1325.82  1327.33  1339.73
eigval :     1353.70  1357.59  1362.57  1366.31  1369.98  1385.51
eigval :     1392.01  1403.40  1408.62  1424.55  1425.44  1426.89
eigval :     1428.05  1428.60  1429.08  1432.02  1433.66  1452.79
eigval :     1453.21  1453.55  1455.34  1458.37  1462.53  1472.71
eigval :     1475.35  1476.94  1488.86  1494.24  1500.05  1555.92
eigval :     1566.51  1570.93  1576.16  1583.06  1583.67  1584.55
eigval :     1585.44  1586.32  1587.06  1587.44  1587.96  1588.70
eigval :     1588.75  1589.47  1590.97  1594.62  1598.98  1599.52
eigval :     1599.69  1603.97  1604.64  1610.28  1615.60  3049.67
eigval :     3051.57  3055.49  3068.00  3070.81  3073.68  3073.72
eigval :     3073.92  3074.96  3074.97  3075.52  3076.23  3077.65
eigval :     3077.99  3078.16  3078.63  3079.75  3079.84  3080.23
eigval :     3080.82  3081.71  3081.76  3082.03  3082.40  3084.48
eigval :     3084.76  3085.33  3086.59  3087.03  3087.55  3087.58
eigval :     3088.14  3088.32  3088.43  3089.03  3089.30  3092.57
eigval :     3093.28  3093.45  3094.06  3094.33  3094.59  3095.07
eigval :     3095.32  3096.15  3096.25  3096.84  3098.08  3099.76

   temp. (K)  partition function   enthalpy   heat capacity  entropy
                                   cal/mol     cal/K/mol   cal/K/mol   J/K/mol
 298.15  VIB  0.140E+34            39157.834    238.594    248.629
         ROT  0.450E+09              888.752      2.981     42.575
         INT  0.628E+42            40046.587    241.575    291.204
         TR   0.329E+29             1481.254      4.968     46.706
         TOT                       41527.8406   246.5435   337.9101  1413.8160

       T/K    H(0)-H(T)+PV         H(T)/Eh          T*S/Eh         G(T)/Eh
   ------------------------------------------------------------------------
    298.15    0.661788E-01    0.104015E+01    0.160552E+00    0.879596E+00
   ------------------------------------------------------------------------

         :::::::::::::::::::::::::::::::::::::::::::::::::::::
         ::                  THERMODYNAMIC                  ::
         :::::::::::::::::::::::::::::::::::::::::::::::::::::
         :: total free energy        -200.751254713855 Eh   ::
         ::.................................................::
         :: total energy             -201.630851098333 Eh   ::
         :: zero point energy           0.973969569574 Eh   ::
         :: G(RRHO) w/o ZPVE           -0.094373185096 Eh   ::
         :: G(RRHO) contrib.            0.879596384478 Eh   ::
         :::::::::::::::::::::::::::::::::::::::::::::::::::::

           -------------------------------------------------
          | TOTAL ENERGY             -201.630851098333 Eh   |
          | TOTAL ENTHALPY           -200.590702702375 Eh   |
          | TOTAL FREE ENERGY        -200.751254713855 Eh   |
          | GRADIENT NORM               0.000056891693 Eh/α |
          | HOMO-LUMO GAP               2.372883423417 eV   |
           -------------------------------------------------

 * finished run on 2025/07/17 at 15:17:12.288
