   * xtb version 6.7.1 (edcfbbe) compiled by 'albert@albert-system' on 2024-07-22

   ID    Z sym.   atoms
    1    8 O      1, 21, 25
    2   15 P      2, 24
    3    6 C      3-20, 22, 23, 26-48, 50-79
    4    7 N      49
    5    1 H      80-128

          program call               : xtb data2507/gas/9ArFDBFxPO/9ArFDBFxPO_gas_T1_crest.xyz --gfn 2 --spinpol --tblite --uhf 2 --ohess vtight --parallel 40 --molden --ceasefiles --namespace data2507/gas/9ArFDBFxPO/9ArFDBFxPO_gas_T1_finalOpt
 * total energy  :  -201.5266463 Eh     change       -0.1376347E-07 Eh
 * total energy  :  -201.5267004 Eh     change       -0.5407478E-04 Eh
 * total energy  :  -201.5267206 Eh     change       -0.2022696E-04 Eh
 * total energy  :  -201.5267230 Eh     change       -0.2339637E-05 Eh
 * total energy  :  -201.5267247 Eh     change       -0.1670067E-05 Eh
 * total energy  :  -201.5267259 Eh     change       -0.1277127E-05 Eh
 * total energy  :  -201.5267284 Eh     change       -0.2456893E-05 Eh
 * total energy  :  -201.5267305 Eh     change       -0.2081454E-05 Eh
 * total energy  :  -201.5267318 Eh     change       -0.1377303E-05 Eh
 * total energy  :  -201.5267331 Eh     change       -0.1233828E-05 Eh
 * total energy  :  -201.5267358 Eh     change       -0.4922750E-06 Eh
 * total energy  :  -201.5267367 Eh     change       -0.9327762E-06 Eh
 * total energy  :  -201.5267374 Eh     change       -0.7102137E-06 Eh
 * total energy  :  -201.5267383 Eh     change       -0.8352521E-06 Eh
 * total energy  :  -201.5267387 Eh     change       -0.4529630E-06 Eh
 * total energy  :  -201.5267385 Eh     change        0.2140066E-06 Eh
 * total energy  :  -201.5267389 Eh     change       -0.4105266E-06 Eh
 * total energy  :  -201.5267392 Eh     change       -0.2907132E-06 Eh
 * total energy  :  -201.5267392 Eh     change       -0.1232371E-07 Eh
   *** GEOMETRY OPTIMIZATION CONVERGED AFTER 22 ITERATIONS ***

 final structure:
================
128
 xtb: 6.7.1 (edcfbbe)
O            9.25015574295180        1.70864873889235       -1.38727345268531
P            8.00153054430266        0.96212331663404       -1.18740409459520
C            7.96163843221154        0.14092102784589        0.43732466303604
C            8.69539555967802       -1.02783144525670        0.58208738635450
C            8.79235137629575       -1.63408873656430        1.82152060337512
C            8.17000706273848       -1.05987174175318        2.91861626652669
C            7.46547813769101        0.12451608011930        2.77968152981235
C            7.35950728494160        0.72774921730052        1.53885945140815
C            7.74821014309053       -0.32977071647221       -2.44507970295223
C            6.54871302463386       -1.01033107255121       -2.60320063291601
C            6.42421849999407       -1.95327523943097       -3.60687331630959
C            7.49360593688473       -2.22385473943683       -4.44584810492057
C            8.69141972384444       -1.54526666406052       -4.28839916603421
C            8.81596991305805       -0.59381959645076       -3.29239043338317
C            6.52793942469404        2.02014231272862       -1.29919885883947
C            6.71169982052342        3.25266346872979       -1.91702729361699
C            5.66240161434211        4.13267787670293       -2.13615138605735
C            4.37234020149238        3.80288224933837       -1.74962478234233
C            4.16172616162786        2.58473401048434       -1.12677422268186
C            5.23671127951685        1.70029476482664       -0.89544031583460
O            4.82530571467255        0.57127773365863       -0.25783297722163
C            3.48603642473359        0.69503370966330       -0.07706511118079
C            2.59825841853933       -0.21723850725335        0.53904406656295
P            3.03800029518847       -1.77316217368678        1.36434407368106
O            1.84374365423171       -2.55219728601007        1.72180331367367
C            3.99624052648735       -1.30862951989847        2.84548902764367
C            4.69191205051957       -2.31330359100062        3.50377768722083
C            5.29113719916284       -2.05501392518814        4.72241232670144
C            5.18539157607669       -0.79528980752922        5.29072700566630
C            4.48505580284886        0.20554266728118        4.63747260368140
C            3.88736449211525       -0.04983618860070        3.41498855584202
C            4.17027316101424       -2.69948857722462        0.28346304021912
C            3.58721718744422       -3.63473206121126       -0.56145945245158
C            4.38127600758647       -4.42315892523106       -1.37359079449659
C            5.75952249321728       -4.28344242066730       -1.33186481666544
C            6.33960512080593       -3.34856685311042       -0.49000218724467
C            5.54859005061648       -2.54835252956086        0.31504128074768
C            1.27192115477947        0.10820175388909        0.56894428653246
C            0.71485133591914        1.31839782066433        0.03161039254815
C           -0.65936992436426        1.58438612323617        0.07560832311591
C           -1.60343717178709        0.70419776128361        0.72225504891583
C           -2.93772902080036        0.95580221195488        0.72464179139569
C           -3.48104819104849        2.09398670435509        0.08405561348919
C           -4.95520388946065        2.38270370074314        0.15218408749211
C           -5.80535974214150        1.13702409954387        0.05629538231974
C           -6.99188217179900        1.02144143150707        0.76950097751506
C           -7.78930188736429       -0.09845556228711        0.63654439073582
C           -7.41808899292885       -1.12222191594156       -0.23013175846952
N           -8.22316508335328       -2.26015617189841       -0.36726230354429
C           -9.58182948187374       -2.26360210177547       -0.60963486280737
C          -10.44379855034231       -1.19699834550248       -0.82355712214424
C          -11.77247813566069       -1.48286714262708       -1.07449715944891
C          -12.23774691933924       -2.79477899803098       -1.12218280921044
C          -11.37922082846368       -3.86128968946036       -0.93488831855148
C          -10.04043061182078       -3.59955429166941       -0.68123418575279
C           -8.89227567960582       -4.43694147823512       -0.46476589487000
C           -8.71068090726384       -5.81120072958542       -0.40280055684080
C           -7.44316596628786       -6.30005355903479       -0.14978464219520
C           -6.36934967970299       -5.43698287150414        0.05490252628020
C           -6.52554507652317       -4.06494870881241       -0.00139812202558
C           -7.79163675217424       -3.56860165720796       -0.27911633480084
C           -6.23844783244531       -1.00468466163385       -0.96027136734764
C           -5.44353677579839        0.11368984656552       -0.81428426373806
C           -5.17277590432723        3.18572002657884        1.42387853487605
C           -4.91653180777637        2.81887312135275        2.72863982318014
C           -5.17008997170471        3.73635978463697        3.73813094958211
C           -5.65935327603868        5.00140653218343        3.44437076364009
C           -5.91016791575520        5.37786501038205        2.13530850418389
C           -5.66460767332311        4.46523396092421        1.12238104889408
C           -5.83661783514457        4.56991405054536       -0.31611076055951
C           -6.31050487844475        5.60824131250117       -1.10172470101056
C           -6.36936268753086        5.42886488189898       -2.47413209133844
C           -5.96527963230563        4.23507051183292       -3.05234233355135
C           -5.48986327926053        3.19054477539775       -2.27019503385782
C           -5.42444268244655        3.36591918927962       -0.90516886058097
C           -2.57857134141167        2.99826465607821       -0.51337632003481
C           -1.23955546313605        2.76334107914158       -0.52486589686163
C            1.66552227231662        2.24579836376336       -0.55826926538318
C            2.99333109967045        1.91634668605278       -0.60194714916030
H            9.18970431572629       -1.44656710063431       -0.28533034614906
H            9.35532721350089       -2.54914726071837        1.93599114328388
H            8.24267110343293       -1.52967105795808        3.88823493182923
H            6.99926539447166        0.57835220396633        3.64111346739340
H            6.81876008452204        1.65710202631333        1.42538467003703
H            5.72058728089215       -0.81061867052568       -1.94222902758197
H            5.48963716223124       -2.48032009538450       -3.73244393080435
H            7.39105917065685       -2.96294930373017       -5.22711334838582
H            9.52374008945065       -1.75479988107843       -4.94444485316057
H            9.73317860018595       -0.03856177204025       -3.15613716219132
H            7.71653894570730        3.50934438087071       -2.21963766416917
H            5.85290861677741        5.07986125472404       -2.61719343173381
H            3.54806882792995        4.47686894255474       -1.92502761975866
H            4.74827318300788       -3.29607257686545        3.05452471536344
H            5.83047353119618       -2.83736643389240        5.23645551492085
H            5.64560535256156       -0.59464436174689        6.24749545362864
H            4.39774256537532        1.18549225639250        5.08494191841788
H            3.32879677678919        0.72402741916140        2.90589107271501
H            2.51160831033008       -3.74199522150915       -0.55316310914589
H            3.92939008036329       -5.15235914900564       -2.03052199018356
H            6.38500507596269       -4.90518841283897       -1.95578399834314
H            7.41353067931886       -3.24364707588478       -0.45842213873487
H            5.99553832009697       -1.81561171565548        0.97015032809320
H            0.62409653740269       -0.62039429862023        1.03002036270602
H           -1.24482965350628       -0.17449419004003        1.23138010689898
H           -3.60855167553760        0.26862296187495        1.22103557330217
H           -7.28965455454164        1.80976636483799        1.44503738178363
H           -8.69479426123802       -0.19327549424466        1.21691303146981
H          -10.08847262496311       -0.17774560196318       -0.80728852243511
H          -12.46427926382320       -0.67058228889794       -1.24120561357492
H          -13.28376965258969       -2.97680195558877       -1.31832396455387
H          -11.73744352499341       -4.87812607678021       -0.98847983848392
H           -9.54557323966305       -6.48040259924469       -0.54535939195526
H           -7.28012418627882       -7.36617941611033       -0.09982334018203
H           -5.39357352375771       -5.84814729559484        0.26620977000710
H           -5.69077001416474       -3.40430452430938        0.17658092957512
H           -5.95968408775790       -1.78501233170104       -1.65250842596322
H           -4.52747078148661        0.19456521244730       -1.38124534993129
H           -4.53148455239386        1.83822111557684        2.96460291433040
H           -4.98263265572298        3.46214681593762        4.76574395219327
H           -5.84462406935222        5.70009326228212        4.24700631651711
H           -6.28892161887432        6.36335152795728        1.90855631915341
H           -6.62709963877784        6.53837663744085       -0.65392888735968
H           -6.73517154423054        6.22775384359035       -3.10251217451319
H           -6.02066334369519        4.11510711452148       -4.12424328599253
H           -5.17673775572182        2.26325226974888       -2.72650984798333
H           -2.96829880917062        3.89210790130292       -0.97943712390978
H           -0.59898164554994        3.47953972441326       -1.01124364431426
H            1.34267488569914        3.19061280270103       -0.95736176946593

 projected vibrational frequencies (cm⁻¹)
eigval :       -0.00    -0.00    -0.00     0.00     0.00     0.00
eigval :        2.45     5.26     8.93    12.56    17.43    21.16
eigval :       23.08    26.83    27.37    28.14    31.07    33.97
eigval :       35.82    40.31    46.32    49.66    52.99    54.85
eigval :       57.44    59.78    71.24    76.17    80.42    82.79
eigval :       89.18    95.03    98.55   101.36   105.71   107.53
eigval :      125.71   131.71   135.54   144.49   150.16   150.65
eigval :      158.57   164.95   172.91   176.29   185.12   195.05
eigval :      202.18   206.42   218.60   227.98   237.15   238.59
eigval :      238.85   242.13   252.33   255.07   259.53   270.47
eigval :      271.19   274.10   280.28   280.93   283.68   315.37
eigval :      320.66   326.50   332.54   347.08   358.94   361.34
eigval :      361.50   366.68   369.10   370.52   384.40   387.84
eigval :      389.72   394.56   403.97   406.16   413.57   415.26
eigval :      415.84   424.02   430.25   435.79   439.02   448.79
eigval :      455.82   466.12   472.66   477.60   485.65   495.01
eigval :      502.93   508.28   514.66   517.23   517.90   523.95
eigval :      536.30   537.31   539.52   543.55   564.68   568.13
eigval :      579.82   584.15   585.91   586.06   586.60   586.79
eigval :      587.22   593.85   595.17   598.84   615.40   622.51
eigval :      625.42   641.79   652.23   657.14   657.80   658.57
eigval :      661.19   670.81   673.48   674.22   680.24   689.39
eigval :      691.46   691.98   708.73   711.27   719.47   720.01
eigval :      722.76   728.25   730.37   740.15   741.85   742.91
eigval :      744.58   753.87   756.77   760.20   766.67   769.74
eigval :      777.86   780.08   783.87   784.16   796.05   818.51
eigval :      821.85   832.83   841.37   867.24   872.98   875.53
eigval :      876.59   877.28   878.08   880.11   881.30   882.07
eigval :      889.58   891.03   891.66   898.45   898.53   900.29
eigval :      900.83   901.26   903.41   904.17   904.31   905.11
eigval :      908.18   910.09   911.86   913.73   914.44   919.97
eigval :      921.93   925.13   925.16   926.85   927.12   927.46
eigval :      928.68   929.48   933.18   934.37   934.95   935.97
eigval :      936.46   953.06   964.80   972.64   973.23   975.52
eigval :      976.30   977.26  1002.65  1011.85  1022.52  1042.82
eigval :     1069.57  1073.05  1075.21  1078.06  1078.42  1078.51
eigval :     1079.22  1080.77  1083.74  1096.09  1103.47  1112.56
eigval :     1113.52  1114.99  1115.39  1117.41  1122.86  1124.84
eigval :     1130.40  1131.69  1138.62  1142.68  1146.23  1149.45
eigval :     1159.98  1170.84  1172.72  1176.06  1176.87  1179.39
eigval :     1179.51  1180.09  1180.86  1181.64  1181.72  1183.13
eigval :     1189.16  1190.43  1192.69  1193.07  1193.55  1198.55
eigval :     1202.82  1208.41  1217.38  1223.27  1230.10  1234.42
eigval :     1238.68  1243.90  1248.61  1249.10  1255.56  1256.39
eigval :     1265.68  1268.48  1270.36  1271.01  1271.69  1273.35
eigval :     1275.23  1285.66  1296.87  1297.47  1309.48  1317.68
eigval :     1319.88  1321.09  1323.15  1323.90  1325.22  1327.72
eigval :     1344.89  1354.14  1356.02  1357.68  1363.73  1364.50
eigval :     1365.95  1381.20  1390.93  1407.26  1421.01  1421.38
eigval :     1423.49  1424.54  1425.49  1427.18  1427.58  1428.03
eigval :     1452.83  1453.79  1454.00  1456.63  1457.22  1457.47
eigval :     1459.51  1469.68  1470.00  1484.08  1485.88  1488.23
eigval :     1489.89  1508.64  1555.05  1563.74  1571.94  1574.72
eigval :     1579.00  1582.27  1583.45  1585.56  1585.61  1585.79
eigval :     1585.93  1586.13  1586.50  1588.33  1588.54  1590.28
eigval :     1591.43  1593.32  1595.75  1600.43  1610.74  3049.95
eigval :     3058.39  3061.24  3066.30  3068.95  3071.31  3072.44
eigval :     3072.86  3075.22  3076.00  3076.25  3076.83  3076.97
eigval :     3077.66  3079.14  3079.19  3079.28  3080.84  3081.14
eigval :     3082.49  3083.17  3083.53  3083.89  3084.82  3084.96
eigval :     3085.92  3087.08  3087.80  3088.89  3089.80  3090.32
eigval :     3090.33  3091.01  3091.45  3092.94  3093.95  3094.39
eigval :     3095.63  3096.16  3097.57  3097.69  3099.13  3099.63
eigval :     3099.95  3100.17  3111.83  3114.44  3118.19  3131.90

   temp. (K)  partition function   enthalpy   heat capacity  entropy
                                   cal/mol     cal/K/mol   cal/K/mol   J/K/mol
 298.15  VIB  0.239E+34            39577.424    241.710    251.491
         ROT  0.429E+09              888.752      2.981     42.481
         INT  0.103E+43            40466.176    244.691    293.972
         TR   0.329E+29             1481.254      4.968     46.706
         TOT                       41947.4300   249.6595   340.6777  1425.3954

       T/K    H(0)-H(T)+PV         H(T)/Eh          T*S/Eh         G(T)/Eh
   ------------------------------------------------------------------------
    298.15    0.668475E-01    0.103579E+01    0.161867E+00    0.873922E+00
   ------------------------------------------------------------------------

         :::::::::::::::::::::::::::::::::::::::::::::::::::::
         ::                  THERMODYNAMIC                  ::
         :::::::::::::::::::::::::::::::::::::::::::::::::::::
         :: total free energy        -200.652816781690 Eh   ::
         ::.................................................::
         :: total energy             -201.526739194239 Eh   ::
         :: zero point energy           0.968941880416 Eh   ::
         :: G(RRHO) w/o ZPVE           -0.095019467866 Eh   ::
         :: G(RRHO) contrib.            0.873922412550 Eh   ::
         :::::::::::::::::::::::::::::::::::::::::::::::::::::

           -------------------------------------------------
          | TOTAL ENERGY             -201.526739194239 Eh   |
          | TOTAL ENTHALPY           -200.490949829120 Eh   |
          | TOTAL FREE ENERGY        -200.652816781690 Eh   |
          | GRADIENT NORM               0.000092391559 Eh/α |
           -------------------------------------------------

 * finished run on 2025/07/17 at 15:54:23.958
