   * xtb version 6.7.1 (edcfbbe) compiled by 'albert@albert-system' on 2024-07-22

   ID    Z sym.   atoms
    1    8 O      1, 21, 25
    2   15 P      2, 24
    3    6 C      3-20, 22, 23, 26-48, 50-79
    4    7 N      49
    5    1 H      80-128

          program call               : xtb data2507/gas/9ArFDBFxPO/9ArFDBFxPO_gas_S0_finalOpt.xtbopt.xyz --gfn 2 --spinpol --tblite --uhf 2 --ohess vtight --parallel 40 --molden --ceasefiles --namespace data2507/gas/9ArFDBFxPO/9ArFDBFxPO_gas_T1_preOpt
 * total energy  :  -201.5179838 Eh     change        0.6990945E-08 Eh
 * total energy  :  -201.5195415 Eh     change       -0.1557711E-02 Eh
 * total energy  :  -201.5199374 Eh     change       -0.3959234E-03 Eh
 * total energy  :  -201.5200150 Eh     change       -0.7752929E-04 Eh
 * total energy  :  -201.5201000 Eh     change       -0.8504552E-04 Eh
 * total energy  :  -201.5201518 Eh     change       -0.5176303E-04 Eh
 * total energy  :  -201.5201955 Eh     change       -0.4376322E-04 Eh
 * total energy  :  -201.5202244 Eh     change       -0.2885124E-04 Eh
 * total energy  :  -201.5202402 Eh     change       -0.1581418E-04 Eh
 * total energy  :  -201.5202535 Eh     change       -0.1330396E-04 Eh
 * total energy  :  -201.5203869 Eh     change       -0.5036112E-06 Eh
 * total energy  :  -201.5203873 Eh     change       -0.3695098E-06 Eh
 * total energy  :  -201.5203876 Eh     change       -0.3294840E-06 Eh
 * total energy  :  -201.5203881 Eh     change       -0.5258395E-06 Eh
 * total energy  :  -201.5203887 Eh     change       -0.5421263E-06 Eh
 * total energy  :  -201.5203891 Eh     change       -0.3852900E-06 Eh
 * total energy  :  -201.5203896 Eh     change       -0.4877642E-06 Eh
 * total energy  :  -201.5203898 Eh     change       -0.2840135E-06 Eh
 * total energy  :  -201.5203899 Eh     change       -0.7082863E-07 Eh
   *** GEOMETRY OPTIMIZATION CONVERGED AFTER 68 ITERATIONS ***

 final structure:
================
128
 xtb: 6.7.1 (edcfbbe)
O            6.81430033119959       -2.51493268014967        0.63612097987621
P            7.27183977137735       -1.24900221966717        1.21997925117698
C            7.77150281939343        0.00137737954603       -0.00124985847073
C            8.18755530097884       -0.46734451247143       -1.23824751115148
C            8.65131059041495        0.41799871689817       -2.19396393653651
C            8.71726415011008        1.77081748123304       -1.90436860905256
C            8.29335102266750        2.24106664484290       -0.67080042435013
C            7.81175412945338        1.36016221864954        0.28043182931828
C            8.72996343551984       -1.45092665177869        2.29271250534095
C            9.12838128310244       -2.75110010595000        2.56625409150020
C           10.22570024041124       -2.98581717698966        3.37558093376901
C           10.92721572849282       -1.91793859011043        3.91018083748783
C           10.53396368044839       -0.61760660484794        3.63280187324079
C            9.43775695864936       -0.38054845225739        2.82412111209013
C            6.01715559451946       -0.44438569294323        2.26145225501679
C            6.09285160610822       -0.26352230150680        3.64145649922160
C            5.01088328802544        0.23678943323381        4.35860817483835
C            3.81267609056312        0.54963528628426        3.74439813904290
C            3.70851896743812        0.36822318912637        2.36528210239381
C            4.82305185748676       -0.11011063940214        1.64853069855261
O            4.56293609718384       -0.21523680922647        0.32023785663571
C            3.26517746658141        0.15031331562132        0.15886662242577
C            2.53381844174974        0.14078156745729       -1.01857945286256
P            3.16498143210683       -0.31459494852276       -2.66097190722276
O            2.08456044098250       -0.71685876305230       -3.57319344763314
C            4.39707193913868       -1.62642161084381       -2.40517337369631
C            4.09014231158442       -2.66544154070385       -1.53901071667083
C            4.95072599758809       -3.73991945580913       -1.42163915488187
C            6.10668506314658       -3.78381372081234       -2.18301849160321
C            6.40420506467958       -2.75360676150475       -3.05907554215142
C            5.55063295638604       -1.67013156303461       -3.17112046472828
C            4.05148046009046        1.16952063679773       -3.22370232046943
C            5.08103202151054        1.74597161978933       -2.49111712194459
C            5.66424029578519        2.91453986876031       -2.94406512857060
C            5.23322989839122        3.50000665159826       -4.12496317968990
C            4.21154936343697        2.91983291422725       -4.85864104981264
C            3.61596890342197        1.75777061904574       -4.40279025138466
C            1.19651969885987        0.51664608394565       -0.94191583732279
C            0.58951544694129        0.89839301942975        0.25821189921692
C           -0.83497464773731        1.24814263734312        0.28284177361020
C           -1.74776766194927        0.56400407748363       -0.52054403619930
C           -3.09260871080039        0.86537604791549       -0.47521575674860
C           -3.57237056078165        1.85686123772982        0.37616389916361
C           -5.04297062123297        2.20384945454017        0.38555856812702
C           -5.93221815762843        0.99526539909920        0.25374830851578
C           -5.59341138890981       -0.20607200425524        0.89606253800883
C           -6.41507376495558       -1.30017792967182        0.83466519504958
C           -7.64156331207202       -1.23172840246012        0.14305670601335
N           -8.46867855266338       -2.33314914483415        0.07084505260842
C           -9.84363614231047       -2.32602506851785        0.24053343316690
C          -10.67963980545862       -1.28219316549964        0.59112601956184
C          -12.04099179983450       -1.55387347100968        0.73300452506917
C          -12.53450022604521       -2.84237873605174        0.53867219646476
C          -11.69947685179844       -3.90246987645436        0.22351545077264
C          -10.33241800163496       -3.65841464395117        0.08502877461496
C           -9.20370835271683       -4.48459867644792       -0.17878371281506
C           -9.03892120036564       -5.84765080855057       -0.42786662729237
C           -7.76652881569096       -6.32333928151416       -0.70433597264052
C           -6.66245707500068       -5.47545090090584       -0.75260451045465
C           -6.79976591267544       -4.11025077141084       -0.49829701365519
C           -8.05889937450164       -3.63209416472667       -0.18581102124601
C           -8.00127583218825       -0.01613093583714       -0.47252491259471
C           -7.15998309244084        1.06539182700257       -0.41860568890200
C           -5.50789108326848        2.92073966403603        1.64204521843926
C           -5.52493237252058        2.45952000191583        2.94062354473300
C           -6.02281643156111        3.28900934139439        3.93573249867759
C           -6.51093650443217        4.55414433455619        3.62898253399881
C           -6.50627796747084        5.01931487214629        2.32667913928786
C           -6.00104901156303        4.20020652512081        1.32639798474994
C           -5.85597459509845        4.41565209668640       -0.09730017762563
C           -6.16502797467616        5.51235558439124       -0.89049618163683
C           -5.91267701933999        5.44128876796630       -2.24935529337645
C           -5.35797665407718        4.30049080239988       -2.81258461563689
C           -5.04395318781464        3.19903997835616       -2.02464683176233
C           -5.30041563649117        3.26081475184092       -0.67372524932046
C           -2.66373211508322        2.56094035856560        1.15719886287857
C           -1.31770557885766        2.25733604623806        1.11592566386567
C            1.33880810947652        0.91479093135879        1.43354970693500
C            2.67564575720128        0.53131938403662        1.38502119600502
H            8.12782046769100       -1.52826222892832       -1.43186836392687
H            8.96954122367117        0.05593865072198       -3.16055663679569
H            9.09392576625756        2.46255796373645       -2.64399956847220
H            8.33952116852735        3.29830157843112       -0.44905029339600
H            7.45837365454962        1.72472057165033        1.23578632298073
H            8.56394429609074       -3.56411957100248        2.13292193852213
H           10.53453333744092       -3.99852958515708        3.58985016855356
H           11.78430936383964       -2.09676686847979        4.54293020722431
H           11.08550290586892        0.21309163533543        4.04906004464495
H            9.13192962516869        0.63165442080143        2.60369652131448
H            7.00551894302363       -0.52460310964210        4.15664531244516
H            5.10978428541353        0.36772012390840        5.42631360520007
H            2.97318743013244        0.91716501957848        4.31377461758879
H            3.17558230643693       -2.62047595494043       -0.96159839053295
H            4.72540664519055       -4.54174188291632       -0.73494284084963
H            6.78004881436966       -4.62303849070535       -2.08944605236375
H            7.30320170425354       -2.79454672757378       -3.65875234523425
H            5.77421123312171       -0.85614420374418       -3.84868315909253
H            5.42266516387158        1.27528265100040       -1.58049739833910
H            6.45810143988919        3.37324303979340       -2.37427799206913
H            5.69604119403898        4.41259214055323       -4.47224781141317
H            3.87828655786562        3.37575315200734       -5.77968845722903
H            2.81118088342213        1.28503632901269       -4.94733231038062
H            0.63056353350010        0.50762258207664       -1.86157913700922
H           -1.39959148241034       -0.22617553613091       -1.16828889159063
H           -3.78374964732349        0.31631359130804       -1.09896036676097
H           -4.66603751342664       -0.26733178284815        1.44614177681466
H           -6.16127403505980       -2.20549248457660        1.36480400981439
H          -10.29926388814838       -0.28915685763771        0.77432151618466
H          -12.71416789773385       -0.75643247638450        1.00381476519444
H          -13.59413003030954       -3.01934534387334        0.65161723318479
H          -12.09222458386108       -4.89863375027080        0.09369180504874
H           -9.88824233646933       -6.51237171984841       -0.41177848518674
H           -7.62703107166798       -7.37602642814855       -0.90219444406330
H           -5.69041373149283       -5.87262558790438       -0.99669187608124
H           -5.94583043863121       -3.45454374990534       -0.56850113063126
H           -8.91520520077625        0.03204091437602       -1.04462306139105
H           -7.43618708655386        1.98045885734474       -0.92058872775360
H           -5.15091114870360        1.47644008156682        3.18609009359924
H           -6.03201005847767        2.94728480266640        4.96008226626431
H           -6.89910002267803        5.17910769265273        4.41998528548565
H           -6.88835678744346        6.00136085440305        2.09070854597684
H           -6.59284518139972        6.40291542269361       -0.45483378070684
H           -6.14745814423125        6.28539509528681       -2.88140969203663
H           -5.16570469587553        4.26763476146008       -3.87457194389164
H           -4.60809789845864        2.31616138935838       -2.46801872306315
H           -3.01599316313508        3.35045550803559        1.80519959617143
H           -0.62678969447605        2.82407341193521        1.72238308516957
H            0.88491135956028        1.17538194660236        2.37681598608022

 projected vibrational frequencies (cm⁻¹)
eigval :       -0.00    -0.00     0.00     0.00     0.00     0.00
eigval :        4.88     6.03    10.23    12.87    14.59    16.89
eigval :       19.25    24.68    25.70    27.98    29.71    30.61
eigval :       35.81    38.11    43.98    47.08    49.52    54.08
eigval :       61.45    66.00    66.23    72.04    75.76    83.51
eigval :       86.34    90.01    94.57    97.43   101.03   105.91
eigval :      127.27   134.55   141.88   144.48   151.55   155.70
eigval :      157.68   165.87   173.40   177.98   191.20   192.52
eigval :      196.43   210.39   216.79   228.61   231.31   234.69
eigval :      237.60   245.52   251.70   258.32   260.39   268.35
eigval :      270.80   277.66   285.68   292.35   303.69   308.14
eigval :      327.30   341.22   348.16   362.69   364.10   364.63
eigval :      366.07   367.26   371.82   375.53   377.53   383.51
eigval :      384.11   391.41   394.10   404.90   411.73   412.21
eigval :      412.55   419.51   433.94   434.24   444.50   455.43
eigval :      460.28   465.82   469.18   473.63   482.31   493.54
eigval :      498.47   499.24   506.15   508.75   514.01   524.73
eigval :      530.81   540.37   547.32   548.28   566.00   569.26
eigval :      579.77   584.72   585.53   585.96   586.42   587.11
eigval :      590.64   595.22   600.12   606.54   612.65   621.49
eigval :      634.32   648.03   655.87   656.66   658.52   660.26
eigval :      661.02   671.31   671.72   678.99   679.68   682.28
eigval :      688.49   696.53   700.64   706.23   713.79   715.83
eigval :      720.51   722.56   739.93   740.37   742.54   742.81
eigval :      743.83   744.77   747.83   748.93   761.11   777.92
eigval :      784.34   790.77   804.33   810.60   815.88   826.52
eigval :      827.41   833.00   841.17   856.02   858.66   864.82
eigval :      866.77   868.03   870.34   872.86   874.86   875.82
eigval :      877.72   881.05   881.09   881.73   886.26   889.94
eigval :      897.18   897.69   899.15   899.90   901.94   902.97
eigval :      904.74   904.78   905.01   905.58   910.30   911.43
eigval :      919.09   920.65   921.98   923.76   924.79   925.31
eigval :      926.82   928.15   928.18   928.79   932.28   933.82
eigval :      933.95   934.00   937.54   972.09   974.00   975.81
eigval :      976.66   995.82   999.92  1001.29  1012.31  1046.25
eigval :     1058.20  1060.47  1072.10  1072.52  1074.62  1076.30
eigval :     1077.62  1078.88  1079.26  1089.07  1097.32  1100.33
eigval :     1110.81  1112.03  1114.56  1116.74  1118.31  1122.49
eigval :     1125.58  1127.77  1130.93  1135.85  1139.92  1142.45
eigval :     1145.02  1149.24  1162.27  1169.13  1172.64  1177.34
eigval :     1179.81  1180.42  1180.66  1181.44  1181.98  1183.84
eigval :     1188.27  1189.50  1189.62  1191.51  1192.28  1194.42
eigval :     1197.44  1199.76  1212.57  1215.88  1221.56  1222.26
eigval :     1228.95  1233.95  1237.98  1243.07  1249.63  1251.09
eigval :     1259.49  1260.00  1264.38  1266.21  1267.86  1268.99
eigval :     1270.42  1273.01  1274.13  1274.94  1280.70  1305.00
eigval :     1317.78  1322.85  1323.79  1324.12  1325.74  1328.15
eigval :     1328.58  1330.82  1341.37  1355.46  1357.01  1367.99
eigval :     1375.22  1378.96  1384.51  1386.03  1403.42  1413.08
eigval :     1416.97  1421.36  1424.63  1425.40  1426.97  1428.16
eigval :     1428.77  1436.28  1439.73  1449.54  1452.39  1454.02
eigval :     1454.60  1455.83  1458.08  1458.50  1460.20  1467.80
eigval :     1475.10  1479.27  1493.81  1513.83  1524.22  1537.69
eigval :     1538.06  1544.77  1553.98  1556.52  1559.36  1575.80
eigval :     1578.62  1581.15  1583.23  1583.68  1584.83  1586.97
eigval :     1587.41  1588.50  1590.40  1590.48  1594.23  3049.70
eigval :     3050.21  3055.58  3065.96  3068.85  3071.21  3071.78
eigval :     3071.94  3073.91  3074.67  3075.94  3076.38  3076.56
eigval :     3077.30  3078.39  3078.41  3079.84  3080.84  3081.28
eigval :     3081.41  3081.55  3081.90  3082.48  3085.16  3085.39
eigval :     3085.53  3086.29  3086.36  3086.42  3087.72  3087.79
eigval :     3089.07  3090.07  3091.10  3091.24  3091.30  3093.01
eigval :     3094.52  3094.61  3094.92  3095.46  3095.73  3096.70
eigval :     3096.81  3097.75  3098.37  3099.30  3106.57  3108.21

   temp. (K)  partition function   enthalpy   heat capacity  entropy
                                   cal/mol     cal/K/mol   cal/K/mol   J/K/mol
 298.15  VIB  0.267E+34            39630.972    241.992    251.314
         ROT  0.451E+09              888.752      2.981     42.580
         INT  0.121E+43            40519.725    244.973    293.894
         TR   0.329E+29             1481.254      4.968     46.706
         TOT                       42000.9786   249.9410   340.6005  1425.0727

       T/K    H(0)-H(T)+PV         H(T)/Eh          T*S/Eh         G(T)/Eh
   ------------------------------------------------------------------------
    298.15    0.669328E-01    0.103239E+01    0.161830E+00    0.870556E+00
   ------------------------------------------------------------------------

         :::::::::::::::::::::::::::::::::::::::::::::::::::::
         ::                  THERMODYNAMIC                  ::
         :::::::::::::::::::::::::::::::::::::::::::::::::::::
         :: total free energy        -200.649833959351 Eh   ::
         ::.................................................::
         :: total energy             -201.520389829151 Eh   ::
         :: zero point energy           0.965453361587 Eh   ::
         :: G(RRHO) w/o ZPVE           -0.094897491787 Eh   ::
         :: G(RRHO) contrib.            0.870555869800 Eh   ::
         :::::::::::::::::::::::::::::::::::::::::::::::::::::

           -------------------------------------------------
          | TOTAL ENERGY             -201.520389829151 Eh   |
          | TOTAL ENTHALPY           -200.488003647713 Eh   |
          | TOTAL FREE ENERGY        -200.649833959351 Eh   |
          | GRADIENT NORM               0.000071377545 Eh/α |
           -------------------------------------------------

 * finished run on 2025/07/17 at 15:18:15.959
