   * xtb version 6.7.1 (edcfbbe) compiled by 'albert@albert-system' on 2024-07-22

   ID    Z sym.   atoms
    1    8 O      1, 21, 25
    2   15 P      2, 24
    3    6 C      3-20, 22, 23, 26-48, 50-79
    4    7 N      49
    5    1 H      80-128

          program call               : xtb data2507/gas/9ArFDBFxPO/9ArFDBFxPO.xyz --gfn 2 --ohess vtight --parallel 40 --molden --ceasefiles --namespace data2507/gas/9ArFDBFxPO/9ArFDBFxPO_gas_S0_preOpt
          :  Hamiltonian                  GFN2-xTB          :
 * total energy  :  -201.5862529 Eh     change       -0.3885646E-08 Eh
 * total energy  :  -201.6122803 Eh     change       -0.2602748E-01 Eh
 * total energy  :  -201.6206041 Eh     change       -0.8323782E-02 Eh
 * total energy  :  -201.6228917 Eh     change       -0.2287589E-02 Eh
 * total energy  :  -201.6248703 Eh     change       -0.1978578E-02 Eh
 * total energy  :  -201.6258752 Eh     change       -0.1004879E-02 Eh
 * total energy  :  -201.6265101 Eh     change       -0.6349247E-03 Eh
 * total energy  :  -201.6269620 Eh     change       -0.4518751E-03 Eh
 * total energy  :  -201.6272670 Eh     change       -0.3050674E-03 Eh
 * total energy  :  -201.6275223 Eh     change       -0.2553062E-03 Eh
 * total energy  :  -201.6298631 Eh     change       -0.1007185E-05 Eh
 * total energy  :  -201.6298642 Eh     change       -0.1100309E-05 Eh
 * total energy  :  -201.6298651 Eh     change       -0.9520761E-06 Eh
 * total energy  :  -201.6298660 Eh     change       -0.8450237E-06 Eh
 * total energy  :  -201.6298668 Eh     change       -0.7883979E-06 Eh
 * total energy  :  -201.6298675 Eh     change       -0.7302614E-06 Eh
 * total energy  :  -201.6298681 Eh     change       -0.6165481E-06 Eh
 * total energy  :  -201.6298687 Eh     change       -0.5912716E-06 Eh
 * total energy  :  -201.6298687 Eh     change       -0.4436941E-08 Eh
   *** GEOMETRY OPTIMIZATION CONVERGED AFTER 152 ITERATIONS ***

 final structure:
================
128
 xtb: 6.7.1 (edcfbbe)
O            7.63893467609796        0.63386550252595       -0.52408665718542
P            7.71726701295792       -0.12490684867100        0.72968878957904
C            9.23155825817215        0.21325226532007        1.67946682079372
C            9.69043383696963       -0.64185498735141        2.67357856588329
C           10.84830724758308       -0.33099305100316        3.36265017622729
C           11.54797131900080        0.82735034301731        3.06025664943762
C           11.09422579907533        1.67638143104186        2.06418988164627
C            9.93562741604392        1.36826024882291        1.37343415241458
C            7.74206263047320       -1.93535033122163        0.52196067720609
C            8.75945261164531       -2.43334895549559       -0.28159663002176
C            8.91069679261177       -3.79716586495304       -0.44244936769878
C            8.03769464788075       -4.66558661392948        0.19512511904309
C            7.01182143748355       -4.16891549993064        0.98126306518681
C            6.86406463439035       -2.80279122166526        1.15140376640612
C            6.35039577331272        0.21722964821453        1.88774282081110
C            6.47688977343610        0.39332621520872        3.25906070305931
C            5.37456252764939        0.68479342559207        4.05650135767383
C            4.10807315316081        0.82116891729400        3.51846429157740
C            3.95328323453049        0.65767598735033        2.14844758006987
C            5.07709274009489        0.35205034466545        1.35403567006341
O            4.75304462310719        0.22016358745930        0.04895807180192
C            3.41976385329456        0.46005239713297       -0.03722799052251
C            2.65083003261679        0.45242093432864       -1.18914702411991
P            3.31777315479925        0.14356183008786       -2.85624780987087
O            2.25473827109379       -0.19121913503063       -3.81332757840560
C            4.51942836599650       -1.20462651943209       -2.61694634154102
C            5.77401016848033       -1.19663150763510       -3.20410504225488
C            6.59258618129082       -2.30577223001528       -3.08358986949580
C            6.15580006891927       -3.42024625255429       -2.38864768054050
C            4.90415801988230       -3.42511684675039       -1.79495476025286
C            4.08472796260554       -2.31868219501000       -1.91232470981810
C            4.24258793948557        1.64733421094524       -3.27929482104278
C            3.74177092842101        2.41644969032476       -4.32083719517245
C            4.38321997386566        3.58613052500171       -4.68666888239084
C            5.52392857150995        3.98531215499426       -4.00898550362118
C            6.02262331461916        3.21568875264176       -2.96919425965096
C            5.38555715350760        2.04591279484292       -2.59660615816671
C            1.29888140398392        0.71509778748862       -1.05227439357965
C            0.70727749392452        0.98133120891680        0.18849716770489
C           -0.73514082058628        1.25447345143363        0.26989709883377
C           -1.63954179862089        0.55566211805562       -0.52653529163334
C           -2.99321194455210        0.81530402833660       -0.45209160950924
C           -3.48675240688754        1.77615389992070        0.42379497285523
C           -4.96398577476001        2.10931019088687        0.44260684068462
C           -5.84448251001932        0.89122025656092        0.25834724594939
C           -7.03483690531726        0.97209628775759       -0.45292321084859
C           -7.86123047198018       -0.12809714044447       -0.57671049529358
C           -7.51907290077420       -1.33229484362178        0.02960367639630
N           -8.35347246204341       -2.45140396252490       -0.09489935186552
C           -7.95804985333838       -3.71214023649972       -0.49511269642611
C           -6.70721782675943       -4.16141778270958       -0.89378667767000
C           -6.58863162824892       -5.48358596589586       -1.27666663064959
C           -7.68489979845815       -6.34336072168111       -1.27362210384599
C           -8.93627635156358       -5.89650255831837       -0.89966399347567
C           -9.08094983376338       -4.57125380692334       -0.51075680480211
C          -10.20463830331321       -3.78128482793289       -0.09219409466433
C          -11.55042633048185       -4.06218775639743        0.10356017257962
C          -12.38004568643677       -3.05061290600187        0.54394232039108
C          -11.88043670691225       -1.77602390262872        0.80276722963200
C          -10.54578949945633       -1.47192897108698        0.61562351101452
C           -9.71153966151190       -2.47844879770036        0.15042516188685
C           -6.33846805924775       -1.41376126474026        0.76180879050921
C           -5.51294243773010       -0.31256020089477        0.87113489285383
C           -5.41036898166553        2.81352174739758        1.71039612347280
C           -5.44446833054874        2.32586915490209        2.99905679118118
C           -5.91169758405149        3.15299898619323        4.01171265218282
C           -6.34067025316540        4.44212029078141        3.73514173954640
C           -6.31465893614567        4.93539550772300        2.44070061497354
C           -5.84865826949305        4.11476581795054        1.42689990425305
C           -5.70556294990979        4.35151171688361       -0.00045328410263
C           -5.97993770526801        5.47216157993651       -0.76683746194850
C           -5.73951955630886        5.41867255631526       -2.13022921037928
C           -5.23201809845466        4.26936042325949       -2.71687129925410
C           -4.95454915786056        3.14347230538506       -1.95332574357066
C           -5.19908104207960        3.18881901418823       -0.59763462273312
C           -2.58648891800571        2.48390287496749        1.20956227447826
C           -1.23181966054534        2.22333395540018        1.13781173502917
C            1.49365311908726        0.98925115869950        1.33561477873984
C            2.85204301708573        0.72881331588860        1.22324553828763
H            9.14408920946710       -1.54831977425209        2.89597556576638
H           11.20936940873470       -0.99336437759619        4.13600078585268
H           12.45252468885707        1.06461906472483        3.60072056317840
H           11.64434076584746        2.57500640470409        1.82666027274076
H            9.56358920452694        2.00692636939378        0.58511297161941
H            9.42521748734652       -1.73430556596608       -0.76993031260951
H            9.70747344310351       -4.18614661553435       -1.05963820565603
H            8.15600626995460       -5.73286708459935        0.07608483068733
H            6.32942122013395       -4.84813110169276        1.47139307325439
H            6.07279341883491       -2.41213191517444        1.77619352327507
H            7.45288100191496        0.30667655932188        3.71292406975278
H            5.51806635832203        0.81203117148804        5.11909287981518
H            3.25956798991562        1.05283607301117        4.14358328221624
H            6.10579765863853       -0.32747196510167       -3.75353215044889
H            7.57183736375722       -2.30369478232314       -3.53928625902272
H            6.79050526623714       -4.29038630338253       -2.31061653951246
H            4.56785246965334       -4.29525066286556       -1.24932453648493
H            3.09633297356933       -2.30954068339124       -1.46977552825825
H            2.85515330743204        2.07582858138838       -4.83648608797913
H            3.99714347136207        4.18465309643837       -5.49915853605661
H            6.02828690410287        4.89739683648194       -4.29462101672697
H            6.91615317907930        3.52269404545736       -2.44608301305905
H            5.78565450193752        1.44149533950027       -1.79746315834575
H            0.70129305299057        0.71925967923462       -1.95241693838909
H           -1.27951667927723       -0.20837538877642       -1.19919176578186
H           -3.67632851054708        0.25758928970004       -1.07632193980860
H           -7.31514357343583        1.90149641468680       -0.92607347614888
H           -8.77014234314117       -0.06202737690208       -1.15570168757659
H           -5.85512575977393       -3.49881884819672       -0.91621223305763
H           -5.62485291388004       -5.85790039225987       -1.58921836153043
H           -7.55037860796846       -7.37075358827422       -1.57791528699837
H           -9.78916888406944       -6.55835486856920       -0.91219139572653
H          -11.93422212517858       -5.05406590235167       -0.08223440158186
H          -13.43036133818583       -3.24726048663591        0.70019544688355
H          -12.55104293077024       -1.00882960162513        1.16120790253805
H          -10.16455418306483       -0.48597633434407        0.83565911089393
H           -6.07938988744452       -2.33935428138793        1.25400471606805
H           -4.59602599836814       -0.39173348732081        1.43680026122827
H           -5.11259473116160        1.32259031971641        3.22151363760202
H           -5.94158713524559        2.78685249272190        5.02747626460945
H           -6.70042559572113        5.06785063482795        4.53893082757975
H           -6.65133862834738        5.93897682999258        2.22735595816407
H           -6.37171534750170        6.36964304521973       -0.31170460612586
H           -5.94733267521788        6.28291698602260       -2.74410773237556
H           -5.04880920809370        4.24930097738578       -3.78100177998002
H           -4.55735034271579        2.25229894185704       -2.41581970407124
H           -2.94715057901696        3.24903839647065        1.88147981962803
H           -0.54814444602444        2.79902842604633        1.74447043210598
H            1.05407408456933        1.17512827738724        2.30363832320728

          :  Hamiltonian                  GFN2-xTB          :
         :: gradient norm              0.000049263827 Eh/a0 ::
         :: HOMO-LUMO gap              2.362102604027 eV    ::
         :: SCC energy              -205.323005642764 Eh    ::
         :: -> dispersion             -0.203313592192 Eh    ::
         :: repulsion energy           3.693136924616 Eh    ::

    * Orbital Energies and Occupations

         #    Occupation            Energy/Eh            Energy/eV
      -------------------------------------------------------------
         1        2.0000           -0.7463384             -20.3089
       ...           ...                  ...                  ...
       175        2.0000           -0.4042025             -10.9989
       176        2.0000           -0.4031726             -10.9709
       177        2.0000           -0.4015953             -10.9280
       178        2.0000           -0.4003879             -10.8951
       179        2.0000           -0.4002143             -10.8904
       180        2.0000           -0.3989532             -10.8561
       181        2.0000           -0.3969368             -10.8012
       182        2.0000           -0.3938470             -10.7171
       183        2.0000           -0.3910802             -10.6418
       184        2.0000           -0.3842070             -10.4548
       185        2.0000           -0.3797764             -10.3342
       186        2.0000           -0.3736473             -10.1675
       187        2.0000           -0.3573947              -9.7252 (HOMO)
       188                         -0.2705890              -7.3631 (LUMO)
       189                         -0.2597431              -7.0680
       190                         -0.2546554              -6.9295
       191                         -0.2532176              -6.8904
       192                         -0.2473566              -6.7309
       193                         -0.2417747              -6.5790
       194                         -0.2410025              -6.5580
       195                         -0.2389101              -6.5011
       196                         -0.2383684              -6.4863
       197                         -0.2348701              -6.3911
       198                         -0.2336619              -6.3583
       ...                                ...                  ...
       375                          1.2234087              33.2906
      -------------------------------------------------------------
                  HL-Gap            0.0868056 Eh            2.3621 eV

     #   Z          covCN         q      C6AA      α(0)
     1   8 O        0.808    -0.355    20.826     6.117
     2  15 P        4.063     0.099   155.884    22.428
     3   6 C        2.921     0.007    27.872     8.658
     4   6 C        2.979    -0.026    28.649     8.780
     5   6 C        2.920    -0.028    28.692     8.784
     6   6 C        2.921    -0.025    28.616     8.772
     7   6 C        2.919    -0.026    28.663     8.779
     8   6 C        3.022    -0.020    28.474     8.753
     9   6 C        2.921     0.012    27.752     8.639
    10   6 C        3.042    -0.018    28.415     8.743
    11   6 C        2.919    -0.025    28.632     8.775
    12   6 C        2.921    -0.024    28.604     8.770
    13   6 C        2.920    -0.026    28.644     8.777
    14   6 C        2.968    -0.022    28.558     8.766
    15   6 C        2.907    -0.015    28.396     8.738
    16   6 C        2.965    -0.031    28.779     8.799
    17   6 C        2.920    -0.038    28.950     8.823
    18   6 C        2.913    -0.030    28.760     8.794
    19   6 C        3.058    -0.021    28.483     8.752
    20   6 C        3.220     0.139    24.323     8.019
    21   8 O        1.716    -0.190    17.182     5.597
    22   6 C        3.171     0.129    24.824     8.139
    23   6 C        2.907    -0.013    28.334     8.728
    24  15 P        4.069     0.080   156.714    22.488
    25   8 O        0.808    -0.359    20.895     6.128
    26   6 C        2.922     0.023    27.492     8.598
    27   6 C        2.979    -0.014    28.367     8.737
    28   6 C        2.921    -0.023    28.572     8.766
    29   6 C        2.921    -0.026    28.651     8.778
    30   6 C        2.920    -0.027    28.686     8.783
    31   6 C        3.026    -0.017    28.410     8.743
    32   6 C        2.922     0.013    27.721     8.634
    33   6 C        3.032    -0.022    28.522     8.760
    34   6 C        2.919    -0.029    28.728     8.789
    35   6 C        2.920    -0.026    28.647     8.777
    36   6 C        2.921    -0.025    28.636     8.775
    37   6 C        2.976    -0.027    28.674     8.784
    38   6 C        3.022    -0.030    28.724     8.791
    39   6 C        2.975     0.005    27.904     8.665
    40   6 C        2.977     0.008    27.831     8.654
    41   6 C        2.924    -0.034    28.852     8.809
    42   6 C        2.922    -0.034    28.836     8.806
    43   6 C        2.980     0.016    27.641     8.624
    44   6 C        3.947     0.008    20.382     6.415
    45   6 C        2.979     0.014    27.685     8.631
    46   6 C        2.923    -0.035    28.867     8.811
    47   6 C        2.922    -0.043    29.080     8.843
    48   6 C        2.913     0.062    26.614     8.459
    49   7 N        2.803    -0.044    22.092     6.981
    50   6 C        3.076     0.047    26.874     8.499
    51   6 C        2.910    -0.051    29.262     8.870
    52   6 C        2.924    -0.034    28.835     8.806
    53   6 C        2.920    -0.041    29.023     8.835
    54   6 C        2.912    -0.033    28.822     8.803
    55   6 C        3.068    -0.017    28.372     8.734
    56   6 C        3.068    -0.017    28.371     8.734
    57   6 C        2.912    -0.033    28.824     8.804
    58   6 C        2.920    -0.041    29.026     8.835
    59   6 C        2.924    -0.034    28.839     8.807
    60   6 C        2.910    -0.051    29.266     8.871
    61   6 C        3.076     0.047    26.875     8.499
    62   6 C        2.921    -0.044    29.091     8.845
    63   6 C        2.924    -0.033    28.831     8.805
    64   6 C        3.058     0.004    27.887     8.660
    65   6 C        2.914    -0.034    28.841     8.806
    66   6 C        2.922    -0.032    28.807     8.802
    67   6 C        2.921    -0.032    28.810     8.802
    68   6 C        2.915    -0.034    28.843     8.807
    69   6 C        3.035     0.001    27.962     8.673
    70   6 C        3.035     0.001    27.975     8.675
    71   6 C        2.915    -0.034    28.841     8.806
    72   6 C        2.921    -0.032    28.803     8.801
    73   6 C        2.923    -0.031    28.784     8.798
    74   6 C        2.914    -0.033    28.826     8.804
    75   6 C        3.059     0.004    27.885     8.660
    76   6 C        2.922    -0.036    28.891     8.815
    77   6 C        2.925    -0.035    28.862     8.810
    78   6 C        2.918    -0.037    28.931     8.820
    79   6 C        3.054    -0.023    28.513     8.757
    80   1 H        0.925     0.037     2.495     2.470
    81   1 H        0.926     0.037     2.489     2.467
    82   1 H        0.926     0.039     2.460     2.453
    83   1 H        0.926     0.041     2.438     2.442
    84   1 H        0.926     0.061     2.187     2.313
    85   1 H        0.925     0.048     2.339     2.392
    86   1 H        0.926     0.040     2.451     2.448
    87   1 H        0.926     0.039     2.460     2.453
    88   1 H        0.926     0.038     2.479     2.462
    89   1 H        0.925     0.033     2.548     2.496
    90   1 H        0.926     0.046     2.375     2.410
    91   1 H        0.926     0.043     2.413     2.429
    92   1 H        0.926     0.045     2.386     2.416
    93   1 H        0.926     0.047     2.359     2.402
    94   1 H        0.926     0.037     2.487     2.466
    95   1 H        0.926     0.031     2.574     2.509
    96   1 H        0.926     0.031     2.570     2.507
    97   1 H        0.925     0.037     2.491     2.468
    98   1 H        0.926     0.060     2.200     2.320
    99   1 H        0.926     0.035     2.518     2.482
   100   1 H        0.926     0.034     2.535     2.490
   101   1 H        0.926     0.041     2.438     2.442
   102   1 H        0.926     0.075     2.030     2.228
   103   1 H        0.926     0.072     2.060     2.244
   104   1 H        0.926     0.040     2.442     2.444
   105   1 H        0.926     0.034     2.532     2.488
   106   1 H        0.926     0.037     2.491     2.468
   107   1 H        0.926     0.041     2.432     2.439
   108   1 H        0.926     0.027     2.632     2.537
   109   1 H        0.926     0.029     2.604     2.524
   110   1 H        0.926     0.027     2.628     2.535
   111   1 H        0.926     0.030     2.587     2.515
   112   1 H        0.926     0.030     2.585     2.514
   113   1 H        0.926     0.027     2.631     2.536
   114   1 H        0.926     0.028     2.617     2.530
   115   1 H        0.926     0.026     2.638     2.540
   116   1 H        0.926     0.041     2.440     2.443
   117   1 H        0.926     0.036     2.502     2.474
   118   1 H        0.926     0.029     2.601     2.522
   119   1 H        0.926     0.030     2.580     2.512
   120   1 H        0.926     0.031     2.577     2.510
   121   1 H        0.926     0.032     2.561     2.502
   122   1 H        0.926     0.032     2.565     2.504
   123   1 H        0.926     0.031     2.568     2.506
   124   1 H        0.926     0.033     2.547     2.496
   125   1 H        0.926     0.032     2.561     2.503
   126   1 H        0.926     0.032     2.556     2.500
   127   1 H        0.926     0.032     2.563     2.504
   128   1 H        0.926     0.044     2.391     2.418

molecular dipole:
                 x           y           z       tot (Debye)
 q only:        1.436       0.201       2.148
   full:        1.764       0.209       2.618       8.042

 projected vibrational frequencies (cm⁻¹)
eigval :       -0.00    -0.00    -0.00    -0.00     0.00     0.00
eigval :        4.77     6.29     9.97    10.27    11.16    15.83
eigval :       18.44    20.08    25.48    28.66    29.41    32.88
eigval :       35.35    40.33    43.97    45.98    48.43    51.44
eigval :       54.21    62.51    64.50    67.98    70.35    79.45
eigval :       84.05    88.67    91.86    96.22   102.72   105.81
eigval :      129.75   135.59   142.18   145.56   154.91   156.43
eigval :      159.70   165.55   175.01   178.49   193.83   196.57
eigval :      198.10   214.84   223.32   232.10   232.91   235.66
eigval :      241.18   247.89   250.96   265.34   271.10   271.84
eigval :      273.41   278.23   278.90   295.79   304.10   313.16
eigval :      328.12   349.03   356.36   358.42   359.76   361.93
eigval :      365.27   369.31   377.06   385.35   387.94   389.16
eigval :      391.85   395.17   405.90   412.53   415.15   419.00
eigval :      420.21   425.15   436.00   438.19   452.59   457.13
eigval :      469.74   475.26   478.95   495.37   502.05   505.10
eigval :      507.64   515.48   519.22   522.41   530.33   534.61
eigval :      539.44   540.63   541.30   557.91   573.55   581.55
eigval :      585.59   585.86   586.41   586.60   588.36   594.63
eigval :      596.47   597.10   604.04   618.64   620.43   628.16
eigval :      637.55   657.73   658.10   659.68   661.35   672.83
eigval :      673.60   674.23   684.10   687.33   690.49   693.56
eigval :      699.73   708.34   711.77   715.51   717.97   726.01
eigval :      727.82   730.20   740.97   742.35   744.26   747.78
eigval :      754.73   757.44   768.11   769.66   780.88   785.07
eigval :      795.40   798.09   811.90   820.99   849.51   854.28
eigval :      865.61   867.54   873.67   875.25   876.20   877.41
eigval :      877.49   878.64   881.26   882.98   884.76   891.13
eigval :      892.43   896.95   899.55   900.76   900.95   902.11
eigval :      902.61   903.47   906.57   907.48   909.38   912.13
eigval :      912.39   917.93   919.94   921.39   921.86   924.06
eigval :      925.68   926.93   927.53   927.99   929.67   932.21
eigval :      933.62   933.97   934.86   935.20   936.70   937.78
eigval :      942.84   956.70   972.63   973.30   976.40   976.93
eigval :     1007.72  1012.19  1014.79  1026.94  1066.00  1070.17
eigval :     1073.76  1076.11  1076.60  1077.06  1078.26  1079.56
eigval :     1081.42  1088.08  1100.16  1108.34  1112.51  1114.59
eigval :     1114.95  1116.60  1118.43  1122.90  1125.82  1130.11
eigval :     1132.20  1140.53  1144.55  1147.49  1152.83  1168.14
eigval :     1175.50  1176.46  1177.34  1180.03  1180.29  1180.76
eigval :     1181.49  1182.43  1184.11  1185.34  1186.15  1190.00
eigval :     1190.68  1191.84  1192.75  1193.21  1204.02  1205.67
eigval :     1208.65  1225.27  1228.28  1235.29  1237.22  1239.63
eigval :     1242.44  1251.21  1255.28  1255.47  1261.80  1264.94
eigval :     1268.21  1270.84  1271.69  1272.51  1273.09  1277.68
eigval :     1285.81  1301.17  1305.15  1310.11  1315.29  1321.66
eigval :     1321.83  1322.16  1323.29  1324.75  1327.25  1338.54
eigval :     1353.08  1357.61  1362.62  1366.29  1369.89  1384.99
eigval :     1394.68  1403.46  1408.71  1423.71  1424.72  1426.18
eigval :     1428.34  1428.61  1429.08  1431.91  1433.73  1450.55
eigval :     1452.75  1453.79  1456.39  1458.46  1462.36  1472.69
eigval :     1474.50  1476.98  1488.91  1494.22  1499.67  1556.46
eigval :     1566.37  1570.74  1576.12  1581.75  1583.90  1584.62
eigval :     1585.21  1585.60  1586.26  1586.33  1587.69  1589.16
eigval :     1589.43  1589.46  1591.55  1594.68  1598.98  1599.50
eigval :     1599.69  1603.88  1604.62  1610.05  1615.64  3046.05
eigval :     3061.74  3063.72  3065.94  3070.28  3072.71  3073.93
eigval :     3074.73  3075.01  3075.06  3075.28  3075.72  3075.76
eigval :     3076.10  3076.76  3077.32  3078.86  3079.22  3080.16
eigval :     3080.56  3081.54  3081.98  3082.11  3082.60  3083.76
eigval :     3084.02  3085.14  3085.45  3085.52  3086.91  3087.53
eigval :     3088.85  3088.98  3089.19  3090.29  3090.43  3090.64
eigval :     3092.30  3092.99  3093.38  3093.54  3093.65  3094.20
eigval :     3094.44  3095.36  3096.08  3096.92  3100.06  3115.17

   temp. (K)  partition function   enthalpy   heat capacity  entropy
                                   cal/mol     cal/K/mol   cal/K/mol   J/K/mol
 298.15  VIB  0.511E+34            39228.324    238.233    250.000
         ROT  0.458E+09              888.752      2.981     42.613
         INT  0.234E+43            40117.077    241.214    292.613
         TR   0.329E+29             1481.254      4.968     46.706
         TOT                       41598.3307   246.1818   339.3188  1419.7099

       T/K    H(0)-H(T)+PV         H(T)/Eh          T*S/Eh         G(T)/Eh
   ------------------------------------------------------------------------
    298.15    0.662912E-01    0.104016E+01    0.161221E+00    0.878943E+00
   ------------------------------------------------------------------------

         :::::::::::::::::::::::::::::::::::::::::::::::::::::
         ::                  THERMODYNAMIC                  ::
         :::::::::::::::::::::::::::::::::::::::::::::::::::::
         :: total free energy        -200.750925397587 Eh   ::
         ::.................................................::
         :: total energy             -201.629868718147 Eh   ::
         :: zero point energy           0.973873473395 Eh   ::
         :: G(RRHO) w/o ZPVE           -0.094930152835 Eh   ::
         :: G(RRHO) contrib.            0.878943320560 Eh   ::
         :::::::::::::::::::::::::::::::::::::::::::::::::::::

           -------------------------------------------------
          | TOTAL ENERGY             -201.629868718147 Eh   |
          | TOTAL ENTHALPY           -200.589704085240 Eh   |
          | TOTAL FREE ENERGY        -200.750925397587 Eh   |
          | GRADIENT NORM               0.000049255766 Eh/α |
          | HOMO-LUMO GAP               2.362101898992 eV   |
           -------------------------------------------------

 * finished run on 2025/07/17 at 14:58:17.431
