   * xtb version 6.7.1 (edcfbbe) compiled by 'albert@albert-system' on 2024-07-22

   ID    Z sym.   atoms
    1    6 C      1-6, 8-11, 13-21, 23-28, 30-52
    2    5 B      7
    3    7 N      12, 22
    4    8 O      29
    5    1 H      53-93

          program call               : xtb data2507/gas/PCDMB/PCDMB_gas_T1_crest.xyz --gfn 2 --spinpol --tblite --uhf 2 --ohess vtight --parallel 40 --molden --ceasefiles --namespace data2507/gas/PCDMB/PCDMB_gas_T1_finalOpt
 * total energy  :  -134.8286920 Eh     change        0.3904594E-07 Eh
 * total energy  :  -134.8287133 Eh     change       -0.2123327E-04 Eh
 * total energy  :  -134.8287814 Eh     change       -0.6810009E-04 Eh
 * total energy  :  -134.8288079 Eh     change       -0.2651607E-04 Eh
 * total energy  :  -134.8288326 Eh     change       -0.2471298E-04 Eh
 * total energy  :  -134.8288435 Eh     change       -0.1091687E-04 Eh
 * total energy  :  -134.8288526 Eh     change       -0.9097236E-05 Eh
 * total energy  :  -134.8288609 Eh     change       -0.8278421E-05 Eh
 * total energy  :  -134.8288675 Eh     change       -0.6561827E-05 Eh
 * total energy  :  -134.8288701 Eh     change       -0.2686806E-05 Eh
 * total energy  :  -134.8289482 Eh     change       -0.1292177E-06 Eh
 * total energy  :  -134.8289482 Eh     change        0.3045506E-07 Eh
 * total energy  :  -134.8289485 Eh     change       -0.2604615E-06 Eh
 * total energy  :  -134.8289487 Eh     change       -0.2239327E-06 Eh
 * total energy  :  -134.8289489 Eh     change       -0.1761438E-06 Eh
 * total energy  :  -134.8289491 Eh     change       -0.2370099E-06 Eh
 * total energy  :  -134.8289490 Eh     change        0.1358729E-06 Eh
 * total energy  :  -134.8289492 Eh     change       -0.1977469E-06 Eh
 * total energy  :  -134.8289492 Eh     change       -0.4480773E-07 Eh
   *** GEOMETRY OPTIMIZATION CONVERGED AFTER 86 ITERATIONS ***

 final structure:
================
93
 xtb: 6.7.1 (edcfbbe)
C           -9.03272509493555        3.35529646111709       -1.40481634238139
C           -7.94161401619280        2.38566080399729       -1.06386423682646
C           -7.70152612463928        1.28144866402385       -1.87172538120119
C           -6.69337993673059        0.37835590840299       -1.58377542505088
C           -6.47687184645879       -0.78703012815928       -2.50462200237302
C           -5.86904200291688        0.55886720354542       -0.45717892248710
B           -4.70029431381693       -0.44266104750285       -0.13866360520661
C           -3.26459097511374        0.11678768932943        0.04871823984080
C           -2.87470602043811        1.35112076067452       -0.50037155999465
C           -1.60235238731475        1.85078058072552       -0.34451088989744
C           -0.65610907147160        1.13328619292825        0.38839818347589
N            0.64311558776048        1.63848034317437        0.55610703582489
C            0.96465290677178        2.90946235655617        0.99468484752083
C            0.13063090850205        3.94066115868764        1.39645113862649
C            0.71887980907202        5.12045377214624        1.81639380103573
C            2.10442751125672        5.27355816597122        1.84116050990773
C            2.94201554663329        4.24441971540630        1.46378014346679
C            2.37406011808700        3.04531266866681        1.04363282395190
C            2.91548740453569        1.79435142657049        0.61337966065422
C            4.20906542030530        1.32082233662312        0.44314951706694
C            4.38060019316611        0.02470339039624       -0.01823265674951
N            5.68898391485006       -0.48764819428167       -0.19404446738367
C            6.10452433856732       -1.57387511240189        0.54164490643820
C            5.31644053671886       -2.17443605946743        1.53231872608808
C            5.77324582745944       -3.26189822690286        2.23289134282926
C            7.05638323233100       -3.79241624080152        1.97967546322703
C            7.87096572953152       -3.19649125044141        1.04620233812484
C            7.42811716886885       -2.08977447986601        0.32796658785852
O            8.28179099860871       -1.51031219466371       -0.54426836964423
C            7.86918662483851       -0.43183189060442       -1.24574707149969
C            8.75993509381947        0.14873716188155       -2.14371218971532
C            8.37316117737691        1.21892056150292       -2.91506697116624
C            7.05533258831186        1.71471878084885       -2.81747914659732
C            6.16355903867980        1.15947491726413       -1.93512953377444
C            6.54157172358626        0.09842333502587       -1.10174188618633
C            3.28305244084515       -0.79143546708320       -0.32850949664319
C            1.99045081934265       -0.33305062816580       -0.16899754944377
C            1.80487440343825        0.95262551788734        0.32149801388092
C           -1.01440501795327       -0.09242066206600        0.95140966961421
C           -2.28697592073818       -0.58489836707969        0.77574317698873
C           -4.93270819633448       -1.99179071119265       -0.00504921911888
C           -4.18405201198092       -2.91018120534196       -0.75675192246746
C           -3.15826823213484       -2.46270375173147       -1.76153817663763
C           -4.38621095812210       -4.27558496206967       -0.61101834660231
C           -5.32104148785166       -4.77921669874552        0.27766187349235
C           -5.54492219762283       -6.25418328576895        0.42443113970793
C           -6.06734930613352       -3.87370529171370        1.02067101823618
C           -5.88943313139768       -2.50753531323195        0.88908505848387
C           -6.71644985795839       -1.58233691111768        1.73338046610926
C           -6.11794018180038        1.67344033264840        0.35839276527935
C           -5.31568875453062        1.93964740081441        1.60222506428718
C           -7.13988333815615        2.56105834146567        0.05130200879656
H           -9.21925887167966        4.03821942858826       -0.57932142665187
H           -9.95578609110652        2.82748599896235       -1.63984170697770
H           -8.75395080135690        3.94308607344620       -2.28015219123664
H           -8.32090313471995        1.12591626874822       -2.74527674861328
H           -5.47840384525604       -0.75279898792051       -2.93746601623753
H           -7.20444739339074       -0.77968122226783       -3.31337241330089
H           -6.56722426343527       -1.72517725351263       -1.96070207150339
H           -3.59534805677615        1.91249281491332       -1.07820634128134
H           -1.31827020695823        2.78814662057904       -0.80167640980734
H           -0.94225688429810        3.82528817940328        1.39214959926081
H            0.09125543010845        5.93941002313232        2.13437006762124
H            2.52442952025972        6.21217682098865        2.17098611786664
H            4.01499396642036        4.35947681777796        1.49647014122113
H            5.06343553027041        1.93695749297824        0.67866169412565
H            4.34040182748128       -1.76676782816687        1.74366510047834
H            5.15117993162855       -3.71229336338795        2.98943436455577
H            7.40018220501294       -4.65180745434369        2.53145848396757
H            8.86671902626960       -3.56179723166269        0.84998385565407
H            9.75122167014555       -0.27043784205924       -2.21544433639964
H            9.06601518852744        1.66884089178188       -3.60699015499716
H            6.74620337511161        2.53216285326731       -3.44866251411511
H            5.15403160508876        1.53557920241797       -1.88002929184851
H            3.46312739551985       -1.78206956672538       -0.71731803695551
H            1.15035034566679       -0.95465220907342       -0.43604128760546
H           -0.28977309283477       -0.63614084109716        1.54148124434840
H           -2.55398460906262       -1.53117705410877        1.22486226910624
H           -2.15480584565663       -2.57776900207906       -1.35023346863947
H           -3.29225367227626       -1.41943296164130       -2.03105086458125
H           -3.22118266884623       -3.07302865657809       -2.66157580753361
H           -3.79862107004030       -4.96035690044203       -1.20869913359984
H           -6.47380808385675       -6.54372573481246       -0.06852395388193
H           -4.73057449196290       -6.81840359032169       -0.02430794384529
H           -5.62676996501071       -6.52869340142682        1.47486814936307
H           -6.80495103861408       -4.24866326695643        1.71796660743847
H           -7.41094219306721       -2.14413320892878        2.35429824428568
H           -6.07921825595071       -0.98359339321629        2.38220429125521
H           -7.28292636062947       -0.89706159083022        1.10600656662035
H           -4.78248908257104        1.05267225915228        1.93084517725294
H           -5.96754274662546        2.28035287408745        2.40557908871903
H           -4.58089064184854        2.72323415779299        1.41431436153310
H           -7.31334697111924        3.40774438590289        0.70265831437708

 projected vibrational frequencies (cm⁻¹)
eigval :       -0.00    -0.00    -0.00     0.00     0.00     0.00
eigval :        6.31     8.13    10.82    11.88    16.04    23.02
eigval :       25.31    27.15    30.45    34.29    37.86    47.71
eigval :       57.93    59.87    73.17    78.18    87.71    93.72
eigval :      100.02   103.90   112.04   128.46   131.83   133.51
eigval :      138.77   141.60   148.28   162.60   179.13   183.65
eigval :      188.68   200.41   207.15   208.78   220.24   233.67
eigval :      238.39   264.34   272.10   274.83   275.57   286.29
eigval :      301.29   312.76   318.59   323.62   327.86   344.41
eigval :      371.59   377.49   381.85   387.61   391.82   403.18
eigval :      403.34   419.10   428.48   440.06   444.41   451.66
eigval :      465.19   477.21   481.13   489.88   494.72   495.62
eigval :      500.64   503.98   510.50   511.75   520.31   531.63
eigval :      538.46   541.29   552.18   568.46   572.00   589.38
eigval :      593.01   598.43   599.83   600.44   609.49   616.62
eigval :      622.28   628.03   630.07   647.73   672.27   673.18
eigval :      675.38   684.22   701.07   719.05   735.69   743.65
eigval :      744.33   770.67   803.39   809.04   814.99   837.68
eigval :      839.60   840.25   840.52   842.65   857.24   861.48
eigval :      869.20   874.94   875.63   884.98   887.67   887.82
eigval :      888.67   889.70   890.41   890.99   896.47   899.16
eigval :      900.88   916.93   922.66   928.34   933.22   937.04
eigval :      963.34   963.67   973.50   975.00   980.50  1012.98
eigval :     1019.81  1022.47  1023.70  1028.16  1028.45  1030.40
eigval :     1031.95  1033.05  1033.46  1037.39  1043.24  1043.90
eigval :     1044.23  1045.04  1067.49  1072.54  1101.46  1113.94
eigval :     1120.37  1124.74  1135.51  1148.51  1158.10  1161.23
eigval :     1165.56  1176.29  1179.60  1182.83  1191.64  1197.74
eigval :     1204.83  1214.75  1220.25  1225.09  1234.60  1234.88
eigval :     1235.23  1244.96  1257.68  1270.04  1271.72  1277.76
eigval :     1297.71  1304.90  1305.83  1313.67  1318.32  1326.38
eigval :     1327.91  1334.16  1345.34  1354.45  1361.25  1365.90
eigval :     1368.66  1376.58  1400.93  1401.29  1402.53  1403.75
eigval :     1403.77  1404.59  1407.78  1415.36  1421.79  1427.85
eigval :     1428.95  1429.33  1431.04  1442.38  1447.99  1451.05
eigval :     1460.12  1462.45  1465.35  1469.65  1478.29  1480.20
eigval :     1483.95  1484.00  1484.48  1484.96  1485.39  1485.75
eigval :     1488.83  1489.34  1489.71  1492.15  1496.18  1496.95
eigval :     1504.40  1521.24  1541.42  1550.19  1551.70  1565.65
eigval :     1575.15  1580.29  1586.25  1596.31  2990.63  2991.60
eigval :     2991.73  2992.92  3011.58  3012.00  3013.22  3013.96
eigval :     3017.73  3019.87  3027.36  3027.78  3032.49  3033.09
eigval :     3035.37  3036.90  3051.93  3052.18  3054.42  3054.86
eigval :     3056.02  3056.44  3063.53  3066.48  3076.47  3077.88
eigval :     3078.71  3084.35  3090.79  3091.55  3093.06  3097.34
eigval :     3097.62  3099.03  3100.78  3101.18  3102.70  3107.62
eigval :     3107.93  3115.54  3115.68

   temp. (K)  partition function   enthalpy   heat capacity  entropy
                                   cal/mol     cal/K/mol   cal/K/mol   J/K/mol
 298.15  VIB  0.226E+25            28297.599    168.603    180.544
         ROT  0.131E+09              888.752      2.981     40.128
         INT  0.297E+33            29186.352    171.584    220.672
         TR   0.169E+29             1481.254      4.968     45.379
         TOT                       30667.6057   176.5525   266.0512  1113.1582

       T/K    H(0)-H(T)+PV         H(T)/Eh          T*S/Eh         G(T)/Eh
   ------------------------------------------------------------------------
    298.15    0.488719E-01    0.781900E+00    0.126410E+00    0.655490E+00
   ------------------------------------------------------------------------

         :::::::::::::::::::::::::::::::::::::::::::::::::::::
         ::                  THERMODYNAMIC                  ::
         :::::::::::::::::::::::::::::::::::::::::::::::::::::
         :: total free energy        -134.173459329801 Eh   ::
         ::.................................................::
         :: total energy             -134.828949381087 Eh   ::
         :: zero point energy           0.733027614534 Eh   ::
         :: G(RRHO) w/o ZPVE           -0.077537563248 Eh   ::
         :: G(RRHO) contrib.            0.655490051286 Eh   ::
         :::::::::::::::::::::::::::::::::::::::::::::::::::::

           -------------------------------------------------
          | TOTAL ENERGY             -134.828949381087 Eh   |
          | TOTAL ENTHALPY           -134.047049826046 Eh   |
          | TOTAL FREE ENERGY        -134.173459329801 Eh   |
          | GRADIENT NORM               0.000081992391 Eh/α |
           -------------------------------------------------

 * finished run on 2025/07/19 at 05:24:23.976
