   * xtb version 6.7.1 (edcfbbe) compiled by 'albert@albert-system' on 2024-07-22

   ID    Z sym.   atoms
    1    6 C      1-6, 8-11, 13-21, 23-28, 30-52
    2    5 B      7
    3    7 N      12, 22
    4    8 O      29
    5    1 H      53-93

          program call               : xtb data2507/gas/PCDMB/PCDMB_gas_S0_crest.xyz --gfn 2 --ohess vtight --parallel 40 --molden --ceasefiles --namespace data2507/gas/PCDMB/PCDMB_gas_S0_finalOpt
          :  Hamiltonian                  GFN2-xTB          :
 * total energy  :  -134.9166105 Eh     change       -0.4971270E-08 Eh
 * total energy  :  -134.9166127 Eh     change       -0.2194843E-05 Eh
 * total energy  :  -134.9166144 Eh     change       -0.1707247E-05 Eh
 * total energy  :  -134.9166156 Eh     change       -0.1247477E-05 Eh
 * total energy  :  -134.9166167 Eh     change       -0.1112119E-05 Eh
 * total energy  :  -134.9166179 Eh     change       -0.1204275E-05 Eh
 * total energy  :  -134.9166196 Eh     change       -0.1691676E-05 Eh
 * total energy  :  -134.9166223 Eh     change       -0.2709242E-05 Eh
 * total energy  :  -134.9166260 Eh     change       -0.3677077E-05 Eh
 * total energy  :  -134.9166303 Eh     change       -0.4304062E-05 Eh
 * total energy  :  -134.9166603 Eh     change       -0.4105295E-06 Eh
 * total energy  :  -134.9166608 Eh     change       -0.4250042E-06 Eh
 * total energy  :  -134.9166613 Eh     change       -0.5366914E-06 Eh
 * total energy  :  -134.9166619 Eh     change       -0.6315520E-06 Eh
 * total energy  :  -134.9166625 Eh     change       -0.6280336E-06 Eh
 * total energy  :  -134.9166631 Eh     change       -0.5462315E-06 Eh
 * total energy  :  -134.9166635 Eh     change       -0.4491052E-06 Eh
 * total energy  :  -134.9166640 Eh     change       -0.4115682E-06 Eh
 * total energy  :  -134.9166640 Eh     change       -0.7410677E-08 Eh
   *** GEOMETRY OPTIMIZATION CONVERGED AFTER 44 ITERATIONS ***

 final structure:
================
93
 xtb: 6.7.1 (edcfbbe)
C           -9.09115156274774        3.12009293708213       -1.56941508647737
C           -7.97909905616155        2.20724433021109       -1.15096592312571
C           -7.77104894746475        1.00163770735360       -1.80837763452215
C           -6.76369109345131        0.13213785384674       -1.42773179631529
C           -6.58192526842065       -1.14875205697778       -2.18892948971070
C           -5.90555071693778        0.45793545244079       -0.36148689809882
B           -4.72224829823704       -0.49084036449223        0.03609131934389
C           -3.27602672260016        0.10301271446663        0.07912955709532
C           -2.91528495532074        1.20352061377931       -0.70636294988518
C           -1.63856752620497        1.72534124955474       -0.68282768835588
C           -0.67759062539271        1.17242303521266        0.15947919747599
N            0.61719313075839        1.70796921979654        0.20246064977982
C            0.93448015784322        3.04084269125069        0.37460535186067
C            0.09844965799345        4.12936849991540        0.57957186944955
C            0.68460877147110        5.36802522085902        0.75386406455275
C            2.06874234429321        5.52860419699096        0.73532698527663
C            2.90644699257414        4.44661890877868        0.55589960294694
C            2.34022309439559        3.19099122529592        0.37808600229873
C            2.88946699631635        1.87781017582878        0.19318880836320
C            4.18577948177332        1.39551242197873        0.09083611936807
C            4.37149318415236        0.03665523772006       -0.10515227658612
N            5.68409984401566       -0.49067437434358       -0.19656504505306
C            6.50788144819125       -0.53467805550352        0.92590591545552
C            6.08881902663219       -0.08267143920115        2.17051731158597
C            6.93431345506196       -0.14218587568859        3.26850909482775
C            8.20688821386361       -0.65924087099310        3.14193227241369
C            8.63417294242584       -1.13183869197018        1.90851620548056
C            7.79595703379234       -1.07627887869540        0.81198943863772
O            8.28023804713364       -1.58133136038452       -0.37110087362784
C            7.45593895271309       -1.52151086598811       -1.46916897887167
C            7.95569862688111       -2.01453521848677       -2.65877638284987
C            7.18666198525750       -1.97000631466220       -3.81376943437142
C            5.92300734853555       -1.41856747216158       -3.76919442634516
C            5.41574147563597       -0.92270251620440       -2.57721962341282
C            6.16475299941020       -0.97902502433655       -1.40898605470169
C            3.27827121983521       -0.82848734354394       -0.22183052878033
C            1.98219275830387       -0.36360803277002       -0.13468666808630
C            1.78991385085430        0.99243095950540        0.09382172201823
C           -1.01417153001561        0.08430328042245        0.96045962234579
C           -2.28751844488888       -0.44323656082317        0.90532062827982
C           -4.91661754929805       -2.00528699835715        0.39255324017968
C           -4.17995835540948       -3.00680962371662       -0.25521517730304
C           -3.22842958267092       -2.69509183220470       -1.37719252063422
C           -4.33102145591078       -4.33926366004120        0.10471234881732
C           -5.19934655907563       -4.72305957086366        1.11178930491964
C           -5.36777259679428       -6.16218843240006        1.49327542337921
C           -5.93345644363712       -3.73325290937256        1.75251019810960
C           -5.81017067714603       -2.39908457796131        1.40553761068187
C           -6.62185107878507       -1.37669282002841        2.14653638456801
C           -6.11996270320789        1.67384449990339        0.30252179915314
C           -5.28237559004790        2.09696878450673        1.47761894152401
C           -7.14509173974025        2.52285100619606       -0.09241736984834
H           -9.10773603647757        3.23433312818169       -2.65193655443711
H           -8.98259270706596        4.10123808253103       -1.11349363786297
H          -10.05192886822258        2.70453086457874       -1.26410637246670
H           -8.41556362894438        0.73674412352053       -2.63564764993229
H           -5.61143584826081       -1.16799663651235       -2.68231684846941
H           -7.35448138918292       -1.25813689250211       -2.94659179584963
H           -6.62752590924158       -2.00284882106343       -1.51662614168725
H           -3.65456423495517        1.64315046479793       -1.36096723885396
H           -1.37198000397665        2.55567799170435       -1.32039970877069
H           -0.97412804529913        4.01279151433773        0.61360678089873
H            0.05557121352734        6.23154284130667        0.91206356414431
H            2.48713465939508        6.51431214739922        0.87333144831270
H            3.97914277872513        4.56703864967583        0.55798026987188
H            5.03474023310727        2.05819632741991        0.16241529404295
H            5.09183242761403        0.31443654537094        2.28176838550426
H            6.58386834314112        0.21900553070175        4.22339960502095
H            8.86943285744325       -0.70575975115175        3.99186888861304
H            9.61848573429486       -1.55288505171466        1.77909899885404
H            8.95174310118234       -2.42776766445876       -2.66326942014064
H            7.58500341998263       -2.35966352218488       -4.73736209311853
H            5.31833710620780       -1.36559368225747       -4.66175411310351
H            4.43047531761684       -0.48352334330713       -2.55352017211509
H            3.46473609089604       -1.87888532607034       -0.38916566557318
H            1.14647554639887       -1.03722184216294       -0.24597365269325
H           -0.27511204964302       -0.33212223757117        1.62939620492013
H           -2.53696107192300       -1.28977301917696        1.52938936609886
H           -3.35200800198809       -1.68014685293532       -1.74183074930867
H           -3.38472595130855       -3.38708792689063       -2.20375846204558
H           -2.19908233639178       -2.81241408035122       -1.03727042897768
H           -3.75475456823852       -5.09139679246911       -0.41728176038245
H           -4.58835924040422       -6.77689436077332        1.04955397957174
H           -5.33512435942523       -6.27886948470413        2.57524460151299
H           -6.33409256794288       -6.53097223203299        1.14818406566585
H           -6.62003779391522       -4.01528123165758        2.53928298017759
H           -7.22059488743454       -0.78885822844765        1.45405419950817
H           -7.28537001123318       -1.85791407406114        2.86141242371380
H           -5.97321487036245       -0.68987256788333        2.68799968990503
H           -5.92077928158089        2.46690614952755        2.27889860643665
H           -4.61314061834189        2.90712382039822        1.18655051236083
H           -4.67908417892331        1.27925020923030        1.85935827846742
H           -7.29189086949663        3.45139968562364        0.44287887716051

          :  Hamiltonian                  GFN2-xTB          :
         :: gradient norm              0.000053068506 Eh/a0 ::
         :: HOMO-LUMO gap              1.554413227724 eV    ::
         :: SCC energy              -137.335875576694 Eh    ::
         :: -> dispersion             -0.125986318195 Eh    ::
         :: repulsion energy           2.419211615190 Eh    ::

    * Orbital Energies and Occupations

         #    Occupation            Energy/Eh            Energy/eV
      -------------------------------------------------------------
         1        2.0000           -0.7177938             -19.5322
       ...           ...                  ...                  ...
       114        2.0000           -0.4092303             -11.1357
       115        2.0000           -0.4065602             -11.0631
       116        2.0000           -0.4035442             -10.9810
       117        2.0000           -0.4021996             -10.9444
       118        2.0000           -0.3942168             -10.7272
       119        2.0000           -0.3848837             -10.4732
       120        2.0000           -0.3821959             -10.4001
       121        2.0000           -0.3816113             -10.3842
       122        2.0000           -0.3811878             -10.3726
       123        2.0000           -0.3758857             -10.2284
       124        2.0000           -0.3701738             -10.0729
       125        2.0000           -0.3667328              -9.9793
       126        2.0000           -0.3322630              -9.0413 (HOMO)
       127                         -0.2751395              -7.4869 (LUMO)
       128                         -0.2512324              -6.8364
       129                         -0.2301448              -6.2626
       130                         -0.2295694              -6.2469
       131                         -0.2287476              -6.2245
       132                         -0.2229819              -6.0676
       133                         -0.2203880              -5.9971
       134                         -0.2123129              -5.7773
       135                         -0.2084898              -5.6733
       136                         -0.2078843              -5.6568
       137                         -0.2063148              -5.6141
       ...                                ...                  ...
       249                          0.7405738              20.1520
      -------------------------------------------------------------
                  HL-Gap            0.0571236 Eh            1.5544 eV

     #   Z          covCN         q      C6AA      α(0)
     1   6 C        3.758    -0.107    22.599     6.778
     2   6 C        2.963     0.013    27.715     8.635
     3   6 C        2.929    -0.057    29.405     8.893
     4   6 C        2.967     0.011    27.757     8.642
     5   6 C        3.759    -0.113    22.703     6.793
     6   6 C        2.890    -0.085    30.122     8.998
     7   5 B        2.710     0.247    17.754     7.066
     8   6 C        2.884    -0.063    29.573     8.915
     9   6 C        2.924    -0.027    28.675     8.782
    10   6 C        2.918    -0.045    29.108     8.847
    11   6 C        2.914     0.064    26.566     8.452
    12   7 N        2.803    -0.041    22.025     6.970
    13   6 C        3.079     0.048    26.849     8.495
    14   6 C        2.910    -0.050    29.236     8.866
    15   6 C        2.924    -0.032    28.807     8.802
    16   6 C        2.920    -0.040    28.991     8.830
    17   6 C        2.912    -0.032    28.796     8.799
    18   6 C        3.068    -0.017    28.353     8.731
    19   6 C        3.069    -0.016    28.346     8.730
    20   6 C        2.915    -0.044    29.087     8.844
    21   6 C        2.922     0.054    26.792     8.488
    22   7 N        2.753    -0.073    22.666     7.071
    23   6 C        2.923     0.043    27.027     8.525
    24   6 C        2.924    -0.061    29.527     8.911
    25   6 C        2.919    -0.040    28.983     8.828
    26   6 C        2.919    -0.042    29.054     8.839
    27   6 C        2.920    -0.057    29.427     8.896
    28   6 C        2.883     0.123    25.296     8.245
    29   8 O        1.708    -0.259    18.296     5.775
    30   6 C        2.883     0.123    25.295     8.245
    31   6 C        2.920    -0.058    29.429     8.896
    32   6 C        2.919    -0.042    29.054     8.839
    33   6 C        2.919    -0.040    28.986     8.829
    34   6 C        2.924    -0.061    29.526     8.911
    35   6 C        2.923     0.043    27.028     8.526
    36   6 C        2.926    -0.044    29.097     8.846
    37   6 C        2.909    -0.050    29.249     8.868
    38   6 C        3.077     0.045    26.902     8.504
    39   6 C        2.918    -0.045    29.117     8.849
    40   6 C        2.924    -0.027    28.675     8.782
    41   6 C        2.890    -0.085    30.123     8.998
    42   6 C        2.967     0.011    27.761     8.642
    43   6 C        3.759    -0.109    22.631     6.782
    44   6 C        2.930    -0.057    29.409     8.894
    45   6 C        2.963     0.013    27.713     8.635
    46   6 C        3.758    -0.107    22.600     6.778
    47   6 C        2.929    -0.057    29.405     8.893
    48   6 C        2.967     0.011    27.757     8.642
    49   6 C        3.759    -0.112    22.702     6.793
    50   6 C        2.967     0.011    27.761     8.642
    51   6 C        3.759    -0.109    22.630     6.782
    52   6 C        2.930    -0.057    29.410     8.894
    53   1 H        0.925     0.042     2.429     2.437
    54   1 H        0.925     0.038     2.472     2.459
    55   1 H        0.924     0.044     2.399     2.422
    56   1 H        0.925     0.024     2.677     2.559
    57   1 H        0.925     0.039     2.465     2.455
    58   1 H        0.925     0.037     2.484     2.465
    59   1 H        0.925     0.049     2.328     2.386
    60   1 H        0.926     0.034     2.527     2.486
    61   1 H        0.926     0.035     2.510     2.478
    62   1 H        0.926     0.030     2.590     2.517
    63   1 H        0.926     0.031     2.572     2.508
    64   1 H        0.926     0.030     2.583     2.513
    65   1 H        0.926     0.033     2.542     2.493
    66   1 H        0.926     0.041     2.434     2.440
    67   1 H        0.926     0.032     2.553     2.499
    68   1 H        0.926     0.033     2.551     2.498
    69   1 H        0.926     0.034     2.524     2.484
    70   1 H        0.926     0.047     2.354     2.399
    71   1 H        0.926     0.047     2.354     2.399
    72   1 H        0.926     0.034     2.525     2.485
    73   1 H        0.926     0.032     2.554     2.499
    74   1 H        0.926     0.032     2.557     2.501
    75   1 H        0.926     0.039     2.458     2.452
    76   1 H        0.926     0.035     2.516     2.481
    77   1 H        0.926     0.035     2.519     2.482
    78   1 H        0.926     0.034     2.526     2.485
    79   1 H        0.925     0.036     2.501     2.473
    80   1 H        0.925     0.041     2.437     2.441
    81   1 H        0.924     0.040     2.446     2.446
    82   1 H        0.925     0.023     2.681     2.561
    83   1 H        0.925     0.038     2.471     2.458
    84   1 H        0.925     0.042     2.427     2.436
    85   1 H        0.924     0.044     2.399     2.422
    86   1 H        0.925     0.024     2.677     2.558
    87   1 H        0.925     0.049     2.329     2.387
    88   1 H        0.925     0.037     2.484     2.465
    89   1 H        0.925     0.039     2.465     2.455
    90   1 H        0.925     0.041     2.439     2.442
    91   1 H        0.924     0.040     2.445     2.445
    92   1 H        0.925     0.036     2.501     2.473
    93   1 H        0.925     0.023     2.684     2.562

molecular dipole:
                 x           y           z       tot (Debye)
 q only:       -1.624       0.196       0.059
   full:       -1.677       0.229       0.065       4.305

 projected vibrational frequencies (cm⁻¹)
eigval :       -0.00    -0.00    -0.00    -0.00    -0.00     0.00
eigval :        6.32     9.68    11.14    16.14    17.71    19.98
eigval :       23.93    26.05    26.61    31.52    32.84    41.98
eigval :       48.50    52.08    52.49    65.67    85.04    99.31
eigval :      101.00   104.88   112.49   122.20   127.13   132.66
eigval :      134.41   143.92   146.24   161.22   176.01   183.28
eigval :      188.41   201.56   208.01   209.18   216.39   230.09
eigval :      250.49   266.32   269.69   274.98   275.26   282.11
eigval :      302.20   308.71   317.73   324.03   335.11   342.42
eigval :      369.45   376.20   388.86   396.49   397.52   407.47
eigval :      422.81   427.58   436.42   438.73   454.83   462.11
eigval :      479.76   486.37   490.72   498.03   498.46   506.32
eigval :      510.26   511.23   517.40   521.92   524.04   534.93
eigval :      538.71   539.38   559.49   575.38   578.68   596.88
eigval :      599.06   600.47   603.11   604.93   619.19   628.82
eigval :      639.58   660.21   660.68   671.59   678.78   681.23
eigval :      684.15   695.44   708.00   724.94   765.64   775.56
eigval :      777.50   777.83   811.93   815.25   823.50   840.30
eigval :      841.78   853.46   861.14   861.83   870.19   877.92
eigval :      880.30   880.55   885.31   891.06   891.19   891.40
eigval :      893.99   895.49   904.12   910.18   913.14   913.75
eigval :      918.61   922.38   931.48   936.95   943.80   964.47
eigval :      964.53   965.76   974.96   975.43  1020.11  1020.86
eigval :     1023.08  1027.65  1028.71  1029.03  1031.04  1032.94
eigval :     1033.21  1033.26  1040.28  1041.26  1044.37  1044.69
eigval :     1071.53  1089.31  1090.17  1104.98  1107.33  1112.32
eigval :     1125.46  1136.28  1151.04  1166.33  1168.79  1176.12
eigval :     1178.50  1182.64  1183.66  1192.05  1199.44  1204.26
eigval :     1206.53  1220.71  1224.52  1232.39  1235.11  1235.40
eigval :     1242.76  1246.04  1261.40  1271.71  1276.36  1291.05
eigval :     1303.83  1304.67  1306.70  1312.05  1321.65  1337.39
eigval :     1339.81  1341.23  1351.71  1356.67  1360.40  1377.39
eigval :     1397.20  1401.88  1401.94  1404.06  1404.19  1405.69
eigval :     1408.84  1421.03  1425.39  1427.92  1429.09  1430.99
eigval :     1444.06  1453.57  1456.64  1472.95  1478.25  1480.65
eigval :     1482.62  1482.94  1483.98  1485.91  1486.06  1486.46
eigval :     1487.36  1488.72  1489.24  1489.45  1492.79  1496.08
eigval :     1496.96  1508.05  1546.61  1562.19  1562.69  1565.41
eigval :     1566.90  1581.27  1583.78  1586.37  1590.36  1597.42
eigval :     1601.47  1603.63  1604.91  1614.70  2995.33  2995.85
eigval :     2997.13  2997.65  3012.50  3012.83  3015.25  3015.58
eigval :     3021.94  3022.78  3031.88  3032.22  3037.32  3037.61
eigval :     3039.86  3040.31  3058.47  3058.57  3061.62  3061.84
eigval :     3062.77  3063.31  3071.53  3072.67  3078.61  3084.10
eigval :     3085.03  3085.41  3085.64  3086.12  3086.81  3091.34
eigval :     3095.06  3096.01  3096.35  3097.58  3098.43  3102.97
eigval :     3103.79  3110.78  3111.46

   temp. (K)  partition function   enthalpy   heat capacity  entropy
                                   cal/mol     cal/K/mol   cal/K/mol   J/K/mol
 298.15  VIB  0.433E+25            28138.519    165.571    179.751
         ROT  0.131E+09              888.752      2.981     40.128
         INT  0.568E+33            29027.272    168.552    219.879
         TR   0.169E+29             1481.254      4.968     45.379
         TOT                       30508.5256   173.5198   265.2581  1109.8399

       T/K    H(0)-H(T)+PV         H(T)/Eh          T*S/Eh         G(T)/Eh
   ------------------------------------------------------------------------
    298.15    0.486184E-01    0.786867E+00    0.126033E+00    0.660834E+00
   ------------------------------------------------------------------------

         :::::::::::::::::::::::::::::::::::::::::::::::::::::
         ::                  THERMODYNAMIC                  ::
         :::::::::::::::::::::::::::::::::::::::::::::::::::::
         :: total free energy        -134.255830091543 Eh   ::
         ::.................................................::
         :: total energy             -134.916663961502 Eh   ::
         :: zero point energy           0.738248123681 Eh   ::
         :: G(RRHO) w/o ZPVE           -0.077414253723 Eh   ::
         :: G(RRHO) contrib.            0.660833869958 Eh   ::
         :::::::::::::::::::::::::::::::::::::::::::::::::::::

           -------------------------------------------------
          | TOTAL ENERGY             -134.916663961502 Eh   |
          | TOTAL ENTHALPY           -134.129797407609 Eh   |
          | TOTAL FREE ENERGY        -134.255830091543 Eh   |
          | GRADIENT NORM               0.000053068658 Eh/α |
          | HOMO-LUMO GAP               1.554410939575 eV   |
           -------------------------------------------------

 * finished run on 2025/07/19 at 05:08:05.598
