   * xtb version 6.7.1 (edcfbbe) compiled by 'albert@albert-system' on 2024-07-22

   ID    Z sym.   atoms
    1    6 C      1-6, 8-11, 13-21, 23-28, 30-52
    2    5 B      7
    3    7 N      12, 22
    4    8 O      29
    5    1 H      53-93

          program call               : xtb data2507/gas/PCDMB/PCDMB_gas_S0_finalOpt.xtbopt.xyz --gfn 2 --spinpol --tblite --uhf 2 --ohess vtight --parallel 40 --molden --ceasefiles --namespace data2507/gas/PCDMB/PCDMB_gas_T1_preOpt
 * total energy  :  -134.8251231 Eh     change        0.2878551E-08 Eh
 * total energy  :  -134.8270812 Eh     change       -0.1958081E-02 Eh
 * total energy  :  -134.8278844 Eh     change       -0.8031421E-03 Eh
 * total energy  :  -134.8281907 Eh     change       -0.3063011E-03 Eh
 * total energy  :  -134.8285063 Eh     change       -0.3156442E-03 Eh
 * total energy  :  -134.8286082 Eh     change       -0.1018840E-03 Eh
 * total energy  :  -134.8286686 Eh     change       -0.6045131E-04 Eh
 * total energy  :  -134.8286847 Eh     change       -0.1608394E-04 Eh
 * total energy  :  -134.8286977 Eh     change       -0.1295839E-04 Eh
 * total energy  :  -134.8287138 Eh     change       -0.1616018E-04 Eh
 * total energy  :  -134.8288545 Eh     change       -0.4404327E-06 Eh
 * total energy  :  -134.8288548 Eh     change       -0.3274449E-06 Eh
 * total energy  :  -134.8288551 Eh     change       -0.2880191E-06 Eh
 * total energy  :  -134.8288553 Eh     change       -0.2104158E-06 Eh
 * total energy  :  -134.8288556 Eh     change       -0.2910975E-06 Eh
 * total energy  :  -134.8288558 Eh     change       -0.2275235E-06 Eh
 * total energy  :  -134.8288559 Eh     change       -0.1348045E-06 Eh
 * total energy  :  -134.8288560 Eh     change       -0.1107389E-06 Eh
 * total energy  :  -134.8288561 Eh     change       -0.5745144E-07 Eh
   *** GEOMETRY OPTIMIZATION CONVERGED AFTER 63 ITERATIONS ***

 final structure:
================
93
 xtb: 6.7.1 (edcfbbe)
C           -9.09851440870566        3.08062561032587       -1.62041393993892
C           -7.97886094325223        2.18152736493621       -1.19019713195518
C           -7.75634576109819        0.97291278530939       -1.83768429349513
C           -6.73792638631633        0.11995928211626       -1.45000195578508
C           -6.53998086095512       -1.16453496686525       -2.20103464701257
C           -5.88518792319635        0.45977880870925       -0.38314505094490
B           -4.70358883721152       -0.48474682443544        0.04363622480932
C           -3.26653843087022        0.09966654756614        0.11004581787987
C           -2.89676002440606        1.23711315065095       -0.62831609326848
C           -1.62379598138029        1.75761306304494       -0.57923870782771
C           -0.65836027170437        1.16298510765143        0.23355907752539
N            0.64055348238522        1.69392260083388        0.29664426483978
C            0.95840365168263        3.01764718433591        0.53547094793824
C            0.12244489547194        4.08991886981296        0.80413797616428
C            0.70706606171476        5.32272592422787        1.03234146737534
C            2.09112041401330        5.48833380301966        1.00105491595932
C            2.93101417038570        4.42160853346379        0.75691490504271
C            2.36661479713298        3.17051396412567        0.52677016421996
C            2.91163876016759        1.87294010541307        0.27608045360980
C            4.20625319467097        1.38835381841435        0.15236306203842
C            4.38134502269326        0.04267215288055       -0.13063935411195
N            5.69208301481793       -0.47934248144255       -0.26151966864402
C            6.54687032017619       -0.46426302962230        0.81607860535663
C            6.17273291870153       -0.00664898349129        2.08670758860677
C            7.06653434309768       -0.00681194267908        3.12699994375751
C            8.38374726055281       -0.48228260626872        2.94350665740569
C            8.76760148117565       -0.97857148366334        1.72070792550285
C            7.87502237345495       -0.99086120891984        0.65262721741582
O            8.28424239583332       -1.52909491098843       -0.51645237642569
C            7.43052446144099       -1.55092396657142       -1.56259021467502
C            7.87163786009574       -2.10055367491622       -2.76299384121412
C            7.05548541950181       -2.10357823270271       -3.86885928399030
C            5.77115295010506       -1.52046005805623       -3.79656081037053
C            5.31544603839821       -0.97823838474658       -2.62204124449594
C            6.10566293464358       -1.00101576787270       -1.46499062864815
C            3.28672694846161       -0.81746127080313       -0.29643524879196
C            1.99321222711059       -0.35373382183502       -0.16034427810827
C            1.80406124215671        0.98902425077944        0.13856415222368
C           -0.99664625154987        0.03684681198671        0.98455227737386
C           -2.26964966239954       -0.48069971676438        0.91323955032890
C           -4.92348013752973       -1.99846889958610        0.40574806804863
C           -4.18611492574206       -3.01357013854947       -0.22237421583874
C           -3.18687473404936       -2.71250313628009       -1.30538817240945
C           -4.37523332443687       -4.34426446661391        0.12462148174580
C           -5.28564590984309       -4.71676348570490        1.09875117982876
C           -5.49329596887080       -6.15425887497694        1.46986110251226
C           -6.02105712183883       -3.71545889661582        1.72017585356572
C           -5.85614087409321       -2.38240364768388        1.38749835016101
C           -6.67102553491157       -1.34764906273404        2.10735918240621
C           -6.11639434042191        1.67951260214540        0.27086183625740
C           -5.28150339023944        2.12169645528047        1.44095159942465
C           -7.14923277164178        2.51428204959217       -0.13290822515091
H           -9.08601629387041        3.21951720886374       -2.70051076353861
H           -9.02308467575381        4.05369299365778       -1.14070415488947
H          -10.05939844085108        2.63948038035776       -1.35330089582311
H           -8.39705622720013        0.69466956528222       -2.66409958205099
H           -5.55449317825423       -1.18997113827527       -2.66333694730826
H           -7.29026309313166       -1.27459761257462       -2.98106330687240
H           -6.60854117040125       -2.01558497381363       -1.52641734261031
H           -3.63366064753836        1.70305795234657       -1.26727455374795
H           -1.35543751168834        2.61592388816124       -1.17897749990244
H           -0.94870026560292        3.96579366618231        0.84625830192266
H            0.07801147729483        6.17461726488896        1.24287285407669
H            2.50814074526896        6.46831986565285        1.17965544673477
H            4.00313671409784        4.54825238623465        0.74638017461170
H            5.05854525715964        2.04318736883808        0.25156496766001
H            5.16467437286161        0.34485519910339        2.24138587353083
H            6.76089110856759        0.35177269244399        4.09660304738535
H            9.07780380849541       -0.47038107817248        3.76772903409607
H            9.75814482469871       -1.37284173283640        1.55665825589424
H            8.86746868653398       -2.51387700717865       -2.79461714079947
H            7.39786857085740       -2.53299937311924       -4.79598698832636
H            5.14817718893637       -1.49579500886367       -4.67600091105874
H            4.33899465205740       -0.52161886775077       -2.58039080912250
H            3.46898976483425       -1.85811914200374       -0.51734726949777
H            1.15547769307800       -1.02070688224494       -0.28864013402211
H           -0.25628516290518       -0.40886553799179        1.63423395648034
H           -2.52111244796734       -1.34858749160007        1.50657396587477
H           -3.34338671547007       -1.72526104661294       -1.72952207423595
H           -3.25601456762333       -3.45519088614441       -2.09915136762744
H           -2.17419389843569       -2.74848922664245       -0.90222269147934
H           -3.79683701569901       -5.10625026862611       -0.38156138535651
H           -4.74992578192872       -6.79062037457973        0.99540990945741
H           -5.42859832688748       -6.28446432358029        2.54936797224816
H           -6.48283306350091       -6.48612490357677        1.15430850720418
H           -6.73990805301113       -3.98836224158860        2.48152557566285
H           -7.25780597218095       -0.76443167188916        1.40052646439675
H           -7.34605621982739       -1.81609906904358        2.82035702811481
H           -6.02409322846573       -0.65719736117430        2.64608313343463
H           -5.91218430162540        2.57655442330752        2.20365999676946
H           -4.55355882645350        2.86827942692370        1.12160873380717
H           -4.73787156859158        1.29077681209934        1.88036270229384
H           -7.30787714459811        3.44606604406901        0.39421160546481

 projected vibrational frequencies (cm⁻¹)
eigval :       -0.00    -0.00     0.00     0.00     0.00     0.00
eigval :        7.88    10.59    11.66    16.44    16.87    22.60
eigval :       25.81    27.79    30.06    34.23    38.13    48.43
eigval :       57.80    61.25    73.24    78.59    90.54    93.17
eigval :      101.79   103.52   109.31   127.72   132.09   133.28
eigval :      135.45   146.29   147.80   162.41   176.33   183.85
eigval :      188.45   201.63   208.07   209.01   219.83   233.15
eigval :      235.41   263.16   271.02   274.45   274.85   285.70
eigval :      302.43   312.23   318.50   324.49   329.45   342.22
eigval :      370.33   378.08   382.59   386.02   393.49   401.16
eigval :      406.61   419.24   428.94   441.04   442.28   451.83
eigval :      460.71   478.74   481.09   489.11   494.76   495.69
eigval :      500.10   505.12   510.03   511.19   522.03   532.78
eigval :      539.07   541.18   554.40   569.65   572.30   589.73
eigval :      593.15   598.82   599.97   601.28   609.11   615.08
eigval :      622.75   626.65   630.70   651.42   672.99   673.43
eigval :      676.11   684.60   701.83   719.20   740.31   742.89
eigval :      743.40   770.93   806.18   807.76   815.17   836.97
eigval :      838.95   839.46   840.65   841.64   860.33   865.66
eigval :      870.40   875.32   876.67   885.66   887.86   888.01
eigval :      888.37   889.42   889.53   891.24   895.21   899.52
eigval :      901.82   917.45   927.13   930.85   933.53   938.46
eigval :      963.38   963.73   974.59   975.11   989.11  1013.62
eigval :     1019.90  1022.63  1024.08  1028.16  1028.22  1030.51
eigval :     1032.02  1033.20  1033.47  1037.57  1041.83  1041.99
eigval :     1044.23  1044.48  1067.50  1074.86  1102.08  1114.29
eigval :     1120.35  1125.35  1135.57  1149.45  1158.93  1160.72
eigval :     1166.25  1176.30  1179.99  1182.59  1190.94  1198.63
eigval :     1205.30  1215.57  1220.03  1225.60  1234.71  1234.89
eigval :     1235.28  1244.90  1258.45  1270.50  1272.60  1279.05
eigval :     1298.55  1304.72  1305.66  1313.24  1319.05  1326.89
eigval :     1329.21  1333.51  1345.11  1354.51  1361.79  1365.86
eigval :     1368.20  1380.92  1401.03  1401.28  1402.04  1403.72
eigval :     1403.88  1404.62  1407.71  1415.90  1422.24  1428.02
eigval :     1429.06  1429.44  1431.29  1443.51  1447.38  1451.59
eigval :     1460.44  1463.43  1466.66  1470.05  1478.26  1480.24
eigval :     1484.06  1484.24  1484.71  1484.77  1485.27  1485.65
eigval :     1488.55  1489.52  1489.92  1492.41  1496.18  1497.07
eigval :     1507.29  1523.52  1542.11  1551.49  1552.69  1567.17
eigval :     1575.87  1581.15  1587.87  1596.84  2990.63  2991.52
eigval :     2993.77  2995.34  3011.46  3012.04  3013.59  3013.96
eigval :     3014.84  3016.84  3027.53  3027.95  3032.46  3033.25
eigval :     3036.68  3036.72  3051.76  3052.10  3054.25  3054.80
eigval :     3056.14  3056.44  3063.73  3066.42  3076.52  3077.85
eigval :     3078.78  3084.14  3090.92  3091.67  3093.06  3097.28
eigval :     3097.34  3098.64  3100.56  3100.93  3104.35  3107.52
eigval :     3107.72  3115.43  3115.81

   temp. (K)  partition function   enthalpy   heat capacity  entropy
                                   cal/mol     cal/K/mol   cal/K/mol   J/K/mol
 298.15  VIB  0.865E+24            28276.990    168.601    179.617
         ROT  0.131E+09              888.752      2.981     40.131
         INT  0.114E+33            29165.742    171.582    219.748
         TR   0.169E+29             1481.254      4.968     45.379
         TOT                       30646.9964   176.5500   265.1266  1109.2898

       T/K    H(0)-H(T)+PV         H(T)/Eh          T*S/Eh         G(T)/Eh
   ------------------------------------------------------------------------
    298.15    0.488391E-01    0.782055E+00    0.125970E+00    0.656085E+00
   ------------------------------------------------------------------------

         :::::::::::::::::::::::::::::::::::::::::::::::::::::
         ::                  THERMODYNAMIC                  ::
         :::::::::::::::::::::::::::::::::::::::::::::::::::::
         :: total free energy        -134.172770936245 Eh   ::
         ::.................................................::
         :: total energy             -134.828856116057 Eh   ::
         :: zero point energy           0.733216298972 Eh   ::
         :: G(RRHO) w/o ZPVE           -0.077131119161 Eh   ::
         :: G(RRHO) contrib.            0.656085179812 Eh   ::
         :::::::::::::::::::::::::::::::::::::::::::::::::::::

           -------------------------------------------------
          | TOTAL ENERGY             -134.828856116057 Eh   |
          | TOTAL ENTHALPY           -134.046800719547 Eh   |
          | TOTAL FREE ENERGY        -134.172770936245 Eh   |
          | GRADIENT NORM               0.000081771886 Eh/α |
           -------------------------------------------------

 * finished run on 2025/07/19 at 05:08:28.059
