   * xtb version 6.7.1 (edcfbbe) compiled by 'albert@albert-system' on 2024-07-22

   ID    Z sym.   atoms
    1    6 C      1-6, 8-11, 13-21, 23-28, 30-52
    2    5 B      7
    3    7 N      12, 22
    4    8 O      29
    5    1 H      53-93

          program call               : xtb data2507/gas/PCDMB/PCDMB.xyz --gfn 2 --ohess vtight --parallel 40 --molden --ceasefiles --namespace data2507/gas/PCDMB/PCDMB_gas_S0_preOpt
          :  Hamiltonian                  GFN2-xTB          :
 * total energy  :  -134.8671397 Eh     change       -0.3229616E-08 Eh
 * total energy  :  -134.9023703 Eh     change       -0.3523059E-01 Eh
 * total energy  :  -134.9113731 Eh     change       -0.9002778E-02 Eh
 * total energy  :  -134.9131667 Eh     change       -0.1793647E-02 Eh
 * total energy  :  -134.9141232 Eh     change       -0.9565058E-03 Eh
 * total energy  :  -134.9145759 Eh     change       -0.4527063E-03 Eh
 * total energy  :  -134.9148900 Eh     change       -0.3141087E-03 Eh
 * total energy  :  -134.9150961 Eh     change       -0.2060688E-03 Eh
 * total energy  :  -134.9152392 Eh     change       -0.1430632E-03 Eh
 * total energy  :  -134.9153571 Eh     change       -0.1179644E-03 Eh
 * total energy  :  -134.9166420 Eh     change       -0.1009110E-05 Eh
 * total energy  :  -134.9166425 Eh     change       -0.4806926E-06 Eh
 * total energy  :  -134.9166433 Eh     change       -0.8386532E-06 Eh
 * total energy  :  -134.9166441 Eh     change       -0.7452053E-06 Eh
 * total energy  :  -134.9166448 Eh     change       -0.7353023E-06 Eh
 * total energy  :  -134.9166457 Eh     change       -0.9086936E-06 Eh
 * total energy  :  -134.9166463 Eh     change       -0.5893554E-06 Eh
 * total energy  :  -134.9166467 Eh     change       -0.4194540E-06 Eh
 * total energy  :  -134.9166468 Eh     change       -0.1007277E-07 Eh
   *** GEOMETRY OPTIMIZATION CONVERGED AFTER 101 ITERATIONS ***

 final structure:
================
93
 xtb: 6.7.1 (edcfbbe)
C           -8.15246034594746        3.88304559625164       -0.79314850836719
C           -7.09532767235061        2.83980453826326       -0.59523473573304
C           -6.93352819032954        1.81101625643210       -1.51349990028825
C           -5.97862272588485        0.82424598381242       -1.33698661995315
C           -5.84302691331485       -0.25060602671231       -2.37586204582682
C           -5.12824875936451        0.84694115972645       -0.21667158112274
B           -3.99716331158615       -0.22535388655644       -0.04494233189356
C           -2.52514697668101        0.27159360368841        0.13627385911651
C           -2.10782728768823        1.51279134478041       -0.35743771611452
C           -0.80896943570329        1.95328121059487       -0.21051664242151
C            0.11902023213854        1.16678795454877        0.46697226717892
N            1.43649064396285        1.61528592671133        0.63463027544378
C            1.81260402530226        2.85112536120104        1.12252982838281
C            1.02574280412812        3.89280357628049        1.59329200640811
C            1.66643465906239        5.02584845765025        2.05585897644583
C            3.05635085115130        5.12629065266834        2.06201162705526
C            3.84517148499268        4.08429239367004        1.61860282713564
C            3.22362344398519        2.93444659592964        1.14919381142812
C            3.71400651062062        1.68260883222719        0.64658753877938
C            4.98797018744414        1.17909509264513        0.42979758026716
C            5.11316937526383       -0.09169921229785       -0.10770662546954
N            6.40103696301558       -0.63403746977750       -0.34487715855751
C            6.86499023973146       -1.70327296727942        0.41745585129814
C            6.12092886934910       -2.24831233826496        1.45586905288606
C            6.61092471515526       -3.31397940110883        2.19627826908091
C            7.85266742693531       -3.84538906126303        1.91614430689177
C            8.61743844909972       -3.29784629463259        0.89501276745548
C            8.13490481253977       -2.23582108745521        0.15522176518140
O            8.95504446422815       -1.73221183415275       -0.82577349225113
C            8.48590141250797       -0.66792498464383       -1.55824302344907
C            9.31827887780237       -0.16509272823977       -2.53925121165736
C            8.90432262125298        0.89547315212120       -3.33362322991093
C            7.64996533157008        1.43753566687250       -3.14490081394292
C            6.81059523219858        0.93776103545045       -2.16020101154039
C            7.21798428794818       -0.10945395281294       -1.34387737095428
C            3.98256887900730       -0.84855755615717       -0.43346490496433
C            2.70833115379188       -0.36800796855122       -0.21234693162798
C            2.57630402883388        0.89732988362758        0.34403167818510
C           -0.27341208707548       -0.06758826322716        0.97795236929174
C           -1.56935220066205       -0.50542036909079        0.80046269022808
C           -4.26501419673021       -1.77031676740615       -0.04436369208870
C           -3.57388456557785       -2.63105276962286       -0.90885320355915
C           -2.60936577644538       -2.11520039392933       -1.94088645586590
C           -3.78741404321784       -4.00176649191049       -0.85992169254634
C           -4.67522609554617       -4.56456950320779        0.04121393808510
C           -4.88146234773784       -6.04715710422061        0.10736325652275
C           -5.36343466507928       -3.71412441070175        0.89608178323016
C           -5.17802235900455       -2.34262306787932        0.85973172504704
C           -5.94455344235943       -1.47923479069926        1.81886710885905
C           -5.29784198893103        1.88358557128540        0.71202868531264
C           -4.47009720454298        1.97362807182943        1.96428071979909
C           -6.27049882010850        2.85447236105886        0.51660673647089
H           -8.24133243881935        4.14868661742762       -1.84466181226412
H           -7.92702030487833        4.77922818112313       -0.21975154264576
H           -9.11925101905895        3.50195822869853       -0.46179475061679
H           -7.57154096832064        1.78034688547733       -2.38638506052208
H           -4.87233038233002       -0.19014244724563       -2.86575794370361
H           -6.61639344954694       -0.15163940053567       -3.13411555858665
H           -5.92264279724623       -1.23529347032594       -1.92047253685288
H           -2.82083006062019        2.13322429000387       -0.88173981222554
H           -0.49937510782280        2.90131894188809       -0.62568193063015
H           -0.05100060575921        3.81815696948098        1.60893269825655
H            1.07638945276983        5.85188507807485        2.42449194604621
H            3.51807916441278        6.03069826983638        2.42883559692857
H            4.92215989831094        4.15411567596737        1.63811930946428
H            5.86547593232684        1.76233299931989        0.66389238720662
H            5.15332960134285       -1.83172759201408        1.68880628833229
H            6.01041726575000       -3.72072774039214        2.99568504968433
H            8.23756380237518       -4.67588269524052        2.48681544624265
H            9.59721212229938       -3.68209864461738        0.65995007851689
H           10.28748804531345       -0.61942025704806       -2.67011222725879
H            9.56252894199138        1.28245280418432       -4.09554652727592
H            7.30914683594657        2.25435310576143       -3.76273393031116
H            5.82736229858920        1.36159035004741       -2.02724129354138
H            4.12235446873551       -1.82763916339807       -0.86701840996545
H            1.84367150145569       -0.95511074460754       -0.48112588198594
H            0.44046675908147       -0.66935471797997        1.52140224085689
H           -1.86263204976401       -1.46610504959077        1.19961265795604
H           -2.81604240935959       -2.57259144125364       -2.90771738380953
H           -1.58834316537107       -2.37729730294999       -1.66236695026524
H           -2.66757290606903       -1.03621111280989       -2.04448311917383
H           -3.24703654140285       -4.64120383223868       -1.54500444661587
H           -4.59462432809824       -6.52235779988891       -0.82783894316111
H           -4.27192172645104       -6.47321444899274        0.90536025532849
H           -5.92215089740622       -6.28346785329129        0.31987707446515
H           -6.06484905530577       -4.13503507307475        1.60376540546852
H           -6.64289365639479       -2.07714756665074        2.39997976745577
H           -5.26753057170376       -0.97599882384162        2.50748384220538
H           -6.50066982758014       -0.71299055939683        1.28309448103729
H           -3.88386170153711        1.07462723115473        2.12667284851542
H           -5.11483663703948        2.13326917264481        2.82778552871375
H           -3.78667564902644        2.82074386724870        1.90052948991683
H           -6.38315140486777        3.63920149138670        1.25269126744893

          :  Hamiltonian                  GFN2-xTB          :
         :: gradient norm              0.000193525003 Eh/a0 ::
         :: HOMO-LUMO gap              1.556047361884 eV    ::
         :: SCC energy              -137.335879989704 Eh    ::
         :: -> dispersion             -0.125980702084 Eh    ::
         :: repulsion energy           2.419233238900 Eh    ::

    * Orbital Energies and Occupations

         #    Occupation            Energy/Eh            Energy/eV
      -------------------------------------------------------------
         1        2.0000           -0.7178950             -19.5349
       ...           ...                  ...                  ...
       114        2.0000           -0.4093078             -11.1378
       115        2.0000           -0.4066655             -11.0659
       116        2.0000           -0.4036330             -10.9834
       117        2.0000           -0.4021881             -10.9441
       118        2.0000           -0.3944132             -10.7325
       119        2.0000           -0.3848525             -10.4724
       120        2.0000           -0.3821926             -10.4000
       121        2.0000           -0.3814675             -10.3803
       122        2.0000           -0.3812227             -10.3736
       123        2.0000           -0.3756994             -10.2233
       124        2.0000           -0.3701979             -10.0736
       125        2.0000           -0.3668453              -9.9824
       126        2.0000           -0.3323113              -9.0427 (HOMO)
       127                         -0.2751276              -7.4866 (LUMO)
       128                         -0.2512404              -6.8366
       129                         -0.2301473              -6.2626
       130                         -0.2296444              -6.2489
       131                         -0.2288737              -6.2280
       132                         -0.2227842              -6.0623
       133                         -0.2204911              -5.9999
       134                         -0.2122613              -5.7759
       135                         -0.2085002              -5.6736
       136                         -0.2077724              -5.6538
       137                         -0.2063801              -5.6159
       ...                                ...                  ...
       249                          0.7405986              20.1527
      -------------------------------------------------------------
                  HL-Gap            0.0571837 Eh            1.5560 eV

     #   Z          covCN         q      C6AA      α(0)
     1   6 C        3.758    -0.107    22.599     6.778
     2   6 C        2.963     0.013    27.717     8.635
     3   6 C        2.929    -0.056    29.401     8.892
     4   6 C        2.967     0.011    27.757     8.642
     5   6 C        3.759    -0.113    22.705     6.793
     6   6 C        2.890    -0.085    30.124     8.998
     7   5 B        2.710     0.247    17.752     7.065
     8   6 C        2.884    -0.064    29.580     8.916
     9   6 C        2.924    -0.027    28.673     8.781
    10   6 C        2.918    -0.045    29.107     8.847
    11   6 C        2.914     0.064    26.563     8.451
    12   7 N        2.803    -0.041    22.024     6.970
    13   6 C        3.079     0.048    26.849     8.495
    14   6 C        2.910    -0.050    29.236     8.866
    15   6 C        2.924    -0.032    28.807     8.802
    16   6 C        2.920    -0.040    28.990     8.830
    17   6 C        2.912    -0.032    28.796     8.799
    18   6 C        3.068    -0.017    28.354     8.731
    19   6 C        3.069    -0.016    28.345     8.730
    20   6 C        2.915    -0.044    29.092     8.845
    21   6 C        2.922     0.054    26.792     8.488
    22   7 N        2.753    -0.073    22.663     7.070
    23   6 C        2.924     0.043    27.027     8.526
    24   6 C        2.924    -0.061    29.526     8.911
    25   6 C        2.919    -0.040    28.987     8.829
    26   6 C        2.919    -0.042    29.054     8.839
    27   6 C        2.920    -0.057    29.429     8.896
    28   6 C        2.883     0.123    25.294     8.245
    29   8 O        1.708    -0.259    18.295     5.775
    30   6 C        2.883     0.123    25.296     8.245
    31   6 C        2.920    -0.057    29.427     8.896
    32   6 C        2.919    -0.042    29.053     8.839
    33   6 C        2.919    -0.040    28.983     8.828
    34   6 C        2.924    -0.061    29.526     8.911
    35   6 C        2.923     0.043    27.029     8.526
    36   6 C        2.926    -0.044    29.094     8.846
    37   6 C        2.909    -0.050    29.250     8.868
    38   6 C        3.077     0.045    26.902     8.504
    39   6 C        2.918    -0.045    29.115     8.848
    40   6 C        2.924    -0.027    28.676     8.782
    41   6 C        2.890    -0.085    30.125     8.999
    42   6 C        2.967     0.011    27.765     8.643
    43   6 C        3.759    -0.109    22.633     6.782
    44   6 C        2.930    -0.057    29.415     8.894
    45   6 C        2.963     0.013    27.715     8.635
    46   6 C        3.758    -0.107    22.599     6.778
    47   6 C        2.929    -0.056    29.400     8.892
    48   6 C        2.967     0.011    27.758     8.642
    49   6 C        3.759    -0.113    22.704     6.793
    50   6 C        2.967     0.011    27.764     8.643
    51   6 C        3.759    -0.109    22.632     6.782
    52   6 C        2.930    -0.057    29.416     8.895
    53   1 H        0.925     0.041     2.441     2.443
    54   1 H        0.925     0.039     2.465     2.455
    55   1 H        0.924     0.044     2.396     2.421
    56   1 H        0.925     0.024     2.679     2.559
    57   1 H        0.925     0.039     2.464     2.455
    58   1 H        0.925     0.037     2.484     2.464
    59   1 H        0.925     0.049     2.327     2.385
    60   1 H        0.926     0.035     2.522     2.483
    61   1 H        0.926     0.036     2.509     2.477
    62   1 H        0.926     0.030     2.590     2.517
    63   1 H        0.926     0.031     2.572     2.508
    64   1 H        0.926     0.030     2.583     2.513
    65   1 H        0.926     0.033     2.542     2.493
    66   1 H        0.926     0.041     2.434     2.440
    67   1 H        0.926     0.032     2.559     2.502
    68   1 H        0.926     0.032     2.555     2.500
    69   1 H        0.926     0.034     2.525     2.485
    70   1 H        0.926     0.047     2.354     2.399
    71   1 H        0.926     0.047     2.354     2.399
    72   1 H        0.926     0.034     2.524     2.484
    73   1 H        0.926     0.033     2.550     2.497
    74   1 H        0.926     0.032     2.551     2.498
    75   1 H        0.926     0.039     2.458     2.452
    76   1 H        0.926     0.035     2.517     2.481
    77   1 H        0.926     0.035     2.521     2.483
    78   1 H        0.926     0.035     2.523     2.484
    79   1 H        0.925     0.041     2.437     2.441
    80   1 H        0.924     0.040     2.448     2.447
    81   1 H        0.925     0.036     2.499     2.472
    82   1 H        0.925     0.024     2.680     2.560
    83   1 H        0.925     0.039     2.461     2.453
    84   1 H        0.924     0.044     2.396     2.421
    85   1 H        0.925     0.041     2.441     2.443
    86   1 H        0.925     0.024     2.679     2.560
    87   1 H        0.925     0.037     2.485     2.465
    88   1 H        0.925     0.039     2.464     2.455
    89   1 H        0.925     0.049     2.329     2.386
    90   1 H        0.925     0.036     2.499     2.472
    91   1 H        0.925     0.041     2.437     2.441
    92   1 H        0.924     0.040     2.448     2.447
    93   1 H        0.925     0.023     2.682     2.561

molecular dipole:
                 x           y           z       tot (Debye)
 q only:       -1.588       0.248       0.125
   full:       -1.625       0.279       0.152       4.210

 projected vibrational frequencies (cm⁻¹)
eigval :        0.00     0.00     0.00     0.00     0.00     0.00
eigval :        5.97     9.85    11.21    17.83    19.67    21.04
eigval :       24.74    25.07    26.81    30.24    32.15    40.95
eigval :       48.42    51.38    52.63    64.18    84.16    98.97
eigval :      100.96   105.23   112.41   123.36   127.67   133.00
eigval :      137.17   139.68   147.45   161.41   178.09   183.16
eigval :      188.77   200.43   207.36   208.91   216.65   232.07
eigval :      250.44   266.61   269.46   275.47   276.22   281.96
eigval :      301.36   308.82   317.35   324.12   334.37   346.93
eigval :      364.89   376.26   388.60   395.64   399.06   407.91
eigval :      422.83   427.51   433.52   439.82   453.99   464.93
eigval :      479.90   485.80   491.69   498.03   498.51   505.82
eigval :      510.50   511.20   517.98   522.06   522.61   534.90
eigval :      536.61   539.97   560.26   575.58   578.55   597.54
eigval :      599.18   600.46   602.95   604.15   620.19   627.49
eigval :      639.41   660.19   660.66   671.31   678.74   681.45
eigval :      684.18   695.47   707.84   725.14   765.64   775.55
eigval :      777.28   777.85   811.54   815.68   823.22   840.26
eigval :      841.57   853.65   861.10   861.53   870.28   878.63
eigval :      880.12   880.53   885.39   891.18   891.22   891.40
eigval :      893.89   895.56   904.12   910.23   913.15   913.62
eigval :      918.61   922.34   931.32   936.85   943.73   964.61
eigval :      964.82   965.70   974.63   975.17  1020.14  1021.10
eigval :     1022.99  1027.52  1028.90  1029.45  1031.30  1032.71
eigval :     1033.08  1033.45  1040.27  1041.25  1044.39  1044.99
eigval :     1071.49  1089.37  1090.29  1104.86  1107.35  1112.33
eigval :     1125.46  1136.33  1151.03  1166.22  1168.91  1176.13
eigval :     1178.50  1182.67  1183.70  1191.77  1199.56  1204.18
eigval :     1206.46  1220.02  1224.82  1232.37  1235.20  1235.32
eigval :     1242.83  1246.10  1261.50  1271.70  1276.37  1291.06
eigval :     1304.81  1305.37  1307.16  1312.25  1321.77  1336.47
eigval :     1338.71  1341.25  1351.89  1356.66  1360.45  1377.40
eigval :     1397.37  1401.70  1401.77  1404.10  1404.32  1405.74
eigval :     1408.73  1421.04  1425.45  1427.77  1429.09  1430.96
eigval :     1444.16  1453.73  1456.62  1472.92  1478.14  1480.67
eigval :     1483.27  1483.49  1484.13  1485.37  1485.66  1486.43
eigval :     1487.25  1488.51  1489.20  1489.40  1492.72  1496.52
eigval :     1497.06  1508.12  1546.60  1562.03  1562.65  1565.52
eigval :     1567.08  1581.32  1583.78  1586.35  1590.41  1597.47
eigval :     1601.25  1603.46  1604.97  1614.75  2992.76  2993.56
eigval :     2996.07  2996.40  3011.37  3011.94  3013.81  3014.52
eigval :     3028.51  3029.07  3032.43  3033.27  3037.02  3037.24
eigval :     3037.53  3037.80  3058.84  3059.10  3061.92  3061.96
eigval :     3062.73  3063.33  3071.97  3073.15  3078.62  3084.17
eigval :     3085.13  3085.40  3085.70  3086.41  3086.87  3091.35
eigval :     3095.15  3096.14  3096.43  3097.59  3098.50  3103.17
eigval :     3103.92  3110.80  3111.48

   temp. (K)  partition function   enthalpy   heat capacity  entropy
                                   cal/mol     cal/K/mol   cal/K/mol   J/K/mol
 298.15  VIB  0.386E+25            28135.627    165.505    179.574
         ROT  0.131E+09              888.752      2.981     40.127
         INT  0.506E+33            29024.380    168.486    219.701
         TR   0.169E+29             1481.254      4.968     45.379
         TOT                       30505.6334   173.4544   265.0796  1109.0929

       T/K    H(0)-H(T)+PV         H(T)/Eh          T*S/Eh         G(T)/Eh
   ------------------------------------------------------------------------
    298.15    0.486138E-01    0.786870E+00    0.125948E+00    0.660922E+00
   ------------------------------------------------------------------------

         :::::::::::::::::::::::::::::::::::::::::::::::::::::
         ::                  THERMODYNAMIC                  ::
         :::::::::::::::::::::::::::::::::::::::::::::::::::::
         :: total free energy        -134.255724256720 Eh   ::
         ::.................................................::
         :: total energy             -134.916646750804 Eh   ::
         :: zero point energy           0.738256527416 Eh   ::
         :: G(RRHO) w/o ZPVE           -0.077334033332 Eh   ::
         :: G(RRHO) contrib.            0.660922494084 Eh   ::
         :::::::::::::::::::::::::::::::::::::::::::::::::::::

           -------------------------------------------------
          | TOTAL ENERGY             -134.916646750804 Eh   |
          | TOTAL ENTHALPY           -134.129776402087 Eh   |
          | TOTAL FREE ENERGY        -134.255724256720 Eh   |
          | GRADIENT NORM               0.000193477806 Eh/α |
          | HOMO-LUMO GAP               1.556047394788 eV   |
           -------------------------------------------------

 * finished run on 2025/07/19 at 04:59:05.670
