   * xtb version 6.7.1 (edcfbbe) compiled by 'albert@albert-system' on 2024-07-22

   ID    Z sym.   atoms
    1    8 O      1, 21
    2   15 P      2
    3    6 C      3-20, 22-34, 36-65
    4    7 N      35
    5    1 H      66-105

          program call               : xtb data2507/gas/9CzFDBFSPO/9CzFDBFSPO_gas_S0_finalOpt.xtbopt.xyz --gfn 2 --spinpol --tblite --uhf 2 --ohess vtight --parallel 40 --molden --ceasefiles --namespace data2507/gas/9CzFDBFSPO/9CzFDBFSPO_gas_T1_preOpt
 * total energy  :  -164.5946500 Eh     change        0.5695085E-08 Eh
 * total energy  :  -164.5964037 Eh     change       -0.1753733E-02 Eh
 * total energy  :  -164.5969098 Eh     change       -0.5061190E-03 Eh
 * total energy  :  -164.5970323 Eh     change       -0.1225369E-03 Eh
 * total energy  :  -164.5971615 Eh     change       -0.1291129E-03 Eh
 * total energy  :  -164.5972302 Eh     change       -0.6879065E-04 Eh
 * total energy  :  -164.5972846 Eh     change       -0.5434580E-04 Eh
 * total energy  :  -164.5973166 Eh     change       -0.3205204E-04 Eh
 * total energy  :  -164.5973390 Eh     change       -0.2238433E-04 Eh
 * total energy  :  -164.5973600 Eh     change       -0.2096655E-04 Eh
 * total energy  :  -164.5974888 Eh     change       -0.1910085E-06 Eh
 * total energy  :  -164.5974891 Eh     change       -0.2776983E-06 Eh
 * total energy  :  -164.5974893 Eh     change       -0.2392586E-06 Eh
 * total energy  :  -164.5974894 Eh     change       -0.1174857E-06 Eh
 * total energy  :  -164.5974896 Eh     change       -0.2093734E-06 Eh
 * total energy  :  -164.5974898 Eh     change       -0.1525060E-06 Eh
 * total energy  :  -164.5974899 Eh     change       -0.1576027E-06 Eh
 * total energy  :  -164.5974902 Eh     change       -0.2260954E-06 Eh
 * total energy  :  -164.5974902 Eh     change       -0.7942927E-07 Eh
   *** GEOMETRY OPTIMIZATION CONVERGED AFTER 55 ITERATIONS ***

 final structure:
================
105
 xtb: 6.7.1 (edcfbbe)
O          -10.37345448711331       -0.22224875021156       -0.79711343736851
P           -9.08378101854822        0.31970649338651       -0.35087086987337
C           -8.35970741625489        1.52670069604453       -1.51160885442044
C           -7.80670592413489        1.02900175448224       -2.68325952386806
C           -7.27895653557552        1.89551214821102       -3.62198076919275
C           -7.31164527263675        3.26216471916919       -3.39355555315466
C           -7.88065628373644        3.76001185211170       -2.23332278696393
C           -8.40756549146515        2.89365462883662       -1.29082106916771
C           -9.16193041738164        1.13425857392503        1.27311565178922
C          -10.37391004955603        1.08790093895627        1.94723304569045
C          -10.49381505034018        1.66934428887204        3.19689056800753
C           -9.39988642528652        2.29393045890580        3.77334143910311
C           -8.18745834665292        2.33766193150884        3.10115034888160
C           -8.06338615166642        1.75841358088479        1.85216346842848
C           -7.80454772408917       -0.96040844795378       -0.18907157098660
C           -8.19344113532675       -2.29427115293171       -0.10101737650187
C           -7.26069427005092       -3.31711763122177        0.00902019516682
C           -5.90319488634352       -3.05018959613829        0.02650424522562
C           -5.48786529002867       -1.72420735636201       -0.06559120385718
C           -6.44493792406023       -0.69631801218559       -0.16320690916091
O           -5.86272131613837        0.52984243566948       -0.24530223703681
C           -4.51890309411080        0.31687699838628       -0.21265267360439
C           -3.52935005477486        1.27904339904841       -0.27369408828176
C           -2.21698025027856        0.84608749885052       -0.21668336531864
C           -1.88647827597778       -0.51261334035569       -0.10892544211484
C           -0.47572584610730       -0.91995151987946       -0.05784364893628
C           -0.02849090023856       -2.03740337529777       -0.76008238680019
C            1.29906785182020       -2.41517065247963       -0.72153872025067
C            2.22055545755715       -1.68729204344597        0.02057375433766
C            3.66256355277484       -2.12768139282558        0.11953813781912
C            4.63310871175625       -0.97859322530867        0.16126322248542
C            4.41238427459693        0.16783986634594       -0.62393307900970
C            5.31647837885666        1.19328748544405       -0.65392034069613
C            6.51949771398319        1.10860128382227        0.08445144181369
N            7.43478651495065        2.13471935228584        0.05733263794190
C            8.81051802575321        1.98958723540604       -0.04018296933484
C            9.56184014632519        0.84352480384296       -0.21999485401182
C           10.94723544811178        0.97751892789430       -0.32459667248767
C           11.54749160471140        2.23412800432206       -0.26312064023412
C           10.80044264814251        3.39249138304860       -0.12341387715885
C            9.41155302913623        3.28606578735644       -0.02714470763691
C            8.35418141452232        4.23128944294065        0.06981369258497
C            8.30366522732496        5.62525116294296        0.13483388770138
C            7.07120899770989        6.23932328091324        0.28579702124769
C            5.89246602976603        5.50207238700438        0.38801996398089
C            5.91523836724296        4.10843893937014        0.31526635777576
C            7.13531310237706        3.48731377225825        0.12630740592970
C            6.75862893010420       -0.05708550080711        0.84789928219329
C            5.83389727981759       -1.06533379257543        0.88548391812688
C            4.13215619234809       -3.00265164302356       -1.03066772523809
C            4.23700270242361       -2.68589667739321       -2.36818959557756
C            4.72002677010917       -3.64689672329128       -3.24462867959995
C            5.11002315117774       -4.89961218750318       -2.78274909260706
C            5.01859298826175       -5.22038862579740       -1.44101950765748
C            4.52583207919097       -4.26909068468204       -0.55810818383245
C            4.30396305821436       -4.32151484379769        0.87023688762023
C            4.50199301518296       -5.34460296810704        1.78807889062398
C            4.19646387648595       -5.11267558086514        3.11763458659442
C            3.69789001329086       -3.88506117215367        3.53078081473606
C            3.49470424640704       -2.85659869596969        2.61730274248514
C            3.80330184119732       -3.07881120644268        1.29476630426094
C            1.77503980105950       -0.58264313204719        0.73949036600871
C            0.44991043987909       -0.20027359606910        0.69544106077005
C           -2.89196154094724       -1.47024522954260       -0.05321884408526
C           -4.21562397551380       -1.05699576310656       -0.10038156816291
H           -7.79559962810388       -0.04118612194087       -2.84633445327269
H           -6.84133845158019        1.50872847122489       -4.53107607003184
H           -6.89649436319474        3.94071865786731       -4.12470516758712
H           -7.91334905400403        4.82647604219647       -2.06190959144390
H           -8.85404989804635        3.27543569399090       -0.38282403748917
H          -11.21037089884643        0.59659410769800        1.47123580177009
H          -11.43764586909886        1.63688520062332        3.72145727894636
H           -9.49029688849378        2.74928568326014        4.74892678554052
H           -7.33720214731331        2.82692153007709        3.55455764441774
H           -7.12496810049546        1.79395057430153        1.31953169760973
H           -9.25091167617459       -2.51101850195229       -0.13626626951063
H           -7.60343489696605       -4.33901998015694        0.07528540351166
H           -5.17826367463387       -3.84558855978403        0.10446084050155
H           -3.77774245927687        2.32427073311843       -0.36755964909435
H           -1.42119300908383        1.57265953880285       -0.28056917863145
H           -0.72600702653786       -2.60208969121206       -1.36107186952154
H            1.62669238998814       -3.28116290713160       -1.27821011193075
H            3.51045043163407        0.23482036556988       -1.21437163088353
H            5.15606040483725        2.04622114547856       -1.29559215724981
H            9.10114475454713       -0.12865980029665       -0.30358429373835
H           11.55509035438797        0.09803777457866       -0.46326856640384
H           12.62253268670054        2.30449794040644       -0.34254886088351
H           11.27664538514252        4.35997083788209       -0.09631931020641
H            9.20999000333686        6.20714701578109        0.07587363479044
H            7.02030616763395        7.31695104201151        0.34146592859936
H            4.95248848162231        6.00963217909762        0.53330906789054
H            5.00316785907504        3.54304997933713        0.42820990532648
H            7.64644628970084       -0.10774348597913        1.45946316944274
H            6.01740931375653       -1.93462528178676        1.49886013481896
H            3.94024349471636       -1.71390107714234       -2.73397679077272
H            4.79472156833210       -3.41945521975598       -4.29761092778913
H            5.48990784154245       -5.62849568976705       -3.48367575591637
H            5.32488790629941       -6.19258194124906       -1.08440679489216
H            4.88680900879471       -6.30186965259036        1.46957634000193
H            4.34529470839514       -5.89739498651226        3.84512414640342
H            3.46274202739402       -3.72648484066256        4.57271822778650
H            3.10213754575047       -1.90501028307668        2.94416373075119
H            2.47637125859391       -0.01521881140059        1.33525466234232
H            0.12050104174407        0.65267164797577        1.27073694616645
H           -2.65003930683417       -2.51695275839367        0.04952177640942

 projected vibrational frequencies (cm⁻¹)
eigval :       -0.00    -0.00    -0.00     0.00     0.00     0.00
eigval :        6.25     7.21     8.69    11.99    16.84    18.64
eigval :       25.78    29.52    30.82    32.63    37.04    45.83
eigval :       47.34    53.85    58.12    62.42    70.89    82.85
eigval :       87.74    97.30   101.44   106.90   118.98   123.65
eigval :      134.59   139.96   150.45   155.90   161.86   175.33
eigval :      181.96   196.67   204.77   214.12   221.92   234.08
eigval :      236.33   238.14   245.25   259.80   268.03   269.03
eigval :      276.00   283.73   298.24   307.87   322.38   336.12
eigval :      350.74   361.98   362.42   366.83   374.55   381.02
eigval :      383.90   384.28   389.82   394.15   400.97   405.67
eigval :      411.05   412.92   422.99   434.32   441.01   449.25
eigval :      454.57   463.46   465.04   473.92   482.07   495.98
eigval :      498.46   512.61   518.56   529.37   533.13   540.65
eigval :      545.33   548.32   564.98   571.39   579.24   584.78
eigval :      586.28   586.48   592.42   599.56   605.04   611.29
eigval :      616.66   618.00   645.48   649.25   656.24   656.87
eigval :      661.89   668.84   675.26   676.65   684.61   690.42
eigval :      698.82   707.41   708.72   718.94   720.13   739.96
eigval :      740.22   740.82   742.49   742.96   745.59   751.51
eigval :      762.83   776.95   791.19   801.22   807.03   818.21
eigval :      823.73   825.73   828.97   834.24   841.43   853.33
eigval :      865.73   867.73   869.52   871.47   874.00   875.68
eigval :      877.58   877.89   878.94   882.15   884.72   888.18
eigval :      894.13   895.95   896.85   900.57   901.22   902.11
eigval :      904.20   904.65   906.24   912.64   914.63   917.55
eigval :      919.34   921.14   922.86   923.64   926.58   929.91
eigval :      932.93   933.04   933.69   972.61   976.67   989.73
eigval :      999.47  1000.11  1006.78  1032.39  1054.20  1057.06
eigval :     1070.56  1071.11  1072.64  1077.03  1078.62  1086.30
eigval :     1092.99  1099.71  1112.88  1114.58  1121.61  1125.39
eigval :     1129.92  1134.79  1139.11  1142.26  1143.14  1145.84
eigval :     1149.65  1160.88  1169.26  1172.26  1176.18  1179.72
eigval :     1180.54  1181.16  1187.82  1190.70  1190.76  1192.26
eigval :     1199.16  1199.66  1208.02  1214.72  1216.44  1219.41
eigval :     1224.16  1228.98  1233.47  1242.70  1245.85  1253.55
eigval :     1257.75  1259.71  1265.59  1266.85  1270.37  1272.98
eigval :     1275.19  1277.92  1282.49  1304.88  1317.52  1321.11
eigval :     1323.25  1325.15  1329.16  1332.21  1342.38  1342.78
eigval :     1359.86  1377.11  1378.08  1382.65  1383.71  1402.34
eigval :     1411.68  1413.73  1420.64  1424.18  1427.07  1428.42
eigval :     1443.26  1445.65  1451.12  1452.07  1454.28  1457.86
eigval :     1458.75  1460.59  1466.61  1472.55  1473.26  1497.65
eigval :     1507.09  1514.46  1534.10  1539.95  1543.79  1552.75
eigval :     1560.66  1567.83  1575.35  1577.26  1579.63  1580.10
eigval :     1583.75  1586.80  1589.75  1590.76  1598.58  3051.49
eigval :     3063.21  3067.28  3070.55  3071.76  3073.75  3074.29
eigval :     3075.49  3077.40  3078.07  3078.40  3079.18  3079.44
eigval :     3079.48  3080.46  3081.29  3082.09  3083.04  3085.01
eigval :     3086.02  3087.20  3087.74  3088.64  3089.04  3089.08
eigval :     3089.35  3089.71  3090.09  3092.89  3093.27  3093.53
eigval :     3094.67  3096.08  3097.01  3097.97  3098.10  3098.63
eigval :     3103.80  3106.52  3106.87

   temp. (K)  partition function   enthalpy   heat capacity  entropy
                                   cal/mol     cal/K/mol   cal/K/mol   J/K/mol
 298.15  VIB  0.138E+27            31325.970    195.128    197.136
         ROT  0.308E+09              888.752      2.981     41.824
         INT  0.424E+35            32214.722    198.109    238.961
         TR   0.240E+29             1481.254      4.968     46.076
         TOT                       33695.9764   203.0768   285.0367  1192.5937

       T/K    H(0)-H(T)+PV         H(T)/Eh          T*S/Eh         G(T)/Eh
   ------------------------------------------------------------------------
    298.15    0.536980E-01    0.847780E+00    0.135430E+00    0.712350E+00
   ------------------------------------------------------------------------

         :::::::::::::::::::::::::::::::::::::::::::::::::::::
         ::                  THERMODYNAMIC                  ::
         :::::::::::::::::::::::::::::::::::::::::::::::::::::
         :: total free energy        -163.885140377999 Eh   ::
         ::.................................................::
         :: total energy             -164.597490263224 Eh   ::
         :: zero point energy           0.794082083568 Eh   ::
         :: G(RRHO) w/o ZPVE           -0.081732198343 Eh   ::
         :: G(RRHO) contrib.            0.712349885224 Eh   ::
         :::::::::::::::::::::::::::::::::::::::::::::::::::::

           -------------------------------------------------
          | TOTAL ENERGY             -164.597490263224 Eh   |
          | TOTAL ENTHALPY           -163.749710223212 Eh   |
          | TOTAL FREE ENERGY        -163.885140377999 Eh   |
          | GRADIENT NORM               0.000119449637 Eh/α |
           -------------------------------------------------

 * finished run on 2025/07/17 at 13:57:57.046
