   * xtb version 6.7.1 (edcfbbe) compiled by 'albert@albert-system' on 2024-07-22

   ID    Z sym.   atoms
    1    8 O      1, 21
    2   15 P      2
    3    6 C      3-20, 22-34, 36-65
    4    7 N      35
    5    1 H      66-105

          program call               : xtb data2507/gas/9CzFDBFSPO/9CzFDBFSPO_gas_T1_crest.xyz --gfn 2 --spinpol --tblite --uhf 2 --ohess vtight --parallel 40 --molden --ceasefiles --namespace data2507/gas/9CzFDBFSPO/9CzFDBFSPO_gas_T1_finalOpt
 * total energy  :  -164.6020902 Eh     change       -0.3440437E-07 Eh
 * total energy  :  -164.6021565 Eh     change       -0.6632212E-04 Eh
 * total energy  :  -164.6021865 Eh     change       -0.2995021E-04 Eh
 * total energy  :  -164.6021910 Eh     change       -0.4519381E-05 Eh
 * total energy  :  -164.6021954 Eh     change       -0.4422893E-05 Eh
 * total energy  :  -164.6021994 Eh     change       -0.4013965E-05 Eh
 * total energy  :  -164.6022046 Eh     change       -0.5231065E-05 Eh
 * total energy  :  -164.6022090 Eh     change       -0.4349297E-05 Eh
 * total energy  :  -164.6022124 Eh     change       -0.3423157E-05 Eh
 * total energy  :  -164.6022151 Eh     change       -0.2722280E-05 Eh
 * total energy  :  -164.6022445 Eh     change       -0.6352609E-06 Eh
 * total energy  :  -164.6022451 Eh     change       -0.5937347E-06 Eh
 * total energy  :  -164.6022456 Eh     change       -0.4826647E-06 Eh
 * total energy  :  -164.6022460 Eh     change       -0.4418432E-06 Eh
 * total energy  :  -164.6022465 Eh     change       -0.4555904E-06 Eh
 * total energy  :  -164.6022470 Eh     change       -0.5590477E-06 Eh
 * total energy  :  -164.6022476 Eh     change       -0.5900842E-06 Eh
 * total energy  :  -164.6022482 Eh     change       -0.6149418E-06 Eh
 * total energy  :  -164.6022482 Eh     change       -0.3444711E-10 Eh
   *** GEOMETRY OPTIMIZATION CONVERGED AFTER 44 ITERATIONS ***

 final structure:
================
105
 xtb: 6.7.1 (edcfbbe)
O           -9.51857008347245        2.82947256582833        0.34832288156218
P           -8.65900411372431        1.65431124212337        0.16012745088172
C           -8.49813842116502        0.61706793568921        1.65175864686578
C           -7.71225432748823        1.10895629725391        2.68473157812285
C           -7.58050644671403        0.38849628545695        3.85695681482416
C           -8.24187490944813       -0.82108376424170        4.00034307985450
C           -9.04093601582439       -1.30282139160612        2.97697886206817
C           -9.17224941515541       -0.58415320313601        1.80104957265810
C           -9.20381791809754        0.56175440196089       -1.18760710007638
C          -10.30466713562777        0.96918101206256       -1.92731564667094
C          -10.75612851966715        0.19374327013730       -2.98053060153767
C          -10.10324895268913       -0.98669890477741       -3.29546918499472
C           -9.00094314401015       -1.39261929762247       -2.55812936190325
C           -8.54720579124819       -0.62139054810469       -1.50433859547234
C           -6.94617747391157        2.09999171526759       -0.25451541575620
C           -6.68352307848055        3.37503990956587       -0.74519087759762
C           -5.39841021997151        3.77741925992766       -1.07386940522062
C           -4.31807268437997        2.91787054479828       -0.91860581618938
C           -4.55143524022021        1.64464334890004       -0.42669377184066
C           -5.86403885907104        1.24499774838378       -0.10455825523084
O           -5.90566287792933       -0.02706172221606        0.36831166599939
C           -4.62641862330080       -0.48005982362364        0.37232857566401
C           -4.17059251433572       -1.73657429123914        0.79506504735040
C           -2.83593075458940       -1.99211927954805        0.72314639147118
C           -1.86564745608638       -1.03777528293845        0.21877740995717
C           -0.50281014842621       -1.34166015518127        0.14448806384660
C            0.44422948577499       -0.49126218457745       -0.54384898704025
C            1.76685157324532       -0.78607514201478       -0.60851616225024
C            2.30371322975011       -1.93689203742074        0.01697800778823
C            3.75767460397097       -2.28807814377016       -0.13614139399728
C            4.66498907122914       -1.08033133027350       -0.12634826834053
C            4.41286523572448       -0.02792380754759        0.74799242459411
C            5.26285784606350        1.05740763836104        0.81200758242535
C            6.38713262715025        1.11234413847789       -0.00724720814723
N            7.24595930348135        2.21800017793507        0.04487867797174
C            6.86249696972412        3.54128984326434       -0.04003706686626
C            5.60040071260322        4.08505594525077       -0.23379531614059
C            5.49571058272498        5.46095335477664       -0.30851064893499
C            6.61562646959399        6.28238894624505       -0.20288271063116
C            7.87735906183955        5.74584247277336       -0.03411571101373
C            8.00796060115939        4.36633077140645        0.04401570032312
C            9.13416582348111        3.48619757961588        0.19252392282168
C           10.49818026904661        3.69663842328669        0.33892056925400
C           11.32473893845374        2.59939663666817        0.48437062395444
C           10.80473002362555        1.30725277744616        0.50050058351781
C            9.45057604093278        1.07229390697846        0.35652528623179
C            8.61827499590724        2.16952421523770        0.18501107539009
C            6.64867511963797        0.05918826469639       -0.87849521368408
C            5.79810652934854       -1.02800018360132       -0.92819499785034
C            3.84551776218337       -3.12477940185972       -1.40135361148516
C            3.52050377857500       -2.76907289963681       -2.69410211581478
C            3.64813558711935       -3.71929830840033       -3.69655789924677
C            4.08010916995192       -5.00640651821447       -3.40691968439803
C            4.39947956137680       -5.37153707305182       -2.10983919633143
C            4.28141832025375       -4.42587612196010       -1.10419768974207
C            4.54920109818014       -4.51173803518803        0.32037187699801
C            5.01878884199173       -5.56001601078589        1.09554513494951
C            5.18560628286121       -5.35723728681138        2.45569764147845
C            4.89218367913256       -4.13076314681293        3.03223582215509
C            4.42169824385211       -3.07607951337527        2.26057546167789
C            4.24878539482180       -3.27424421609476        0.90827736718149
C            1.39963742301047       -2.80399538959782        0.67135856248839
C            0.07142461714269       -2.53086876093011        0.73688991732119
C           -2.38210401837607        0.24447934010833       -0.20346584478968
C           -3.71994567948841        0.50222598358906       -0.11753558200424
H           -7.20850858109455        2.05859473731616        2.55608969717225
H           -6.96299102739375        0.76652568092929        4.65894157347522
H           -8.13729077939398       -1.38709699761657        4.91460852468743
H           -9.56266332051531       -2.24171985710630        3.09490305852587
H           -9.79461130724671       -0.95423699085066        0.99779853806721
H          -10.79468850193182        1.89347270113468       -1.65678729414847
H          -11.61510330718315        0.50780203183855       -3.55536768668464
H          -10.45321432517762       -1.59437970531865       -4.11730638089358
H           -8.49553377485968       -2.31472818509681       -2.80706430292068
H           -7.69431920252464       -0.93468311898888       -0.92107877685268
H           -7.51897858057428        4.05198746820115       -0.84938518199924
H           -5.23437600869107        4.77575930303638       -1.45041325763694
H           -3.31720428270762        3.23438838799749       -1.16874564862708
H           -4.87035389352403       -2.46973741636035        1.16486506390549
H           -2.48927191589202       -2.96414168216305        1.02959143510958
H            0.08717842609334        0.38623531871341       -1.05708658403257
H            2.43527462915701       -0.12779614996219       -1.14619825517353
H            3.53918930757665       -0.06013200432058        1.38285560660770
H            5.07032938504433        1.86069838823535        1.50745425073535
H            4.72895625992629        3.45586124755775       -0.33413021161554
H            4.52414825378838        5.90903026966300       -0.45549846676968
H            6.49196459364098        7.35329731211184       -0.26347633995235
H            8.74683658608449        6.38216493576261        0.03174047957025
H           10.89979196808024        4.69861144955498        0.34295054206613
H           12.38918813240275        2.74111497626428        0.59711570567017
H           11.47414903190242        0.47010538299124        0.63226192656069
H            9.05442732228547        0.06855150294774        0.38885263242542
H            7.51112414403175        0.10504532726940       -1.52646704709979
H            6.01113271686216       -1.84029816815254       -1.60739301570458
H            3.17868452125290       -1.77140238054681       -2.92587976672672
H            3.40652079015455       -3.45433266003986       -4.71531548636907
H            4.16601801312245       -5.73072034842197       -4.20361153315937
H            4.73331379772788       -6.37388998833129       -1.88635236814946
H            5.24960965262618       -6.51562400232261        0.64890987878609
H            5.54957845388437       -6.16348032457240        3.07574802323198
H            5.03069322624378       -3.99299878246085        4.09444296437784
H            4.19519457699202       -2.12338150249236        2.71576014790722
H            1.78484718551254       -3.69951345143297        1.13789942644469
H           -0.56549894889502       -3.21145321930339        1.27683772215565
H           -1.71635399246953        1.01390243675389       -0.55437538067800

 projected vibrational frequencies (cm⁻¹)
eigval :       -0.00    -0.00    -0.00     0.00     0.00     0.00
eigval :        5.13     5.85     9.08    11.86    16.04    20.72
eigval :       24.36    27.26    31.60    33.86    34.92    42.52
eigval :       47.74    53.85    57.25    59.99    66.52    81.60
eigval :       85.90    92.73    97.11   104.78   106.47   120.94
eigval :      126.97   136.69   145.21   151.29   168.40   174.45
eigval :      180.13   187.90   197.60   210.56   219.59   235.63
eigval :      237.07   238.74   243.04   256.74   266.65   271.37
eigval :      275.98   279.22   280.71   314.24   318.11   321.40
eigval :      351.74   355.27   361.56   362.39   366.71   367.98
eigval :      384.40   387.20   390.05   392.35   405.52   408.32
eigval :      413.09   414.36   418.29   423.84   436.72   446.21
eigval :      454.41   460.03   472.23   483.26   495.68   505.27
eigval :      513.66   518.00   519.87   529.67   535.68   535.88
eigval :      538.76   540.11   566.60   568.73   579.32   583.20
eigval :      586.14   586.28   586.74   594.62   598.43   601.21
eigval :      618.60   623.02   639.24   646.12   656.28   657.88
eigval :      661.62   670.51   674.16   677.52   689.40   691.92
eigval :      696.96   708.59   720.21   721.13   724.44   735.67
eigval :      741.66   744.26   754.12   756.57   757.36   765.88
eigval :      767.52   769.67   772.05   772.94   780.29   783.33
eigval :      794.46   814.48   819.26   841.42   857.54   867.30
eigval :      873.18   875.05   876.11   878.69   882.10   882.46
eigval :      885.09   887.72   888.94   891.94   898.49   900.19
eigval :      901.39   903.34   903.60   906.58   907.29   909.38
eigval :      911.25   911.93   913.22   920.13   921.53   924.18
eigval :      926.67   926.77   927.51   929.94   933.27   934.16
eigval :      936.17   947.90   953.31   969.90   972.66   976.81
eigval :     1002.29  1012.21  1013.43  1022.95  1069.96  1073.39
eigval :     1075.26  1077.34  1078.78  1080.68  1082.56  1093.32
eigval :     1103.26  1113.25  1114.93  1117.75  1122.59  1128.44
eigval :     1130.82  1138.48  1142.65  1150.48  1154.00  1170.08
eigval :     1172.04  1173.48  1176.21  1180.42  1180.61  1181.14
eigval :     1181.88  1183.28  1190.19  1191.74  1193.52  1196.46
eigval :     1201.86  1204.55  1214.86  1216.42  1223.12  1235.14
eigval :     1235.31  1239.75  1244.52  1251.29  1258.90  1259.71
eigval :     1268.35  1270.01  1272.68  1273.08  1274.33  1285.65
eigval :     1298.42  1299.35  1314.69  1321.01  1321.65  1323.02
eigval :     1326.71  1338.64  1341.58  1356.06  1357.05  1358.91
eigval :     1363.14  1366.77  1367.86  1385.01  1399.81  1407.75
eigval :     1419.42  1423.11  1424.28  1427.14  1427.39  1429.51
eigval :     1450.88  1452.26  1455.72  1457.62  1459.73  1470.00
eigval :     1471.81  1486.83  1489.70  1492.24  1499.93  1522.24
eigval :     1564.71  1565.03  1573.10  1574.38  1578.45  1581.67
eigval :     1583.69  1584.57  1586.81  1586.89  1589.71  1592.73
eigval :     1592.97  1594.25  1598.66  1605.87  1614.84  3050.76
eigval :     3063.69  3064.69  3071.79  3073.00  3074.54  3075.33
eigval :     3075.84  3076.44  3077.51  3078.11  3078.49  3079.59
eigval :     3080.24  3081.50  3082.26  3082.63  3082.83  3083.75
eigval :     3084.59  3086.94  3088.82  3089.03  3089.14  3089.59
eigval :     3090.01  3091.44  3092.74  3093.43  3093.53  3094.75
eigval :     3095.62  3095.82  3096.30  3097.77  3098.40  3104.88
eigval :     3108.29  3122.13  3125.65

   temp. (K)  partition function   enthalpy   heat capacity  entropy
                                   cal/mol     cal/K/mol   cal/K/mol   J/K/mol
 298.15  VIB  0.382E+27            31410.979    194.316    198.636
         ROT  0.306E+09              888.752      2.981     41.809
         INT  0.117E+36            32299.732    197.296    240.445
         TR   0.240E+29             1481.254      4.968     46.076
         TOT                       33780.9855   202.2646   286.5211  1198.8041

       T/K    H(0)-H(T)+PV         H(T)/Eh          T*S/Eh         G(T)/Eh
   ------------------------------------------------------------------------
    298.15    0.538334E-01    0.850770E+00    0.136135E+00    0.714634E+00
   ------------------------------------------------------------------------

         :::::::::::::::::::::::::::::::::::::::::::::::::::::
         ::                  THERMODYNAMIC                  ::
         :::::::::::::::::::::::::::::::::::::::::::::::::::::
         :: total free energy        -163.887613875340 Eh   ::
         ::.................................................::
         :: total energy             -164.602248238575 Eh   ::
         :: zero point energy           0.796936334867 Eh   ::
         :: G(RRHO) w/o ZPVE           -0.082301971631 Eh   ::
         :: G(RRHO) contrib.            0.714634363236 Eh   ::
         :::::::::::::::::::::::::::::::::::::::::::::::::::::

           -------------------------------------------------
          | TOTAL ENERGY             -164.602248238575 Eh   |
          | TOTAL ENTHALPY           -163.751478476657 Eh   |
          | TOTAL FREE ENERGY        -163.887613875340 Eh   |
          | GRADIENT NORM               0.000064526471 Eh/α |
           -------------------------------------------------

 * finished run on 2025/07/17 at 14:18:13.740
