   * xtb version 6.7.1 (edcfbbe) compiled by 'albert@albert-system' on 2024-07-22

   ID    Z sym.   atoms
    1    8 O      1, 21
    2   15 P      2
    3    6 C      3-20, 22-34, 36-65
    4    7 N      35
    5    1 H      66-105

          program call               : xtb data2507/gas/9CzFDBFSPO/9CzFDBFSPO_gas_S0_crest.xyz --gfn 2 --ohess vtight --parallel 40 --molden --ceasefiles --namespace data2507/gas/9CzFDBFSPO/9CzFDBFSPO_gas_S0_finalOpt
          :  Hamiltonian                  GFN2-xTB          :
 * total energy  :  -164.7089230 Eh     change       -0.1460961E-08 Eh
 * total energy  :  -164.7089243 Eh     change       -0.1305713E-05 Eh
 * total energy  :  -164.7089253 Eh     change       -0.9955933E-06 Eh
 * total energy  :  -164.7089269 Eh     change       -0.1644008E-05 Eh
 * total energy  :  -164.7089265 Eh     change        0.4472288E-06 Eh
 * total energy  :  -164.7089277 Eh     change       -0.1215787E-05 Eh
 * total energy  :  -164.7089285 Eh     change       -0.8526151E-06 Eh
 * total energy  :  -164.7089300 Eh     change       -0.1499598E-05 Eh
 * total energy  :  -164.7089314 Eh     change       -0.1325212E-05 Eh
 * total energy  :  -164.7089323 Eh     change       -0.9597767E-06 Eh
 * total energy  :  -164.7089473 Eh     change       -0.2259473E-06 Eh
 * total energy  :  -164.7089476 Eh     change       -0.2419344E-06 Eh
 * total energy  :  -164.7089479 Eh     change       -0.3187864E-06 Eh
 * total energy  :  -164.7089483 Eh     change       -0.3738791E-06 Eh
 * total energy  :  -164.7089487 Eh     change       -0.4615597E-06 Eh
 * total energy  :  -164.7089492 Eh     change       -0.5137396E-06 Eh
 * total energy  :  -164.7089497 Eh     change       -0.5029081E-06 Eh
 * total energy  :  -164.7089503 Eh     change       -0.5231780E-06 Eh
 * total energy  :  -164.7089503 Eh     change       -0.1071322E-07 Eh
   *** GEOMETRY OPTIMIZATION CONVERGED AFTER 44 ITERATIONS ***

 final structure:
================
105
 xtb: 6.7.1 (edcfbbe)
O          -10.34601738827720       -0.23403193112714       -0.74166323130002
P           -9.05602168218065        0.32217651469984       -0.31610802718948
C           -8.34003072468534        1.50785252776317       -1.50210031367322
C           -7.82064084865096        0.98905032796528       -2.68021719653769
C           -7.29716503530755        1.83721990878313       -3.63785919135651
C           -7.30047505503589        3.20628341872352       -3.42164637333037
C           -7.83567516374476        3.72508093521110       -2.25451655148399
C           -8.35818847662982        2.87734037140346       -1.29277861180122
C           -9.11783372451170        1.15626586638008        1.29828847789665
C          -10.33034112346304        1.14189651409997        1.97219884257741
C          -10.44002442423344        1.74730269172323        3.21168575483322
C           -9.33567463936631        2.36365257567716        3.77657167466591
C           -8.12302079692792        2.37615010329115        3.10377344267704
C           -8.00912808165440        1.77321160746499        1.86485633910168
C           -7.76986880149118       -0.95599370285071       -0.14831638497465
C           -8.15716468330548       -2.28355859191532       -0.03652328934536
C           -7.22394072866909       -3.30844185773794        0.07415602412704
C           -5.86759519507466       -3.04102027775097        0.06702727292684
C           -5.45367051155803       -1.72007718133279       -0.05039080115948
C           -6.40967265141242       -0.69105045619945       -0.14953725613126
O           -5.82768424402292        0.53141616716625       -0.25794670531370
C           -4.48287608204401        0.31578193412990       -0.24036922869578
C           -3.49184441596481        1.27591486117798       -0.32891537498276
C           -2.18139680505621        0.84070465617796       -0.28205214701725
C           -1.85069275707815       -0.51486630909945       -0.15648664527187
C           -0.43892460476113       -0.92500054285490       -0.11315021805484
C            0.00060933713696       -2.04512810113379       -0.81287539417391
C            1.32706289436685       -2.42954448218644       -0.77521222241492
C            2.25399135559269       -1.70404823629953       -0.03838257082418
C            3.69630937116617       -2.15515424802540        0.06403857688750
C            4.66678886483492       -0.99351466955238        0.10893733024595
C            4.45817945441616        0.12186554335033       -0.69551504687397
C            5.36554418015453        1.16202923818529       -0.71301541301913
C            6.50555234281584        1.10849516424039        0.08345787507515
N            7.42191587137265        2.16859959011011        0.07804588167058
C            8.78663265826023        2.05752427095191       -0.09850600061264
C            9.55586218528676        0.93140190920364       -0.35439733577082
C           10.91674141793991        1.10418358992696       -0.51857697754733
C           11.50533424794895        2.36456547371185       -0.44020976319319
C           10.74200580770498        3.49132469967344       -0.20961481285039
C            9.37152802308449        3.34351802181807       -0.04114503646997
C            8.29845199608093        4.27000110160077        0.18740108227407
C            8.24394849966938        5.64786319507231        0.35126559240571
C            7.01813134135454        6.23863538319071        0.58352947447380
C            5.85798415733017        5.47190906614088        0.66759696691535
C            5.88653721557228        4.09987169840524        0.50781402354066
C            7.11244085481955        3.50279995630232        0.25082442794745
C            6.72395872888261       -0.00814669561286        0.88358687973205
C            5.81694347508551       -1.05046323540991        0.88545356971990
C            4.12644671068181       -3.07273231366870       -1.06538518072832
C            4.24796722814059       -2.78621988519722       -2.40812465060590
C            4.67949801259076       -3.78877212662209       -3.26629703471337
C            4.98755641477732       -5.05214520326300       -2.78526157412473
C            4.87350189020320       -5.34394550988963       -1.43570501066709
C            4.44260884033100       -4.34761803350570       -0.57539289890053
C            4.23070178351774       -4.35716582599516        0.86293293559901
C            4.38433036727634       -5.36902803062051        1.79619588823558
C            4.10476292915083       -5.09443978415093        3.12507497842264
C            3.67720538133951       -3.83424149310779        3.51435321684196
C            3.52057918073197       -2.81669818200294        2.58278635182622
C            3.80409007702960       -3.08228370623468        1.26032800164691
C            1.81508812242269       -0.59448021594189        0.67584634513666
C            0.49103940805702       -0.20635241883729        0.63382867847977
C           -2.85704100362083       -1.46940095874991       -0.07334662780726
C           -4.17863479102104       -1.05344599724445       -0.11185414075306
H           -7.83277890318672       -0.08258060339439       -2.83362502636177
H           -6.88585003151916        1.43432670469054       -4.55211420954208
H           -6.88884575861776        3.87038421161295       -4.16773876264598
H           -7.84550318017610        4.79336184596677       -2.09258923513021
H           -8.77797965385754        3.27582804836029       -0.37935156186048
H          -11.17473919552832        0.65540796252501        1.50536237272758
H          -11.38389247580946        1.73961587695978        3.73686993290784
H           -9.41813865303493        2.83742004119954        4.74397061957037
H           -7.26475165011363        2.85941493387617        3.54813814525772
H           -7.07082255239446        1.78545246111747        1.33105217414106
H           -9.21536510653418       -2.50031553786024       -0.05185086048241
H           -7.56710715052083       -4.32842309196419        0.16034880818653
H           -5.14178502540200       -3.83584171833210        0.14552825931520
H           -3.74002272816510        2.31992906432964       -0.43508398475067
H           -1.38463663679867        1.56446709124206       -0.36493930810368
H           -0.70070454644605       -2.60992123583936       -1.40958537738976
H            1.64523909054540       -3.30117659391744       -1.32819839446410
H            3.57373530812165        0.17965710818358       -1.31309355207339
H            5.20299606361394        2.01555364985123       -1.35418987866553
H            9.10654098495450       -0.04708830767887       -0.43482709720118
H           11.53781244644204        0.24274473057415       -0.71578495997890
H           12.57318358654741        2.45715030663432       -0.57162353403317
H           11.19571455648336        4.46994861543949       -0.16475285295795
H            9.14527678224602        6.24002350762906        0.30155662893194
H            6.95347555130021        7.30895811380716        0.71153781846911
H            4.91531614203820        5.96076609382287        0.86565538940880
H            4.98451125727887        3.51239197340515        0.59158788216278
H            7.60033349602888       -0.05007617755817        1.51280188580860
H            6.00200005518522       -1.91319273154847        1.50811516040590
H            4.01028900274480       -1.80451903354261       -2.78999510437773
H            4.77651083216200       -3.58100375034062       -4.32174746357742
H            5.32162391756660       -5.81661222549853       -3.47146914335007
H            5.11630463811713       -6.32788728484118       -1.06301834895755
H            4.71451125394539       -6.35201620062361        1.49503730110653
H            4.21934735285047       -5.87089246873360        3.86729732605548
H            3.46268831523437       -3.64114477710389        4.55515579077383
H            3.18603348288677       -1.83786742436158        2.89272225236574
H            2.51881971543192       -0.02332198767073        1.26425769146172
H            0.16766227878571        0.65146856808100        1.20541343148868
H           -2.61523003396545       -2.51490720621587        0.04100241199970

          :  Hamiltonian                  GFN2-xTB          :
         :: gradient norm              0.000073738022 Eh/a0 ::
         :: HOMO-LUMO gap              2.569736692494 eV    ::
         :: SCC energy              -167.762071000259 Eh    ::
         :: -> dispersion             -0.156317423117 Eh    ::
         :: repulsion energy           3.053120724732 Eh    ::

    * Orbital Energies and Occupations

         #    Occupation            Energy/Eh            Energy/eV
      -------------------------------------------------------------
         1        2.0000           -0.7455323             -20.2870
       ...           ...                  ...                  ...
       141        2.0000           -0.4111450             -11.1878
       142        2.0000           -0.4109275             -11.1819
       143        2.0000           -0.4052908             -11.0285
       144        2.0000           -0.4035040             -10.9799
       145        2.0000           -0.4024295             -10.9507
       146        2.0000           -0.4015305             -10.9262
       147        2.0000           -0.4003383             -10.8938
       148        2.0000           -0.3978446             -10.8259
       149        2.0000           -0.3969582             -10.8018
       150        2.0000           -0.3862117             -10.5094
       151        2.0000           -0.3830070             -10.4222
       152        2.0000           -0.3767701             -10.2524
       153        2.0000           -0.3605458              -9.8110 (HOMO)
       154                         -0.2661098              -7.2412 (LUMO)
       155                         -0.2577008              -7.0124
       156                         -0.2535488              -6.8994
       157                         -0.2474339              -6.7330
       158                         -0.2447046              -6.6588
       159                         -0.2400179              -6.5312
       160                         -0.2368738              -6.4457
       161                         -0.2339840              -6.3670
       162                         -0.2338940              -6.3646
       163                         -0.2324125              -6.3243
       164                         -0.2304352              -6.2705
       ...                                ...                  ...
       305                          1.2186066              33.1600
      -------------------------------------------------------------
                  HL-Gap            0.0944361 Eh            2.5697 eV

     #   Z          covCN         q      C6AA      α(0)
     1   8 O        0.808    -0.356    20.849     6.121
     2  15 P        4.056     0.085   156.493    22.472
     3   6 C        2.921     0.020    27.552     8.608
     4   6 C        3.023    -0.016    28.375     8.738
     5   6 C        2.919    -0.026    28.643     8.776
     6   6 C        2.921    -0.025    28.631     8.775
     7   6 C        2.920    -0.026    28.656     8.778
     8   6 C        2.977    -0.021    28.516     8.759
     9   6 C        2.921     0.012    27.742     8.637
    10   6 C        3.027    -0.021    28.493     8.756
    11   6 C        2.919    -0.027    28.683     8.782
    12   6 C        2.920    -0.025    28.631     8.775
    13   6 C        2.920    -0.028    28.704     8.786
    14   6 C        2.977    -0.027    28.669     8.783
    15   6 C        2.908    -0.015    28.389     8.737
    16   6 C        3.014    -0.025    28.610     8.774
    17   6 C        2.919    -0.038    28.935     8.821
    18   6 C        2.913    -0.031    28.774     8.796
    19   6 C        3.054    -0.021    28.465     8.750
    20   6 C        3.156     0.132    24.842     8.150
    21   8 O        1.715    -0.219    17.635     5.670
    22   6 C        3.105     0.127    25.097     8.209
    23   6 C        2.907    -0.052    29.288     8.874
    24   6 C        2.932    -0.036    28.907     8.817
    25   6 C        2.977     0.004    27.918     8.667
    26   6 C        2.978     0.008    27.840     8.655
    27   6 C        2.925    -0.035    28.866     8.811
    28   6 C        2.922    -0.036    28.890     8.814
    29   6 C        2.980     0.016    27.653     8.626
    30   6 C        3.947     0.008    20.382     6.415
    31   6 C        2.979     0.014    27.691     8.632
    32   6 C        2.924    -0.033    28.834     8.806
    33   6 C        2.922    -0.044    29.096     8.846
    34   6 C        2.913     0.062    26.615     8.460
    35   7 N        2.803    -0.044    22.093     6.981
    36   6 C        3.076     0.047    26.875     8.499
    37   6 C        2.910    -0.051    29.264     8.870
    38   6 C        2.924    -0.033    28.834     8.806
    39   6 C        2.920    -0.041    29.020     8.834
    40   6 C        2.913    -0.033    28.821     8.803
    41   6 C        3.068    -0.017    28.369     8.734
    42   6 C        3.068    -0.017    28.367     8.733
    43   6 C        2.913    -0.033    28.819     8.803
    44   6 C        2.920    -0.041    29.024     8.835
    45   6 C        2.924    -0.034    28.842     8.807
    46   6 C        2.910    -0.051    29.270     8.871
    47   6 C        3.076     0.047    26.876     8.500
    48   6 C        2.922    -0.044    29.086     8.844
    49   6 C        2.923    -0.035    28.873     8.812
    50   6 C        3.058     0.004    27.890     8.661
    51   6 C        2.914    -0.034    28.837     8.806
    52   6 C        2.922    -0.032    28.797     8.800
    53   6 C        2.921    -0.032    28.803     8.801
    54   6 C        2.915    -0.034    28.839     8.806
    55   6 C        3.035     0.001    27.968     8.674
    56   6 C        3.035     0.001    27.968     8.674
    57   6 C        2.915    -0.034    28.840     8.806
    58   6 C        2.921    -0.032    28.804     8.801
    59   6 C        2.922    -0.032    28.800     8.801
    60   6 C        2.914    -0.034    28.837     8.806
    61   6 C        3.058     0.003    27.890     8.661
    62   6 C        2.922    -0.035    28.860     8.810
    63   6 C        2.924    -0.036    28.886     8.814
    64   6 C        2.918    -0.038    28.944     8.822
    65   6 C        3.055    -0.019    28.428     8.744
    66   1 H        0.925     0.040     2.448     2.447
    67   1 H        0.926     0.037     2.492     2.468
    68   1 H        0.926     0.037     2.488     2.467
    69   1 H        0.926     0.037     2.494     2.470
    70   1 H        0.925     0.038     2.478     2.462
    71   1 H        0.926     0.064     2.151     2.294
    72   1 H        0.926     0.039     2.462     2.454
    73   1 H        0.926     0.037     2.494     2.470
    74   1 H        0.926     0.035     2.519     2.482
    75   1 H        0.926     0.050     2.325     2.385
    76   1 H        0.926     0.069     2.102     2.267
    77   1 H        0.926     0.045     2.387     2.416
    78   1 H        0.926     0.043     2.405     2.425
    79   1 H        0.926     0.046     2.366     2.406
    80   1 H        0.926     0.043     2.407     2.426
    81   1 H        0.926     0.033     2.546     2.495
    82   1 H        0.926     0.033     2.549     2.497
    83   1 H        0.926     0.036     2.502     2.473
    84   1 H        0.926     0.041     2.437     2.441
    85   1 H        0.926     0.027     2.634     2.538
    86   1 H        0.926     0.028     2.609     2.526
    87   1 H        0.926     0.028     2.622     2.532
    88   1 H        0.926     0.031     2.579     2.511
    89   1 H        0.926     0.030     2.579     2.511
    90   1 H        0.926     0.027     2.625     2.534
    91   1 H        0.926     0.028     2.618     2.530
    92   1 H        0.926     0.026     2.649     2.545
    93   1 H        0.926     0.041     2.433     2.439
    94   1 H        0.926     0.037     2.493     2.469
    95   1 H        0.926     0.030     2.593     2.518
    96   1 H        0.926     0.031     2.566     2.505
    97   1 H        0.926     0.031     2.566     2.505
    98   1 H        0.926     0.032     2.556     2.500
    99   1 H        0.926     0.032     2.556     2.500
   100   1 H        0.926     0.031     2.567     2.505
   101   1 H        0.926     0.031     2.568     2.506
   102   1 H        0.926     0.030     2.591     2.517
   103   1 H        0.926     0.031     2.570     2.507
   104   1 H        0.926     0.033     2.549     2.497
   105   1 H        0.926     0.041     2.430     2.438

molecular dipole:
                 x           y           z       tot (Debye)
 q only:        1.222      -0.135       0.487
   full:        1.402      -0.092       0.570       3.855

 projected vibrational frequencies (cm⁻¹)
eigval :       -0.00    -0.00    -0.00     0.00     0.00     0.00
eigval :        6.42     7.57     8.80    12.23    16.55    20.06
eigval :       26.60    29.17    30.54    32.77    38.40    45.74
eigval :       48.87    54.18    58.10    61.56    69.80    83.56
eigval :       88.75    93.56   103.30   107.15   119.20   124.55
eigval :      137.04   144.18   150.55   154.43   162.22   177.24
eigval :      183.42   199.02   206.84   214.37   224.70   235.39
eigval :      237.86   242.26   245.90   268.93   269.78   271.88
eigval :      280.08   285.75   301.22   314.85   322.90   349.22
eigval :      358.52   362.53   366.89   376.65   384.71   387.13
eigval :      389.03   391.38   397.86   405.25   406.31   411.83
eigval :      415.53   422.49   426.46   437.76   450.23   456.03
eigval :      467.38   475.19   480.08   497.86   506.22   516.62
eigval :      519.62   523.66   533.96   535.06   539.36   541.30
eigval :      544.87   546.93   576.14   582.32   586.40   586.58
eigval :      588.59   594.38   596.17   608.26   612.03   617.58
eigval :      623.74   626.48   652.14   657.80   661.89   673.05
eigval :      674.06   679.24   688.38   691.43   693.69   703.64
eigval :      708.30   712.75   722.06   725.72   729.04   741.16
eigval :      744.16   750.31   755.71   759.28   769.55   770.01
eigval :      780.86   785.05   800.33   807.75   819.99   831.09
eigval :      837.73   846.64   867.43   873.28   873.73   877.23
eigval :      877.29   878.84   880.51   882.33   882.91   883.20
eigval :      893.98   896.92   901.69   902.00   902.48   903.40
eigval :      906.02   907.90   909.33   910.64   912.11   919.65
eigval :      920.04   921.46   921.96   926.88   927.08   927.51
eigval :      928.07   930.59   933.43   933.57   935.00   936.06
eigval :      937.06   956.54   972.82   976.97  1007.68  1010.97
eigval :     1012.26  1026.09  1037.16  1070.25  1073.88  1074.75
eigval :     1076.58  1077.56  1078.78  1081.68  1094.04  1108.37
eigval :     1113.08  1114.95  1118.43  1123.69  1131.79  1137.62
eigval :     1140.61  1144.69  1148.03  1152.89  1166.31  1175.35
eigval :     1176.44  1177.35  1179.93  1180.87  1181.32  1181.51
eigval :     1184.29  1185.23  1191.17  1192.67  1203.80  1205.46
eigval :     1207.56  1210.12  1223.62  1228.64  1237.18  1237.33
eigval :     1242.09  1248.05  1251.17  1256.89  1260.77  1264.53
eigval :     1270.83  1271.74  1273.11  1277.29  1285.81  1301.03
eigval :     1304.94  1309.17  1315.78  1321.03  1322.77  1322.90
eigval :     1327.30  1340.74  1354.02  1357.56  1362.66  1366.28
eigval :     1369.95  1386.50  1401.36  1408.40  1419.25  1424.35
eigval :     1427.09  1428.65  1429.15  1432.03  1433.78  1452.13
eigval :     1456.68  1457.71  1462.58  1472.70  1473.83  1476.99
eigval :     1488.82  1494.16  1502.11  1563.31  1567.11  1571.30
eigval :     1576.17  1583.09  1586.28  1586.55  1586.84  1587.31
eigval :     1589.48  1589.77  1591.09  1594.67  1599.47  1599.70
eigval :     1600.22  1604.31  1604.77  1615.26  1615.63  3051.70
eigval :     3064.89  3072.53  3072.74  3073.81  3074.75  3075.00
eigval :     3075.34  3075.76  3077.28  3077.71  3079.13  3080.38
eigval :     3080.45  3080.63  3081.60  3081.69  3083.21  3083.45
eigval :     3084.79  3085.36  3087.21  3087.54  3089.00  3089.14
eigval :     3089.32  3089.72  3090.06  3090.71  3090.97  3093.25
eigval :     3093.85  3094.64  3095.00  3095.08  3096.21  3096.80
eigval :     3098.07  3099.23  3105.78

   temp. (K)  partition function   enthalpy   heat capacity  entropy
                                   cal/mol     cal/K/mol   cal/K/mol   J/K/mol
 298.15  VIB  0.698E+26            30864.211    191.815    194.539
         ROT  0.308E+09              888.752      2.981     41.826
         INT  0.215E+35            31752.963    194.796    236.365
         TR   0.240E+29             1481.254      4.968     46.076
         TOT                       33234.2168   199.7641   282.4410  1181.7332

       T/K    H(0)-H(T)+PV         H(T)/Eh          T*S/Eh         G(T)/Eh
   ------------------------------------------------------------------------
    298.15    0.529621E-01    0.855165E+00    0.134197E+00    0.720968E+00
   ------------------------------------------------------------------------

         :::::::::::::::::::::::::::::::::::::::::::::::::::::
         ::                  THERMODYNAMIC                  ::
         :::::::::::::::::::::::::::::::::::::::::::::::::::::
         :: total free energy        -163.987982141026 Eh   ::
         ::.................................................::
         :: total energy             -164.708950275525 Eh   ::
         :: zero point energy           0.802202877641 Eh   ::
         :: G(RRHO) w/o ZPVE           -0.081234743142 Eh   ::
         :: G(RRHO) contrib.            0.720968134499 Eh   ::
         :::::::::::::::::::::::::::::::::::::::::::::::::::::

           -------------------------------------------------
          | TOTAL ENERGY             -164.708950275525 Eh   |
          | TOTAL ENTHALPY           -163.853785302256 Eh   |
          | TOTAL FREE ENERGY        -163.987982141026 Eh   |
          | GRADIENT NORM               0.000073734241 Eh/α |
          | HOMO-LUMO GAP               2.569736063157 eV   |
           -------------------------------------------------

 * finished run on 2025/07/17 at 13:57:25.119
