   * xtb version 6.7.1 (edcfbbe) compiled by 'albert@albert-system' on 2024-07-22

   ID    Z sym.   atoms
    1    8 O      1, 21
    2   15 P      2
    3    6 C      3-20, 22-34, 36-65
    4    7 N      35
    5    1 H      66-105

          program call               : xtb data2507/gas/9CzFDBFSPO/9CzFDBFSPO.xyz --gfn 2 --ohess vtight --parallel 40 --molden --ceasefiles --namespace data2507/gas/9CzFDBFSPO/9CzFDBFSPO_gas_S0_preOpt
          :  Hamiltonian                  GFN2-xTB          :
 * total energy  :  -164.6757687 Eh     change       -0.2157321E-08 Eh
 * total energy  :  -164.6957843 Eh     change       -0.2001559E-01 Eh
 * total energy  :  -164.7014864 Eh     change       -0.5702054E-02 Eh
 * total energy  :  -164.7030637 Eh     change       -0.1577332E-02 Eh
 * total energy  :  -164.7043536 Eh     change       -0.1289838E-02 Eh
 * total energy  :  -164.7049344 Eh     change       -0.5808682E-03 Eh
 * total energy  :  -164.7052307 Eh     change       -0.2963052E-03 Eh
 * total energy  :  -164.7054427 Eh     change       -0.2119314E-03 Eh
 * total energy  :  -164.7056086 Eh     change       -0.1659421E-03 Eh
 * total energy  :  -164.7057584 Eh     change       -0.1498161E-03 Eh
 * total energy  :  -164.7077243 Eh     change       -0.4080303E-06 Eh
 * total energy  :  -164.7077247 Eh     change       -0.4604445E-06 Eh
 * total energy  :  -164.7077253 Eh     change       -0.6175384E-06 Eh
 * total energy  :  -164.7077261 Eh     change       -0.8090820E-06 Eh
 * total energy  :  -164.7077271 Eh     change       -0.9347122E-06 Eh
 * total energy  :  -164.7077281 Eh     change       -0.1006924E-05 Eh
 * total energy  :  -164.7077293 Eh     change       -0.1250112E-05 Eh
 * total energy  :  -164.7077309 Eh     change       -0.1601290E-05 Eh
 * total energy  :  -164.7077309 Eh     change       -0.6552455E-08 Eh
   *** GEOMETRY OPTIMIZATION CONVERGED AFTER 185 ITERATIONS ***

 final structure:
================
105
 xtb: 6.7.1 (edcfbbe)
O           -9.34549965226270       -1.32065870034820       -0.69632947691700
P           -8.94719968334205       -0.06183815267031       -0.05693906361611
C           -8.41427615311196        1.22570130772025       -1.22679548332073
C           -8.84421857622608        1.09324607576099       -2.53866513785879
C           -8.47678433774487        2.03121257115349       -3.48661550112449
C           -7.67667229214348        3.10144256095674       -3.12182204105842
C           -7.24235453960465        3.23175278786062       -1.81201953884119
C           -7.61069956182401        2.29710628977617       -0.86201266745430
C          -10.27261597054958        0.68695711441042        0.94038345781318
C          -11.48793491374302        0.01928847754184        0.97412869042738
C          -12.54264134895351        0.53473059623345        1.70655473213607
C          -12.38137045187658        1.72050863912098        2.40384903426455
C          -11.16793135120859        2.39073340800587        2.36812095114715
C          -10.11265950545431        1.87811840023609        1.63672736036364
C           -7.53688364388881       -0.25093846810398        1.08272653357160
C           -7.61822042500291       -0.31635031766782        2.46513344102749
C           -6.48812756104539       -0.55729123683578        3.24186757091288
C           -5.24392807280887       -0.74761020565052        2.66936521114417
C           -5.13797330016412       -0.69639930333125        1.28514928409216
C           -6.28992897921727       -0.45283960265313        0.51370342114180
O           -6.02280922652258       -0.43074065876200       -0.81323795009389
C           -4.68693232318792       -0.66670856334913       -0.93321007099343
C           -3.96170084508494       -0.74070748142520       -2.10855455689230
C           -2.60791124699588       -0.99603331514024       -2.00503418894086
C           -1.97409154361245       -1.16684359176828       -0.76726171983260
C           -0.52902663151440       -1.43641570531411       -0.71290524557121
C            0.06363420102255       -2.33853764736063       -1.59161813305131
C            1.41946066113386       -2.59803803723729       -1.53345904592618
C            2.22589554191781       -1.94985557110158       -0.60712670178705
C            3.70102673121583       -2.27466439417195       -0.49102654398392
C            4.54509886746001       -1.05703995195814       -0.17808933072346
C            4.25685688255293        0.16604561753225       -0.77420253717864
C            5.05395836106121        1.26998159153591       -0.54629092708866
C            6.17355867458718        1.16651508166744        0.27384369024118
N            6.98825974000112        2.28376202463619        0.50249975103941
C            7.51988634976836        3.10667966276887       -0.47008102421171
C            7.43299581385318        3.01237535869252       -1.85174851686725
C            8.08990429986364        3.96566245636230       -2.60567340688346
C            8.82498916434515        4.98704457755663       -2.00770133114584
C            8.93510909907215        5.07185695281334       -0.63433568530208
C            8.28390247767844        4.12491972924117        0.14522118610373
C            8.19956802063706        3.89891480453613        1.56075838367116
C            8.71596006883750        4.56132778160384        2.66660480819875
C            8.41819211208344        4.07909859313690        3.92529048387272
C            7.60497741567598        2.95984135476283        4.08956953167660
C            7.07943213728089        2.28397770444560        3.00522250921219
C            7.39393849240283        2.75023827924495        1.73672225509051
C            6.47577765818776       -0.05795902544417        0.86041248372110
C            5.66712394049091       -1.15527304357962        0.63494591634808
C            4.27873812118349       -2.92586586797965       -1.73379814389668
C            4.43910251335332       -2.38669113733872       -2.99209778440866
C            5.01370317450750       -3.17034733560445       -3.98378582796667
C            5.42345548526056       -4.46760026429130       -3.71605202070728
C            5.27095461825076       -5.01237717523394       -2.45139166200174
C            4.69781581433948       -4.23498779592601       -1.45864066763434
C            4.41742475971897       -4.52761729626155       -0.06240463552150
C            4.62696106155430       -5.67536273780324        0.68402072480021
C            4.25807222480254       -5.67534375974673        2.01943906491640
C            3.68874748567988       -4.55129973741211        2.59798621712963
C            3.47522070880900       -3.39877124055732        1.85386637427090
C            3.84585450203442       -3.39099370230889        0.52635057728464
C            1.63615039985611       -1.05206172189649        0.27608470555666
C            0.27981941754362       -0.80004848707481        0.22518570669631
C           -2.71204687871790       -1.08333705150445        0.40688159056592
C           -4.07379883089051       -0.83703342701424        0.32522072573293
H           -9.45382174633325        0.23974885489910       -2.79879850589745
H           -8.80906869600138        1.92741599440093       -4.50929532624209
H           -7.38401624522094        3.83384677345528       -3.86014190896343
H           -6.61052278286207        4.06288804078020       -1.53302807068900
H           -7.25800506110435        2.38884079933903        0.15614042766765
H          -11.58378399606295       -0.90440813555778        0.42189973637551
H          -13.48851228653846        0.01390464951100        1.73469558025722
H          -13.20217972640339        2.12587821588087        2.97730558471158
H          -11.04641956611638        3.31569006229563        2.91318240598657
H           -9.16595616015464        2.39728925273882        1.60777301985461
H           -8.57814797836779       -0.17507227546429        2.94115598532234
H           -6.59138437493701       -0.59858240271268        4.31598430818520
H           -4.37415937621596       -0.93572695103902        3.27989943247301
H           -4.44347464337234       -0.60411982243001       -3.06322766023735
H           -2.01245545072546       -1.04792468045563       -2.90417271720807
H           -0.54858649161519       -2.86113868775754       -2.31187038699800
H            1.85452344434560       -3.31328886915635       -2.21602279086037
H            3.38795048256911        0.26152130750235       -1.40895828597541
H            4.80660988194653        2.22139543772133       -0.99314919087298
H            6.88133479064676        2.21365957413192       -2.32445768081672
H            8.03549911812758        3.91566631875413       -3.68331172036634
H            9.32176566412226        5.71463875300580       -2.63220076156435
H            9.51823205246368        5.85350453148929       -0.17110736531573
H            9.33379966419213        5.43748742409252        2.53930651989901
H            8.81176569123368        4.57795452939625        4.79846175799535
H            7.37762873949169        2.61448439218506        5.08748846433657
H            6.43699615082717        1.42723885283843        3.14315397930106
H            7.35538520320351       -0.14975391167102        1.47979442470584
H            5.91759599168990       -2.10128653757187        1.09171394091959
H            4.12208359550640       -1.37697303001961       -3.20722044655643
H            5.14323879611491       -2.76380078327870       -4.97603727004079
H            5.86822647521134       -5.05888696637815       -4.50311020661158
H            5.59335012006759       -6.02194825532161       -2.24452673674963
H            5.06787644836224       -6.55280057266833        0.23497533662255
H            4.41383279968109       -6.56132392784650        2.61749446051469
H            3.40677655341383       -4.57226158597069        3.64043487097758
H            3.02976196442729       -2.52751627565540        2.31052928640449
H            2.24676886502080       -0.53563849692777        1.00286423533031
H           -0.15680072732158       -0.08548696847429        0.90787282050139
H           -2.23900033485035       -1.23167071532882        1.36559464838606

          :  Hamiltonian                  GFN2-xTB          :
         :: gradient norm              0.000055816834 Eh/a0 ::
         :: HOMO-LUMO gap              2.639431218682 eV    ::
         :: SCC energy              -167.761235705317 Eh    ::
         :: -> dispersion             -0.155779840509 Eh    ::
         :: repulsion energy           3.053504768118 Eh    ::

    * Orbital Energies and Occupations

         #    Occupation            Energy/Eh            Energy/eV
      -------------------------------------------------------------
         1        2.0000           -0.7404510             -20.1487
       ...           ...                  ...                  ...
       141        2.0000           -0.4113899             -11.1945
       142        2.0000           -0.4088149             -11.1244
       143        2.0000           -0.4029276             -10.9642
       144        2.0000           -0.4023689             -10.9490
       145        2.0000           -0.4012404             -10.9183
       146        2.0000           -0.3998585             -10.8807
       147        2.0000           -0.3987930             -10.8517
       148        2.0000           -0.3975620             -10.8182
       149        2.0000           -0.3946221             -10.7382
       150        2.0000           -0.3847220             -10.4688
       151        2.0000           -0.3806547             -10.3581
       152        2.0000           -0.3759854             -10.2311
       153        2.0000           -0.3596924              -9.7877 (HOMO)
       154                         -0.2626951              -7.1483 (LUMO)
       155                         -0.2560007              -6.9661
       156                         -0.2528885              -6.8814
       157                         -0.2496912              -6.7944
       158                         -0.2439030              -6.6369
       159                         -0.2369627              -6.4481
       160                         -0.2357167              -6.4142
       161                         -0.2332406              -6.3468
       162                         -0.2327050              -6.3322
       163                         -0.2326662              -6.3312
       164                         -0.2309249              -6.2838
       ...                                ...                  ...
       305                          1.2217974              33.2468
      -------------------------------------------------------------
                  HL-Gap            0.0969973 Eh            2.6394 eV

     #   Z          covCN         q      C6AA      α(0)
     1   8 O        0.808    -0.351    20.743     6.105
     2  15 P        4.068     0.087   156.406    22.465
     3   6 C        2.921     0.017    27.627     8.620
     4   6 C        3.032    -0.018    28.434     8.747
     5   6 C        2.919    -0.026    28.660     8.779
     6   6 C        2.921    -0.025    28.634     8.775
     7   6 C        2.920    -0.028    28.689     8.784
     8   6 C        2.974    -0.022    28.547     8.764
     9   6 C        2.921     0.009    27.819     8.649
    10   6 C        3.028    -0.021    28.491     8.755
    11   6 C        2.919    -0.027    28.676     8.781
    12   6 C        2.921    -0.025    28.632     8.775
    13   6 C        2.920    -0.028    28.706     8.786
    14   6 C        2.975    -0.026    28.648     8.780
    15   6 C        2.908    -0.012    28.315     8.725
    16   6 C        2.966    -0.028    28.697     8.787
    17   6 C        2.920    -0.038    28.951     8.824
    18   6 C        2.913    -0.031    28.784     8.798
    19   6 C        3.053    -0.021    28.480     8.752
    20   6 C        3.225     0.138    24.293     8.008
    21   8 O        1.715    -0.207    17.441     5.639
    22   6 C        3.112     0.129    25.038     8.197
    23   6 C        2.907    -0.050    29.242     8.867
    24   6 C        2.931    -0.036    28.892     8.815
    25   6 C        2.977     0.004    27.922     8.668
    26   6 C        2.978     0.008    27.829     8.653
    27   6 C        2.925    -0.035    28.868     8.811
    28   6 C        2.922    -0.036    28.891     8.814
    29   6 C        2.980     0.015    27.662     8.627
    30   6 C        3.947     0.008    20.382     6.415
    31   6 C        2.979     0.014    27.687     8.631
    32   6 C        2.924    -0.034    28.836     8.806
    33   6 C        2.922    -0.044    29.097     8.846
    34   6 C        2.913     0.062    26.618     8.460
    35   7 N        2.803    -0.044    22.093     6.981
    36   6 C        3.077     0.047    26.874     8.499
    37   6 C        2.910    -0.051    29.265     8.871
    38   6 C        2.924    -0.034    28.838     8.806
    39   6 C        2.920    -0.041    29.024     8.835
    40   6 C        2.913    -0.033    28.822     8.803
    41   6 C        3.068    -0.017    28.371     8.734
    42   6 C        3.068    -0.017    28.370     8.734
    43   6 C        2.912    -0.033    28.821     8.803
    44   6 C        2.920    -0.041    29.025     8.835
    45   6 C        2.924    -0.034    28.840     8.807
    46   6 C        2.910    -0.051    29.268     8.871
    47   6 C        3.076     0.047    26.875     8.500
    48   6 C        2.922    -0.044    29.083     8.844
    49   6 C        2.923    -0.035    28.872     8.812
    50   6 C        3.058     0.004    27.887     8.660
    51   6 C        2.914    -0.034    28.836     8.806
    52   6 C        2.922    -0.032    28.799     8.800
    53   6 C        2.921    -0.032    28.803     8.801
    54   6 C        2.915    -0.034    28.836     8.806
    55   6 C        3.035     0.001    27.964     8.674
    56   6 C        3.035     0.001    27.966     8.674
    57   6 C        2.915    -0.034    28.837     8.806
    58   6 C        2.921    -0.032    28.804     8.801
    59   6 C        2.922    -0.032    28.800     8.801
    60   6 C        2.914    -0.034    28.838     8.806
    61   6 C        3.058     0.004    27.888     8.660
    62   6 C        2.922    -0.035    28.865     8.811
    63   6 C        2.924    -0.036    28.884     8.814
    64   6 C        2.918    -0.038    28.940     8.822
    65   6 C        3.058    -0.019    28.422     8.743
    66   1 H        0.926     0.062     2.177     2.307
    67   1 H        0.926     0.039     2.464     2.455
    68   1 H        0.926     0.037     2.496     2.470
    69   1 H        0.926     0.034     2.525     2.485
    70   1 H        0.925     0.032     2.556     2.500
    71   1 H        0.926     0.065     2.147     2.291
    72   1 H        0.926     0.040     2.454     2.450
    73   1 H        0.926     0.037     2.484     2.465
    74   1 H        0.926     0.036     2.507     2.476
    75   1 H        0.926     0.039     2.465     2.455
    76   1 H        0.926     0.044     2.399     2.422
    77   1 H        0.926     0.042     2.422     2.434
    78   1 H        0.926     0.043     2.406     2.426
    79   1 H        0.926     0.050     2.324     2.384
    80   1 H        0.926     0.044     2.398     2.421
    81   1 H        0.926     0.034     2.531     2.488
    82   1 H        0.926     0.033     2.549     2.497
    83   1 H        0.926     0.036     2.498     2.471
    84   1 H        0.926     0.041     2.439     2.442
    85   1 H        0.926     0.026     2.637     2.540
    86   1 H        0.926     0.028     2.613     2.528
    87   1 H        0.926     0.027     2.625     2.534
    88   1 H        0.926     0.030     2.582     2.513
    89   1 H        0.926     0.030     2.582     2.513
    90   1 H        0.926     0.027     2.626     2.534
    91   1 H        0.926     0.028     2.615     2.529
    92   1 H        0.926     0.026     2.642     2.542
    93   1 H        0.926     0.041     2.435     2.440
    94   1 H        0.926     0.037     2.494     2.470
    95   1 H        0.926     0.029     2.600     2.521
    96   1 H        0.926     0.031     2.569     2.507
    97   1 H        0.926     0.031     2.567     2.505
    98   1 H        0.926     0.032     2.556     2.500
    99   1 H        0.926     0.032     2.556     2.500
   100   1 H        0.926     0.031     2.568     2.506
   101   1 H        0.926     0.031     2.571     2.508
   102   1 H        0.926     0.029     2.595     2.519
   103   1 H        0.926     0.031     2.573     2.508
   104   1 H        0.926     0.032     2.557     2.501
   105   1 H        0.926     0.041     2.430     2.438

molecular dipole:
                 x           y           z       tot (Debye)
 q only:        0.318       0.696       0.441
   full:        0.310       0.849       0.541       2.676

 projected vibrational frequencies (cm⁻¹)
eigval :       -0.00    -0.00    -0.00     0.00     0.00     0.00
eigval :        6.00     6.94    10.36    13.08    16.57    19.16
eigval :       22.79    27.49    28.89    31.80    38.63    45.50
eigval :       48.21    54.08    64.65    65.94    72.80    74.10
eigval :       85.35    91.52   100.55   104.85   119.52   125.54
eigval :      136.27   145.19   149.11   152.56   167.20   170.60
eigval :      182.81   196.54   199.78   210.44   222.34   229.63
eigval :      239.46   247.01   249.94   264.60   271.72   275.00
eigval :      285.36   287.50   306.03   320.67   326.27   346.00
eigval :      362.03   366.91   367.49   377.03   383.45   387.16
eigval :      388.42   392.44   396.51   405.86   410.90   412.21
eigval :      415.69   423.59   425.39   435.56   437.89   455.11
eigval :      464.21   479.39   493.72   497.97   504.13   509.62
eigval :      518.88   522.74   530.79   534.13   539.58   541.27
eigval :      545.83   551.55   576.09   582.37   585.50   586.97
eigval :      588.42   593.83   596.38   610.68   612.06   617.45
eigval :      623.01   627.96   652.10   656.30   660.38   672.37
eigval :      674.03   679.34   686.57   691.60   697.33   704.00
eigval :      708.28   714.81   715.55   725.85   729.09   738.74
eigval :      744.82   750.93   755.74   759.45   769.34   770.02
eigval :      780.70   785.03   798.29   807.92   819.73   831.51
eigval :      837.96   849.20   867.32   872.42   873.29   875.76
eigval :      877.19   877.74   880.51   880.94   882.18   883.12
eigval :      891.01   898.12   900.86   901.28   902.39   903.21
eigval :      905.12   905.57   909.24   910.89   911.88   917.47
eigval :      919.82   921.47   922.68   926.16   926.92   927.20
eigval :      927.95   928.68   933.52   933.69   934.34   935.66
eigval :      937.21   956.24   973.77   975.76  1007.79  1010.70
eigval :     1012.30  1025.90  1036.19  1070.16  1073.62  1074.37
eigval :     1076.12  1076.49  1079.20  1081.64  1093.89  1108.39
eigval :     1110.03  1117.18  1118.58  1126.05  1127.37  1136.03
eigval :     1140.55  1144.48  1147.57  1152.86  1170.02  1175.48
eigval :     1176.51  1177.25  1180.64  1181.12  1181.57  1184.13
eigval :     1185.12  1185.61  1188.72  1194.66  1203.73  1205.53
eigval :     1207.41  1209.22  1227.95  1233.48  1237.05  1238.35
eigval :     1242.31  1247.40  1251.22  1259.05  1262.92  1265.07
eigval :     1266.84  1271.65  1274.17  1277.17  1285.91  1301.16
eigval :     1305.09  1308.98  1315.33  1321.87  1322.81  1324.04
eigval :     1327.47  1339.92  1353.19  1357.64  1362.70  1366.41
eigval :     1370.01  1387.98  1401.20  1408.32  1418.58  1424.74
eigval :     1426.63  1428.59  1429.19  1432.11  1433.75  1453.39
eigval :     1455.81  1457.09  1462.65  1472.88  1477.10  1478.02
eigval :     1488.81  1494.05  1501.85  1562.60  1566.91  1571.27
eigval :     1576.11  1583.86  1585.89  1586.44  1587.39  1588.46
eigval :     1589.16  1589.42  1590.87  1594.79  1599.41  1599.61
eigval :     1600.19  1604.37  1604.88  1615.39  1615.73  3059.66
eigval :     3071.88  3072.58  3072.86  3074.54  3074.82  3075.07
eigval :     3075.16  3075.52  3076.72  3077.17  3078.72  3078.99
eigval :     3080.23  3080.50  3081.32  3081.61  3082.03  3083.34
eigval :     3084.22  3085.06  3086.24  3086.97  3087.24  3087.54
eigval :     3088.84  3089.16  3089.48  3090.31  3091.50  3092.37
eigval :     3093.09  3093.24  3093.51  3094.43  3094.75  3096.10
eigval :     3096.61  3098.15  3109.46

   temp. (K)  partition function   enthalpy   heat capacity  entropy
                                   cal/mol     cal/K/mol   cal/K/mol   J/K/mol
 298.15  VIB  0.924E+26            30883.629    191.806    194.868
         ROT  0.328E+09              888.752      2.981     41.946
         INT  0.303E+35            31772.381    194.787    236.814
         TR   0.240E+29             1481.254      4.968     46.076
         TOT                       33253.6350   199.7547   282.8900  1183.6117

       T/K    H(0)-H(T)+PV         H(T)/Eh          T*S/Eh         G(T)/Eh
   ------------------------------------------------------------------------
    298.15    0.529930E-01    0.855154E+00    0.134410E+00    0.720744E+00
   ------------------------------------------------------------------------

         :::::::::::::::::::::::::::::::::::::::::::::::::::::
         ::                  THERMODYNAMIC                  ::
         :::::::::::::::::::::::::::::::::::::::::::::::::::::
         :: total free energy        -163.986987229925 Eh   ::
         ::.................................................::
         :: total energy             -164.707730937198 Eh   ::
         :: zero point energy           0.802160831078 Eh   ::
         :: G(RRHO) w/o ZPVE           -0.081417123805 Eh   ::
         :: G(RRHO) contrib.            0.720743707273 Eh   ::
         :::::::::::::::::::::::::::::::::::::::::::::::::::::

           -------------------------------------------------
          | TOTAL ENERGY             -164.707730937198 Eh   |
          | TOTAL ENTHALPY           -163.852577065574 Eh   |
          | TOTAL FREE ENERGY        -163.986987229925 Eh   |
          | GRADIENT NORM               0.000055815672 Eh/α |
          | HOMO-LUMO GAP               2.639431335814 eV   |
           -------------------------------------------------

 * finished run on 2025/07/17 at 13:40:54.408
