   * xtb version 6.7.1 (edcfbbe) compiled by 'albert@albert-system' on 2024-07-22

   ID    Z sym.   atoms
    1    6 C      1-9, 11-22, 24-41, 45-50
    2    7 N      10, 23
    3   16 S      42
    4    8 O      43, 44
    5    1 H      51-90

          program call               : xtb data2507/toluene/DDMA-TXO2/DDMA-TXO2.xyz --gfn 2 --gbsa toluene --ohess vtight --parallel 40 --molden --ceasefiles --namespace data2507/toluene/DDMA-TXO2/DDMA-TXO2_toluene_S0_preOpt
      * Solvation model:               GBSA
        Solvent                        toluene
        Solvent mass                       9.2140E+01 g/mol
          :  Hamiltonian                  GFN2-xTB          :
 * total energy  :  -134.0736513 Eh     change       -0.1429811E-08 Eh
 * total energy  :  -134.0935134 Eh     change       -0.1986204E-01 Eh
 * total energy  :  -134.1011428 Eh     change       -0.7629413E-02 Eh
 * total energy  :  -134.1029472 Eh     change       -0.1804412E-02 Eh
 * total energy  :  -134.1040410 Eh     change       -0.1093808E-02 Eh
 * total energy  :  -134.1044616 Eh     change       -0.4206112E-03 Eh
 * total energy  :  -134.1046348 Eh     change       -0.1731960E-03 Eh
 * total energy  :  -134.1047154 Eh     change       -0.8055513E-04 Eh
 * total energy  :  -134.1047572 Eh     change       -0.4180991E-04 Eh
 * total energy  :  -134.1047765 Eh     change       -0.1925791E-04 Eh
 * total energy  :  -134.1048907 Eh     change       -0.1250463E-05 Eh
 * total energy  :  -134.1048925 Eh     change       -0.1759617E-05 Eh
 * total energy  :  -134.1048945 Eh     change       -0.1985364E-05 Eh
 * total energy  :  -134.1048968 Eh     change       -0.2361092E-05 Eh
 * total energy  :  -134.1048997 Eh     change       -0.2840565E-05 Eh
 * total energy  :  -134.1049022 Eh     change       -0.2560079E-05 Eh
 * total energy  :  -134.1049038 Eh     change       -0.1537352E-05 Eh
 * total energy  :  -134.1049046 Eh     change       -0.7838341E-06 Eh
 * total energy  :  -134.1049046 Eh     change       -0.8468390E-08 Eh
   *** GEOMETRY OPTIMIZATION CONVERGED AFTER 44 ITERATIONS ***

 final structure:
================
90
 xtb: 6.7.1 (edcfbbe)
C            8.78753058335894       -0.00375650371067       -0.65459557009876
C            7.36132880247145       -0.00309014098950       -1.23653699707630
C            7.41635248186560       -0.00456554763283       -2.77561822334421
C            6.64773194784130       -1.25967923764718       -0.77211191781474
C            7.15958821265306       -2.50428460071105       -1.11421268630815
C            6.55531676959793       -3.68298529951238       -0.71604239730961
C            5.40515547949010       -3.62843682272836        0.05066157997101
C            4.87391886784682       -2.40538890532887        0.40442369092173
C            5.48273007547147       -1.21359938363628        0.00066222680769
N            4.92083471445892        0.00048512819391        0.36743442848268
C            3.73499011472311        0.00229735876730        1.15169726093464
C            3.81326532034964        0.00507394786587        2.54214910489361
C            2.63864124039381        0.00710559849134        3.26354293015546
C            1.41452668643069        0.00621404420210        2.61233081831546
C            1.29949411741128        0.00321739663987        1.23245491929125
C            2.50222519868991        0.00138588221373        0.51862727137462
C           -0.00024819922954        0.00178124632436        0.44187787452926
C           -0.00031805926636        1.27294995005642       -0.43436436686663
C           -0.00041011174761       -1.27281446028609       -0.42939637970832
C           -1.29978004012434        0.00327588868672        1.23280491444898
C           -2.50269478466135        0.00147535921217        0.51929444771476
C           -3.73530052945814        0.00239562323998        1.15267145153995
N           -4.92127963769672        0.00061543905984        0.36861362133769
C           -5.48476331771512        1.21307423729424       -0.00110436329962
C           -4.87769243061473        2.40663707957776        0.40003865272075
C           -5.41047517872506        3.62812516093378        0.04320820256531
C           -6.56040120788758        3.67930372850115       -0.72408247196129
C           -7.16288853906250        2.49884673539533       -1.11975190803614
C           -6.64950967255938        1.25575182059216       -0.77446047480796
C           -7.36090504474188       -0.00289618556979       -1.23666787384331
C           -8.78747989179802       -0.00348028675836       -0.65562399255939
C           -7.41495314009531       -0.00441159345316       -2.77577516828773
C           -6.64764427042963       -1.25950553600951       -0.77178515151938
C           -7.15941123188253       -2.50409687950640       -1.11407046699949
C           -6.55547876339133       -3.68281155101028       -0.71542946785968
C           -5.40573956850229       -3.62829263435081        0.05190989728502
C           -4.87455693376262       -2.40525887281961        0.40580541812506
C           -5.48305117878190       -1.21345515548034        0.00160677506797
C           -3.81322866529489        0.00514371501668        2.54314252863994
C           -2.63841538017885        0.00714469615209        3.26423298785462
C           -1.41446444746207        0.00624944808985        2.61271055361777
S            0.00017471475595        0.00973675317384        3.69037025410726
O            0.00029226918390        1.23840555389836        4.45632764611814
O            0.00026358622633       -1.21364954640952        4.46469462516629
C            5.48454331236101        1.21292693179271       -0.00199369218092
C            4.87724852150005        2.40650554423070        0.39875965898463
C            5.41021874084342        3.62798051453244        0.04217021836338
C            6.56060449995118        3.67913196215318       -0.72443286336609
C            7.16331990534323        2.49866011076966       -1.11970827165888
C            6.64971935445727        1.25557671740551       -0.77470644770824
H            8.74490249158575       -0.00390619745107        0.43341654115882
H            9.33675322253264       -0.88431097378129       -0.97622077333877
H            9.33752979441135        0.87642824016561       -0.97592579821491
H            7.93834506099475        0.87344919873412       -3.14536085031397
H            6.40717284651531       -0.00181784589282       -3.18366444456298
H            7.93292627197369       -0.88639405650702       -3.14388967928567
H            8.05852665134135       -2.56304414764535       -1.70894081479919
H            6.98107790511298       -4.63348526174707       -1.00071115413606
H            4.91815989887886       -4.53638945916618        0.37516398959037
H            3.97736460507951       -2.36961312424737        1.00423239375618
H            4.77397318154425        0.00570931991321        3.03276590672561
H            2.63419514416164        0.00942474938103        4.34262907734782
H            2.50141778283187       -0.00077233907176       -0.55988461085312
H            0.87806509505323        1.30859386913880       -1.07015895552848
H           -0.00006768045054        2.15602265682018        0.20186457185269
H           -0.87900428044727        1.30879385635783       -1.06972643475873
H           -0.87892509575507       -1.31096002455324       -1.06485186768144
H           -0.00054862264151       -2.15335726175240        0.21032111626605
H            0.87811600862156       -1.31121894263773       -1.06482245964916
H           -2.50216478682925       -0.00067178857790       -0.55921718850515
H           -3.98123249991648        2.37351897702424        1.00015336107864
H           -4.92478302738445        4.53748983155998        0.36571078429817
H           -6.98728755960808        4.62855539364123       -1.01123135267694
H           -8.06158278954337        2.55496624648127       -1.71510115056614
H           -8.74551898258705       -0.00366799861619        0.43241227340770
H           -9.33721601489462        0.87675704446240       -0.97726412885512
H           -9.33657392560295       -0.88398193242819       -0.97761875151866
H           -6.40552009870275       -0.00154258234392       -3.18320087472253
H           -7.93117558174573       -0.88632180217736       -3.14433382005629
H           -7.93683404427530        0.87352232088681       -3.14586208209963
H           -8.05804382343598       -2.56283179289636       -1.70926841056375
H           -6.98115666219771       -4.63330245890456       -1.00025673057267
H           -4.91896378181795       -4.53625929325894        0.37670528047699
H           -3.97828448660104       -2.36950649698164        1.00603691645974
H           -4.77380895474877        0.00577833924562        3.03400700846414
H           -2.63369482799231        0.00944074154443        4.34331861820691
H            3.98048190050503        2.37340662452414        0.99841659898765
H            4.92439684282683        4.53735463245030        0.36444879218399
H            6.98770287671061        4.62837297971738       -1.01129795667698
H            8.06235265388915        2.55476032967717       -1.71454674705894

          :  Hamiltonian                  GFN2-xTB          :
         :: gradient norm              0.000066177885 Eh/a0 ::
         :: HOMO-LUMO gap              2.226682591438 eV    ::
         :: SCC energy              -136.364322288343 Eh    ::
         :: -> dispersion             -0.130301574855 Eh    ::
         :: -> Gsolv                  -0.059402624965 Eh    ::
         :: repulsion energy           2.259417726259 Eh    ::

    * Orbital Energies and Occupations

         #    Occupation            Energy/Eh            Energy/eV
      -------------------------------------------------------------
         1        2.0000           -0.7796458             -21.2152
       ...           ...                  ...                  ...
       112        2.0000           -0.4138421             -11.2612
       113        2.0000           -0.4093424             -11.1388
       114        2.0000           -0.4092944             -11.1375
       115        2.0000           -0.4076406             -11.0925
       116        2.0000           -0.4059795             -11.0473
       117        2.0000           -0.4039736             -10.9927
       118        2.0000           -0.4039491             -10.9920
       119        2.0000           -0.3982738             -10.8376
       120        2.0000           -0.3982670             -10.8374
       121        2.0000           -0.3928939             -10.6912
       122        2.0000           -0.3928914             -10.6911
       123        2.0000           -0.3481966              -9.4749
       124        2.0000           -0.3478561              -9.4656 (HOMO)
       125                         -0.2660271              -7.2390 (LUMO)
       126                         -0.2601341              -7.0786
       127                         -0.2555757              -6.9546
       128                         -0.2543116              -6.9202
       129                         -0.2246808              -6.1139
       130                         -0.2246805              -6.1139
       131                         -0.2195153              -5.9733
       132                         -0.2195121              -5.9732
       133                         -0.2185985              -5.9484
       134                         -0.2185974              -5.9483
       135                         -0.1909927              -5.1972
       ...                                ...                  ...
       245                          1.1668949              31.7528
      -------------------------------------------------------------
                  HL-Gap            0.0818291 Eh            2.2267 eV

     #   Z          covCN         q      C6AA      α(0)
     1   6 C        3.761    -0.104    22.532     6.767
     2   6 C        3.908     0.021    20.165     6.383
     3   6 C        3.761    -0.105    22.547     6.769
     4   6 C        2.978    -0.013    28.329     8.731
     5   6 C        2.928    -0.037    28.919     8.819
     6   6 C        2.917    -0.046    29.140     8.852
     7   6 C        2.919    -0.034    28.852     8.808
     8   6 C        2.924    -0.061    29.517     8.909
     9   6 C        2.928     0.057    26.728     8.478
    10   7 N        2.755    -0.070    22.590     7.059
    11   6 C        2.926     0.077    26.272     8.406
    12   6 C        2.921    -0.034    28.837     8.806
    13   6 C        2.997    -0.020    28.501     8.757
    14   6 C        2.978    -0.079    29.970     8.980
    15   6 C        2.999     0.016    27.646     8.625
    16   6 C        2.936    -0.041    29.020     8.835
    17   6 C        3.906     0.020    20.175     6.384
    18   6 C        3.763    -0.116    22.757     6.800
    19   6 C        3.763    -0.116    22.757     6.800
    20   6 C        2.999     0.016    27.646     8.625
    21   6 C        2.936    -0.041    29.020     8.835
    22   6 C        2.926     0.077    26.272     8.406
    23   7 N        2.755    -0.070    22.590     7.059
    24   6 C        2.928     0.057    26.728     8.478
    25   6 C        2.924    -0.061    29.517     8.909
    26   6 C        2.919    -0.034    28.852     8.808
    27   6 C        2.917    -0.046    29.140     8.852
    28   6 C        2.928    -0.037    28.919     8.819
    29   6 C        2.978    -0.013    28.329     8.731
    30   6 C        3.908     0.021    20.165     6.383
    31   6 C        3.761    -0.104    22.532     6.767
    32   6 C        3.761    -0.105    22.547     6.769
    33   6 C        2.978    -0.013    28.329     8.731
    34   6 C        2.928    -0.037    28.919     8.819
    35   6 C        2.917    -0.046    29.140     8.852
    36   6 C        2.919    -0.034    28.852     8.808
    37   6 C        2.924    -0.061    29.517     8.909
    38   6 C        2.928     0.057    26.728     8.478
    39   6 C        2.921    -0.034    28.837     8.806
    40   6 C        2.997    -0.020    28.501     8.757
    41   6 C        2.978    -0.079    29.970     8.980
    42  16 S        3.877     0.962   107.743    17.470
    43   8 O        0.860    -0.588    25.832     6.814
    44   8 O        0.860    -0.588    25.831     6.814
    45   6 C        2.928     0.057    26.728     8.478
    46   6 C        2.924    -0.061    29.517     8.909
    47   6 C        2.919    -0.034    28.852     8.808
    48   6 C        2.917    -0.046    29.140     8.852
    49   6 C        2.928    -0.037    28.919     8.819
    50   6 C        2.978    -0.013    28.329     8.731
    51   1 H        0.925     0.030     2.590     2.517
    52   1 H        0.925     0.042     2.424     2.434
    53   1 H        0.925     0.042     2.424     2.435
    54   1 H        0.925     0.042     2.419     2.432
    55   1 H        0.925     0.032     2.557     2.501
    56   1 H        0.925     0.042     2.419     2.432
    57   1 H        0.926     0.034     2.533     2.489
    58   1 H        0.926     0.026     2.637     2.539
    59   1 H        0.926     0.027     2.625     2.534
    60   1 H        0.926     0.023     2.689     2.564
    61   1 H        0.926     0.066     2.135     2.285
    62   1 H        0.926     0.052     2.296     2.369
    63   1 H        0.926     0.077     2.015     2.220
    64   1 H        0.925     0.066     2.134     2.284
    65   1 H        0.925     0.043     2.414     2.430
    66   1 H        0.925     0.066     2.134     2.284
    67   1 H        0.925     0.066     2.134     2.284
    68   1 H        0.925     0.043     2.414     2.430
    69   1 H        0.925     0.066     2.134     2.284
    70   1 H        0.926     0.077     2.015     2.220
    71   1 H        0.926     0.023     2.689     2.564
    72   1 H        0.926     0.027     2.625     2.534
    73   1 H        0.926     0.026     2.637     2.539
    74   1 H        0.926     0.034     2.533     2.489
    75   1 H        0.925     0.030     2.590     2.517
    76   1 H        0.925     0.042     2.424     2.435
    77   1 H        0.925     0.042     2.424     2.434
    78   1 H        0.925     0.032     2.558     2.501
    79   1 H        0.925     0.042     2.419     2.432
    80   1 H        0.925     0.042     2.419     2.432
    81   1 H        0.926     0.034     2.533     2.489
    82   1 H        0.926     0.026     2.637     2.539
    83   1 H        0.926     0.027     2.625     2.534
    84   1 H        0.926     0.023     2.689     2.564
    85   1 H        0.926     0.066     2.135     2.285
    86   1 H        0.926     0.052     2.296     2.369
    87   1 H        0.926     0.023     2.689     2.564
    88   1 H        0.926     0.027     2.625     2.534
    89   1 H        0.926     0.026     2.637     2.540
    90   1 H        0.926     0.034     2.533     2.489

molecular dipole:
                 x           y           z       tot (Debye)
 q only:       -0.000      -0.011      -3.519
   full:       -0.000      -0.009      -2.960       7.525

 projected vibrational frequencies (cm⁻¹)
eigval :       -0.00    -0.00     0.00     0.00     0.00     0.00
eigval :        5.13    12.24    17.27    17.82    23.03    26.41
eigval :       26.71    39.07    49.73    81.70    84.57    98.01
eigval :      102.48   106.34   107.31   108.50   115.06   116.04
eigval :      118.20   119.35   129.65   153.76   154.33   168.13
eigval :      179.49   181.02   182.38   206.93   218.77   220.45
eigval :      220.97   227.60   231.48   237.81   242.51   247.78
eigval :      303.79   304.20   311.19   319.16   330.46   330.60
eigval :      330.90   341.05   344.13   348.14   349.62   352.37
eigval :      365.02   376.16   377.84   390.47   394.76   411.32
eigval :      412.32   415.87   440.30   442.65   453.35   453.44
eigval :      464.48   489.36   495.68   498.67   510.21   515.85
eigval :      515.99   530.35   542.63   548.22   548.29   552.01
eigval :      552.79   564.54   586.50   587.07   592.97   596.19
eigval :      639.95   644.47   650.86   655.57   663.81   682.09
eigval :      682.38   692.66   692.93   696.47   700.05   702.45
eigval :      705.00   745.86   779.92   780.06   780.89   781.38
eigval :      784.16   819.95   820.05   831.84   832.04   837.39
eigval :      871.40   871.56   871.93   872.14   890.75   891.98
eigval :      915.03   915.09   915.83   915.88   917.52   917.59
eigval :      918.30   918.44   924.69   924.77   924.77   924.86
eigval :      926.40   936.99   937.13   955.81   955.85   962.03
eigval :      977.28   978.23  1011.01  1011.31  1020.36  1022.73
eigval :     1045.00  1075.50  1075.59  1082.12  1085.43  1088.54
eigval :     1111.41  1111.47  1117.83  1117.87  1130.98  1131.53
eigval :     1139.26  1139.34  1145.80  1148.33  1152.69  1158.06
eigval :     1158.07  1170.21  1172.12  1185.00  1185.48  1185.53
eigval :     1186.30  1186.75  1189.66  1194.05  1220.43  1225.26
eigval :     1234.82  1239.13  1246.09  1247.26  1247.34  1265.04
eigval :     1266.47  1269.44  1292.69  1292.72  1301.69  1305.09
eigval :     1318.98  1321.95  1323.15  1323.16  1332.55  1332.78
eigval :     1338.18  1338.28  1385.73  1391.99  1398.15  1398.24
eigval :     1402.77  1417.33  1417.50  1420.93  1435.59  1435.73
eigval :     1440.33  1440.39  1457.91  1462.14  1476.71  1476.89
eigval :     1478.32  1480.19  1485.03  1485.04  1485.57  1486.04
eigval :     1488.46  1493.14  1494.42  1494.79  1496.01  1496.11
eigval :     1501.21  1501.41  1558.47  1566.18  1574.06  1574.09
eigval :     1582.09  1587.60  1589.75  1590.06  1590.26  1590.31
eigval :     1599.98  1600.02  3021.19  3021.22  3024.91  3024.98
eigval :     3031.85  3033.31  3038.73  3038.83  3041.28  3041.34
eigval :     3047.36  3047.46  3051.73  3051.76  3061.54  3063.18
eigval :     3069.25  3072.71  3072.92  3072.93  3073.00  3073.06
eigval :     3079.77  3079.78  3079.83  3079.84  3090.20  3090.23
eigval :     3090.53  3090.60  3095.80  3095.99  3097.92  3097.93
eigval :     3098.95  3099.02  3104.08  3104.37  3107.85  3108.05

   temp. (K)  partition function   enthalpy   heat capacity  entropy
                                   cal/mol     cal/K/mol   cal/K/mol   J/K/mol
 298.15  VIB  0.199E+21            26207.669    163.774    162.435
         ROT  0.525E+08              888.752      2.981     38.307
         INT  0.104E+29            27096.421    166.755    200.742
         TR   0.169E+29             1481.254      4.968     45.380
         TOT                       28577.6751   171.7229   246.1220  1029.7745

       T/K    H(0)-H(T)+PV         H(T)/Eh          T*S/Eh         G(T)/Eh
   ------------------------------------------------------------------------
    298.15    0.455414E-01    0.761828E+00    0.116941E+00    0.644888E+00
   ------------------------------------------------------------------------

         :::::::::::::::::::::::::::::::::::::::::::::::::::::
         ::                  THERMODYNAMIC                  ::
         :::::::::::::::::::::::::::::::::::::::::::::::::::::
         :: total free energy        -133.460016964171 Eh   ::
         ::.................................................::
         :: total energy             -134.104904561904 Eh   ::
         :: zero point energy           0.716286679582 Eh   ::
         :: G(RRHO) w/o ZPVE           -0.071399081850 Eh   ::
         :: G(RRHO) contrib.            0.644887597732 Eh   ::
         :::::::::::::::::::::::::::::::::::::::::::::::::::::

           -------------------------------------------------
          | TOTAL ENERGY             -134.104904561904 Eh   |
          | TOTAL ENTHALPY           -133.343076458134 Eh   |
          | TOTAL FREE ENERGY        -133.460016964171 Eh   |
          | GRADIENT NORM               0.000066177431 Eh/α |
          | HOMO-LUMO GAP               2.226682320148 eV   |
           -------------------------------------------------

 * finished run on 2025/09/14 at 14:01:59.113
