   * xtb version 6.7.1 (edcfbbe) compiled by 'albert@albert-system' on 2024-07-22

   ID    Z sym.   atoms
    1    6 C      1-9, 11-22, 24-41, 45-50
    2    7 N      10, 23
    3   16 S      42
    4    8 O      43, 44
    5    1 H      51-90

          program call               : xtb data2507/toluene/DDMA-TXO2/DDMA-TXO2_toluene_T1_crest.xyz --gfn 2 --uhf 2 --gbsa toluene --ohess vtight --parallel 40 --molden --ceasefiles --namespace data2507/toluene/DDMA-TXO2/DDMA-TXO2_toluene_T1_finalOpt
      * Solvation model:               GBSA
        Solvent                        toluene
        Solvent mass                       9.2140E+01 g/mol
          :  Hamiltonian                  GFN2-xTB          :
 * total energy  :  -134.0132027 Eh     change       -0.3498656E-08 Eh
 * total energy  :  -134.0136788 Eh     change       -0.4760438E-03 Eh
 * total energy  :  -134.0139096 Eh     change       -0.2308328E-03 Eh
 * total energy  :  -134.0139443 Eh     change       -0.3473531E-04 Eh
 * total energy  :  -134.0139785 Eh     change       -0.3419586E-04 Eh
 * total energy  :  -134.0139944 Eh     change       -0.1585022E-04 Eh
 * total energy  :  -134.0140158 Eh     change       -0.2141135E-04 Eh
 * total energy  :  -134.0140364 Eh     change       -0.2062917E-04 Eh
 * total energy  :  -134.0140597 Eh     change       -0.2329331E-04 Eh
 * total energy  :  -134.0140880 Eh     change       -0.2831877E-04 Eh
 * total energy  :  -134.0150807 Eh     change       -0.8826385E-06 Eh
 * total energy  :  -134.0150815 Eh     change       -0.8441962E-06 Eh
 * total energy  :  -134.0150824 Eh     change       -0.8277749E-06 Eh
 * total energy  :  -134.0150832 Eh     change       -0.8260917E-06 Eh
 * total energy  :  -134.0150840 Eh     change       -0.8287795E-06 Eh
 * total energy  :  -134.0150848 Eh     change       -0.8251151E-06 Eh
 * total energy  :  -134.0150856 Eh     change       -0.8086136E-06 Eh
 * total energy  :  -134.0150864 Eh     change       -0.7619643E-06 Eh
 * total energy  :  -134.0150864 Eh     change       -0.4278149E-08 Eh
   *** GEOMETRY OPTIMIZATION CONVERGED AFTER 152 ITERATIONS ***

 final structure:
================
90
 xtb: 6.7.1 (edcfbbe)
C            7.38585593603246        2.90164262341091       -0.63758472434041
C            6.41122472231190        2.38749153280864        0.44096537939248
C            6.69359099388300        3.08526099834625        1.78689996732499
C            4.99986745717169        2.71388555531067        0.00581749282940
C            4.63516056310332        4.03750910469848       -0.20004769225962
C            3.36932449864376        4.39010005206411       -0.63165776011092
C            2.43552862055294        3.39686195011278       -0.89234346488910
C            2.76728795624443        2.07598127490078       -0.69909130453230
C            4.04011362446997        1.71307235593366       -0.22739599426257
N            4.33492154437056        0.38201507497854       -0.01677545120024
C            3.33772445879292       -0.59761146347489       -0.27004067596436
C            3.45409981496698       -1.45342196901354       -1.38350796452708
C            2.47771445021596       -2.38639344746852       -1.60163174147480
C            1.39679360266459       -2.51690924433577       -0.72000642512206
C            1.24704207714269       -1.64338059340771        0.38885272434125
C            2.23006468594404       -0.69817087998510        0.58363074480079
C            0.01969447903824       -1.75522946504503        1.27720424178687
C            0.03878529073756       -3.09997436334078        2.03172372489450
C           -0.01538479362548       -0.65349260871081        2.34342037606818
C           -1.19315462811749       -1.69565580180509        0.36441649121949
C           -2.21297460873945       -0.78134620685575        0.52657366118934
C           -3.31189511537755       -0.74592075209977       -0.33898003568646
N           -4.34517863090575        0.21218397310936       -0.12458541335206
C           -4.19336160062665        1.48183090751679       -0.63745512829783
C           -3.02156309621757        1.80545707918196       -1.33969593180223
C           -2.84001180033260        3.06387025911820       -1.86549695267179
C           -3.82276204093807        4.02996631285414       -1.70100999866918
C           -4.98135314616120        3.71469170902084       -1.01462402077036
C           -5.19541489326484        2.45363065627054       -0.47475617405403
C           -6.48832506474673        2.15809694718156        0.25388513772322
C           -6.61544829136425        3.12262169781186        1.45001704673455
C           -7.66242822335349        2.36732592172437       -0.72331622560611
C           -6.53445896329889        0.73645542978437        0.77056085181388
C           -7.64814468553166        0.29193390644679        1.46992987077736
C           -7.73371302643487       -0.99579031786999        1.96779825834132
C           -6.67934894015916       -1.87748981932794        1.77351182679440
C           -5.56213851615128       -1.46653588342964        1.08368298344773
C           -5.47473459466554       -0.16401926132387        0.56740044860582
C           -3.39177116810808       -1.63312035380078       -1.42658755614146
C           -2.37415606464851       -2.52916924873311       -1.61866338709855
C           -1.29414942071771       -2.59013141374983       -0.73091207709832
S            0.08245063456346       -3.57952890520829       -1.18492633575606
O            0.11504799114289       -4.86170557023071       -0.47067671901636
O            0.09153280992540       -3.74772782408882       -2.63502249518352
C            5.57915791316553       -0.02598558116505        0.41480061158226
C            5.80827919465953       -1.38832126424338        0.67188156170104
C            7.04649346101703       -1.83245385307112        1.07389466256332
C            8.08527309350899       -0.92659716333321        1.23994022659755
C            7.85623232992478        0.42041710562314        1.02284203136311
C            6.61726677942667        0.89983374975053        0.62063036834707
H            7.18212241597594        2.41011896752362       -1.58712279373085
H            7.27747054085606        3.97326863392384       -0.77510143883714
H            8.41427122889930        2.69549536157709       -0.35695189738625
H            7.70931895116592        2.88890140874331        2.11632663080194
H            6.00734202457740        2.71714961573355        2.54713451882351
H            6.56529839706202        4.15972712167319        1.69808574007980
H            5.35583687949474        4.82037833386575       -0.02364243131584
H            3.11713822260209        5.42918594762902       -0.77716540066583
H            1.45034277717739        3.65383754275816       -1.24969269633189
H            2.04777224033296        1.30382734050577       -0.91911946790266
H            4.29719929529344       -1.35623535012372       -2.05054666817086
H            2.50284281827650       -3.04765802079973       -2.45448996383845
H            2.18349138208348       -0.00871792447169        1.41069417667913
H            0.91775950527315       -3.15036980374134        2.67181005009571
H            0.06465213316487       -3.94169085471773        1.34851995304354
H           -0.85186205261109       -3.18740312991053        2.65137544354917
H           -0.02476330677410        0.33785987010645        1.89737603435208
H            0.85269855117301       -0.74478263146099        2.99139245914032
H           -0.89995611892783       -0.77461000018227        2.96375468350155
H           -2.19753495930421       -0.06573970963321        1.33221789644029
H           -2.26310386079828        1.04976343269477       -1.47030160435196
H           -1.93565144792940        3.29158358663926       -2.40873598804534
H           -3.68908826351429        5.01970745816138       -2.10999774930760
H           -5.73714615829270        4.47608422187591       -0.90217517819983
H           -6.60059581053410        4.15523614930177        1.11481666699119
H           -7.54409941028439        2.95088548815002        1.98566409460893
H           -5.78672631864347        2.97089695873161        2.13888494218867
H           -7.67019050708626        3.38424446894589       -1.10392382122917
H           -7.57035350302757        1.68426924604199       -1.56578778367451
H           -8.61156282567814        2.17955515880778       -0.23047367961400
H           -8.47531865238442        0.96438607021448        1.63508322751891
H           -8.61492019921833       -1.30996597764893        2.50582725872433
H           -6.72918018909463       -2.88365399342340        2.16144933144676
H           -4.73853527820958       -2.14645596971717        0.93176277081883
H           -4.23904327413362       -1.59230505128695       -2.09410562148190
H           -2.36744759410693       -3.21200688715082       -2.45466432246710
H            4.99761491834061       -2.08959261910022        0.55440684997250
H            7.20219244441745       -2.88397307793978        1.26196840790249
H            9.06188620075438       -1.26681293905849        1.54829227508783
H            8.66920659630691        1.11236341710336        1.17737381618996

          :  Hamiltonian                  GFN2-xTB          :
         :: gradient norm              0.000055193995 Eh/a0 ::
         :: HOMO-LUMO gap              0.208386181106 eV    ::
         :: SCC energy              -136.252203105785 Eh    ::
         :: -> dispersion             -0.130994706382 Eh    ::
         :: -> Gsolv                  -0.073552767500 Eh    ::
         :: repulsion energy           2.237116689516 Eh    ::

    * Orbital Energies and Occupations

         #    Occupation            Energy/Eh            Energy/eV
      -------------------------------------------------------------
         1        2.0000           -0.7424511             -20.2031
       ...           ...                  ...                  ...
       113        2.0000           -0.4120403             -11.2122
       114        2.0000           -0.4118904             -11.2081
       115        2.0000           -0.4062340             -11.0542
       116        2.0000           -0.4059164             -11.0455
       117        2.0000           -0.4048279             -11.0159
       118        2.0000           -0.4033069             -10.9745
       119        2.0000           -0.4010004             -10.9118
       120        2.0000           -0.3952106             -10.7542
       121        2.0000           -0.3911558             -10.6439
       122        2.0000           -0.3828311             -10.4174
       123        1.5967           -0.3612404              -9.8299
       124        1.4033           -0.3604965              -9.8096
       125        0.9786           -0.2487984              -6.7701 (HOMO)
       126        0.0143           -0.2411407              -6.5618 (LUMO)
       127        0.0071           -0.2404681              -6.5435
       128        0.0000           -0.2327972              -6.3347
       129        0.0000           -0.2321022              -6.3158
       130        0.0000           -0.2318026              -6.3077
       131        0.0000           -0.2314298              -6.2975
       132        0.0000           -0.2305138              -6.2726
       133                         -0.2242706              -6.1027
       134                         -0.2149770              -5.8498
       135                         -0.2049946              -5.5782
       136                         -0.2044286              -5.5628
       ...                                ...                  ...
       245                          1.1544918              31.4153
      -------------------------------------------------------------
                  HL-Gap            0.0076577 Eh            0.2084 eV

     #   Z          covCN         q      C6AA      α(0)
     1   6 C        3.761    -0.108    22.604     6.778
     2   6 C        3.909     0.024    20.110     6.374
     3   6 C        3.761    -0.108    22.616     6.779
     4   6 C        2.978    -0.000    28.035     8.685
     5   6 C        2.925    -0.033    28.830     8.805
     6   6 C        2.917    -0.032    28.788     8.798
     7   6 C        2.917    -0.028    28.697     8.785
     8   6 C        2.922    -0.047    29.164     8.856
     9   6 C        2.929     0.060    26.661     8.468
    10   7 N        2.753    -0.007    21.400     6.871
    11   6 C        2.927     0.021    27.532     8.605
    12   6 C        2.914    -0.050    29.234     8.866
    13   6 C        2.970    -0.037    28.911     8.820
    14   6 C        2.970    -0.111    30.803     9.104
    15   6 C        3.008    -0.009    28.221     8.714
    16   6 C        2.921    -0.053    29.317     8.879
    17   6 C        3.907     0.016    20.251     6.396
    18   6 C        3.762    -0.114    22.732     6.796
    19   6 C        3.760    -0.111    22.675     6.788
    20   6 C        3.009    -0.008    28.201     8.711
    21   6 C        2.921    -0.053    29.316     8.879
    22   6 C        2.927     0.024    27.468     8.595
    23   7 N        2.754    -0.013    21.508     6.888
    24   6 C        2.930     0.061    26.630     8.463
    25   6 C        2.922    -0.047    29.162     8.856
    26   6 C        2.918    -0.028    28.696     8.784
    27   6 C        2.917    -0.032    28.799     8.800
    28   6 C        2.925    -0.033    28.826     8.805
    29   6 C        2.978    -0.001    28.053     8.688
    30   6 C        3.909     0.024    20.112     6.374
    31   6 C        3.761    -0.108    22.616     6.779
    32   6 C        3.761    -0.108    22.601     6.777
    33   6 C        2.978    -0.001    28.057     8.689
    34   6 C        2.925    -0.033    28.828     8.805
    35   6 C        2.917    -0.032    28.796     8.800
    36   6 C        2.917    -0.028    28.697     8.785
    37   6 C        2.922    -0.047    29.159     8.855
    38   6 C        2.930     0.061    26.626     8.462
    39   6 C        2.914    -0.050    29.233     8.866
    40   6 C        2.972    -0.036    28.894     8.817
    41   6 C        2.970    -0.110    30.777     9.100
    42  16 S        3.857     0.879   110.191    17.667
    43   8 O        0.859    -0.628    26.805     6.942
    44   8 O        0.860    -0.611    26.401     6.889
    45   6 C        2.930     0.060    26.657     8.467
    46   6 C        2.922    -0.046    29.151     8.854
    47   6 C        2.917    -0.028    28.699     8.785
    48   6 C        2.917    -0.032    28.789     8.799
    49   6 C        2.925    -0.034    28.835     8.806
    50   6 C        2.978    -0.001    28.038     8.686
    51   1 H        0.925     0.036     2.498     2.471
    52   1 H        0.925     0.053     2.288     2.365
    53   1 H        0.925     0.052     2.295     2.369
    54   1 H        0.925     0.052     2.295     2.369
    55   1 H        0.925     0.038     2.473     2.459
    56   1 H        0.925     0.053     2.282     2.362
    57   1 H        0.926     0.051     2.312     2.378
    58   1 H        0.926     0.045     2.384     2.414
    59   1 H        0.926     0.043     2.410     2.428
    60   1 H        0.926     0.044     2.398     2.422
    61   1 H        0.926     0.035     2.510     2.478
    62   1 H        0.926     0.024     2.667     2.554
    63   1 H        0.926     0.053     2.281     2.362
    64   1 H        0.925     0.038     2.478     2.462
    65   1 H        0.925     0.046     2.372     2.408
    66   1 H        0.925     0.038     2.481     2.463
    67   1 H        0.925     0.045     2.379     2.412
    68   1 H        0.925     0.047     2.354     2.399
    69   1 H        0.925     0.047     2.352     2.399
    70   1 H        0.926     0.053     2.284     2.363
    71   1 H        0.926     0.041     2.436     2.441
    72   1 H        0.926     0.041     2.432     2.438
    73   1 H        0.926     0.044     2.391     2.418
    74   1 H        0.926     0.050     2.316     2.380
    75   1 H        0.925     0.053     2.288     2.365
    76   1 H        0.925     0.052     2.297     2.370
    77   1 H        0.925     0.038     2.473     2.459
    78   1 H        0.925     0.052     2.293     2.368
    79   1 H        0.925     0.036     2.505     2.475
    80   1 H        0.925     0.052     2.299     2.371
    81   1 H        0.926     0.050     2.315     2.379
    82   1 H        0.926     0.043     2.403     2.424
    83   1 H        0.926     0.040     2.448     2.447
    84   1 H        0.926     0.041     2.436     2.441
    85   1 H        0.926     0.035     2.516     2.480
    86   1 H        0.926     0.025     2.664     2.553
    87   1 H        0.926     0.042     2.419     2.432
    88   1 H        0.926     0.040     2.448     2.447
    89   1 H        0.926     0.044     2.401     2.423
    90   1 H        0.926     0.051     2.310     2.377

molecular dipole:
                 x           y           z       tot (Debye)
 q only:       -0.077       7.403       2.623
   full:       -0.067       6.820       2.300      18.295

 projected vibrational frequencies (cm⁻¹)
eigval :       -0.00    -0.00     0.00     0.00     0.00     0.00
eigval :       10.13    15.42    17.03    22.07    23.10    29.78
eigval :       44.21    54.30    59.15    82.32    87.28    97.54
eigval :       98.50   102.02   104.35   131.16   132.26   135.78
eigval :      137.81   142.03   147.48   165.02   190.07   193.45
eigval :      194.47   199.26   215.93   219.65   225.15   230.51
eigval :      233.07   236.21   253.95   258.50   272.07   290.95
eigval :      300.63   303.17   313.65   316.65   324.68   326.40
eigval :      326.73   336.32   344.06   346.64   356.02   365.43
eigval :      378.04   380.71   388.17   390.15   397.13   406.73
eigval :      409.75   418.56   421.88   429.17   442.87   449.31
eigval :      452.15   457.66   495.77   501.68   504.80   513.14
eigval :      517.86   521.85   532.28   539.26   541.78   544.74
eigval :      554.39   555.91   579.95   581.23   583.95   584.97
eigval :      608.57   618.36   639.22   643.03   645.00   648.88
eigval :      665.59   687.22   690.28   691.10   699.81   701.26
eigval :      703.28   730.76   769.68   774.87   777.00   777.94
eigval :      778.71   787.27   793.22   820.28   824.79   825.21
eigval :      853.92   855.74   871.68   873.52   874.77   875.13
eigval :      884.41   885.87   906.76   908.44   913.44   917.09
eigval :      918.16   918.43   919.23   922.08   925.74   925.77
eigval :      926.83   934.74   935.61   955.38   957.84   957.94
eigval :      962.68   978.63  1001.84  1005.88  1011.41  1012.33
eigval :     1015.39  1045.66  1070.84  1072.28  1080.32  1082.68
eigval :     1092.89  1103.18  1104.83  1109.12  1109.72  1116.16
eigval :     1122.24  1135.83  1136.32  1143.42  1144.48  1145.62
eigval :     1146.07  1155.71  1164.20  1169.86  1178.59  1181.43
eigval :     1181.53  1182.23  1187.51  1193.64  1205.24  1217.44
eigval :     1226.65  1232.08  1236.04  1238.45  1240.01  1249.87
eigval :     1251.75  1258.50  1291.32  1291.78  1293.35  1297.57
eigval :     1305.32  1306.06  1309.07  1328.11  1328.27  1334.84
eigval :     1336.02  1337.65  1351.13  1357.22  1385.67  1390.85
eigval :     1395.10  1395.79  1396.49  1407.72  1412.59  1414.04
eigval :     1414.46  1415.05  1417.80  1426.95  1436.17  1442.37
eigval :     1450.65  1451.93  1459.76  1472.88  1479.63  1480.56
eigval :     1481.95  1482.94  1488.51  1490.53  1491.38  1493.69
eigval :     1496.02  1496.90  1501.17  1515.22  1517.93  1519.72
eigval :     1529.01  1539.31  1541.78  1557.43  1559.84  1568.37
eigval :     1572.35  1589.02  3017.91  3020.58  3026.70  3027.90
eigval :     3029.48  3030.07  3030.71  3032.07  3042.40  3049.21
eigval :     3049.32  3051.17  3051.29  3056.12  3056.33  3059.87
eigval :     3060.07  3079.66  3079.79  3084.29  3084.33  3084.73
eigval :     3087.72  3091.30  3091.52  3091.60  3091.77  3092.34
eigval :     3094.83  3100.47  3100.96  3101.70  3102.76  3103.09
eigval :     3106.98  3108.05  3110.92  3111.51  3112.35  3113.01

   temp. (K)  partition function   enthalpy   heat capacity  entropy
                                   cal/mol     cal/K/mol   cal/K/mol   J/K/mol
 298.15  VIB  0.653E+19            25919.665    165.933    157.844
         ROT  0.939E+08              888.752      2.981     39.462
         INT  0.613E+27            26808.418    168.914    197.306
         TR   0.169E+29             1481.254      4.968     45.380
         TOT                       28289.6717   173.8825   242.6862  1015.3989

       T/K    H(0)-H(T)+PV         H(T)/Eh          T*S/Eh         G(T)/Eh
   ------------------------------------------------------------------------
    298.15    0.450825E-01    0.757859E+00    0.115308E+00    0.642551E+00
   ------------------------------------------------------------------------

         :::::::::::::::::::::::::::::::::::::::::::::::::::::
         ::                  THERMODYNAMIC                  ::
         :::::::::::::::::::::::::::::::::::::::::::::::::::::
         :: total free energy        -133.372535347871 Eh   ::
         ::.................................................::
         :: total energy             -134.015086413511 Eh   ::
         :: zero point energy           0.712776635138 Eh   ::
         :: G(RRHO) w/o ZPVE           -0.070225569497 Eh   ::
         :: G(RRHO) contrib.            0.642551065641 Eh   ::
         :::::::::::::::::::::::::::::::::::::::::::::::::::::

           -------------------------------------------------
          | TOTAL ENERGY             -134.015086413511 Eh   |
          | TOTAL ENTHALPY           -133.257227316969 Eh   |
          | TOTAL FREE ENERGY        -133.372535347871 Eh   |
          | GRADIENT NORM               0.000055808819 Eh/α |
          | HOMO-LUMO GAP               0.208376738315 eV   |
           -------------------------------------------------

 * finished run on 2025/09/14 at 14:17:36.776
