   * xtb version 6.7.1 (edcfbbe) compiled by 'albert@albert-system' on 2024-07-22

   ID    Z sym.   atoms
    1    6 C      1-9, 11-22, 24-41, 45-50
    2    7 N      10, 23
    3   16 S      42
    4    8 O      43, 44
    5    1 H      51-90

          program call               : xtb data2507/toluene/DDMA-TXO2/DDMA-TXO2_toluene_S0_crest.xyz --gfn 2 --gbsa toluene --ohess vtight --parallel 40 --molden --ceasefiles --namespace data2507/toluene/DDMA-TXO2/DDMA-TXO2_toluene_S0_finalOpt
      * Solvation model:               GBSA
        Solvent                        toluene
        Solvent mass                       9.2140E+01 g/mol
          :  Hamiltonian                  GFN2-xTB          :
 * total energy  :  -134.1093522 Eh     change       -0.9098073E-09 Eh
 * total energy  :  -134.1095611 Eh     change       -0.2089585E-03 Eh
 * total energy  :  -134.1096433 Eh     change       -0.8214984E-04 Eh
 * total energy  :  -134.1096640 Eh     change       -0.2077241E-04 Eh
 * total energy  :  -134.1096890 Eh     change       -0.2494958E-04 Eh
 * total energy  :  -134.1096990 Eh     change       -0.9959012E-05 Eh
 * total energy  :  -134.1097193 Eh     change       -0.2038139E-04 Eh
 * total energy  :  -134.1097377 Eh     change       -0.1839338E-04 Eh
 * total energy  :  -134.1097494 Eh     change       -0.1166941E-04 Eh
 * total energy  :  -134.1097728 Eh     change       -0.2339986E-04 Eh
 * total energy  :  -134.1101386 Eh     change       -0.1351799E-05 Eh
 * total energy  :  -134.1101400 Eh     change       -0.1388803E-05 Eh
 * total energy  :  -134.1101417 Eh     change       -0.1692233E-05 Eh
 * total energy  :  -134.1101434 Eh     change       -0.1779070E-05 Eh
 * total energy  :  -134.1101450 Eh     change       -0.1597056E-05 Eh
 * total energy  :  -134.1101461 Eh     change       -0.1074206E-05 Eh
 * total energy  :  -134.1101467 Eh     change       -0.6389153E-06 Eh
 * total energy  :  -134.1101472 Eh     change       -0.4560346E-06 Eh
 * total energy  :  -134.1101472 Eh     change       -0.3012985E-08 Eh
   *** GEOMETRY OPTIMIZATION CONVERGED AFTER 94 ITERATIONS ***

 final structure:
================
90
 xtb: 6.7.1 (edcfbbe)
C            6.24672513655722       -0.53779344280756       -1.84218193995667
C            6.68753553326492       -1.34784899299608       -0.60531867301837
C            7.97457678485947       -2.09227479906373       -0.96204892334677
C            6.87006068196526       -0.40117180976593        0.56961872257797
C            8.09857911361659       -0.02197366537760        1.08918589180695
C            8.17797377401833        0.83334432718704        2.17586810824976
C            7.02468474106899        1.30040677296187        2.78146150101839
C            5.78919976452077        0.92687516571428        2.28540118256343
C            5.71195484162738        0.10587861687882        1.16733652239798
N            4.46385683778272       -0.33109737858931        0.66913876157990
C            3.47355067734406        0.52720247553714        0.25405824887937
C            3.62262490271416        1.91737747231447        0.37227500120505
C            2.61031582534694        2.75031356125269       -0.04540259445206
C            1.46193176424202        2.23525819491220       -0.61881232734122
C            1.29791807463046        0.86584291955047       -0.81100364220393
C            2.31519593180866        0.03617170074304       -0.36973272126410
C            0.07052566043868        0.33282410325169       -1.53879952448107
C            0.17711842284155        0.75921907881186       -3.01925426812204
C            0.00598888095677       -1.19871036657257       -1.51603375669064
C           -1.19597515738564        0.95365490915801       -0.96794419524921
C           -2.32593313452574        0.20367514446001       -0.65498479916751
C           -3.49655059385829        0.80669017756374       -0.20673860697887
N           -4.62609817196493       -0.00024094965644        0.09131735886608
C           -5.39613145376473       -0.49594611331212       -0.95238080611201
C           -5.04238763367740       -0.20513925743496       -2.27344234727532
C           -5.77949626264797       -0.69530287743711       -3.33141517697053
C           -6.89157642799242       -1.48175203302672       -3.08965607216387
C           -7.25684101958425       -1.75067345924809       -1.78337917345889
C           -6.53402143493973       -1.26939333134254       -0.69958077093772
C           -7.01072307501249       -1.57367038987384        0.70862303865829
C           -8.42173922415330       -0.98174203442074        0.88586917897665
C           -7.04622283447061       -3.10109251521055        0.90349420405659
C           -6.09475308826457       -0.97154450859144        1.75795584721962
C           -6.37890075256876       -1.16367873837575        3.10367554257979
C           -5.57019320006542       -0.65938975911500        4.10559640773898
C           -4.43158321343256        0.04760459140494        3.76286664082765
C           -4.12709417166669        0.25639667179916        2.43375749221450
C           -4.95677253140196       -0.23174161779098        1.41965494395975
C           -3.56574292596407        2.18649951299053       -0.04916683488889
C           -2.44308326211483        2.94220323783850       -0.32657487119029
C           -1.29210476783617        2.32942860385664       -0.78325407042369
S            0.14940851637081        3.36175347123150       -1.01015221194679
O            0.22956723232457        3.83102253278193       -2.38370607826935
O            0.11775834981984        4.41233182136835       -0.01331772986881
C            4.45016462304435       -1.72328561012151        0.42547958061437
C            3.41318179777127       -2.52334751883078        0.88959187778552
C            3.44492741731848       -3.88853365553830        0.67127305390328
C            4.52488139513274       -4.45424789347345        0.01679406794018
C            5.58205158931147       -3.66171943122997       -0.39916722965059
C            5.56494216833638       -2.28919701326549       -0.20095056953659
H            5.33868001137101        0.02832526514558       -1.65442989413383
H            7.03182932456400        0.16129066669719       -2.12272329531897
H            6.06446056406589       -1.21143948625820       -2.67690700735856
H            7.80368210132170       -2.74813678767037       -1.81185522784029
H            8.33069987828467       -2.68373482766795       -0.12152282751969
H            8.74753566661779       -1.38495521837857       -1.25152949964146
H            9.01220846310209       -0.38933087167185        0.65138894426909
H            9.14518154619538        1.12306224282876        2.55879910553179
H            7.08372068280643        1.94389491160202        3.64664285173082
H            4.88246820793626        1.25643124746416        2.77049911332729
H            4.52839827118904        2.34202713344921        0.77113792610521
H            2.68816741078642        3.82113927193917        0.06358256738546
H            2.23928679676629       -1.02428286190840       -0.52350699695397
H            1.07740931991377        0.33392950950546       -3.45715533792017
H            0.22084358022445        1.83865835954419       -3.12355723433091
H           -0.68565929608820        0.39289442136057       -3.57145560391861
H           -0.07264977591676       -1.57924633466025       -0.50111805209166
H            0.89300560149150       -1.61338284618849       -1.98632369661540
H           -0.84821525167149       -1.53948740786813       -2.09461123037652
H           -2.32756019678652       -0.86908515409167       -0.75068581156343
H           -4.18543600002906        0.42016055149201       -2.47078212777403
H           -5.48433382938072       -0.45806377507675       -4.34314991448916
H           -7.47603499927121       -1.87409026377927       -3.90828030992487
H           -8.13624427926651       -2.35190390369666       -1.60919549303973
H           -9.11192971689758       -1.39990083292189        0.15844751520293
H           -8.80710396539131       -1.18997236392449        1.88014086928157
H           -8.39099594917145        0.09798808388322        0.74866416526946
H           -6.04652223225275       -3.51400576120127        0.78052642922357
H           -7.40344398652707       -3.35693443117658        1.89695152153011
H           -7.70295127016554       -3.56924832728788        0.17572357906849
H           -7.25766487623918       -1.72367786246324        3.38534191351646
H           -5.82322613975249       -0.82475050064362        5.14206804989630
H           -3.77687094802365        0.43860698151851        4.52796563230052
H           -3.23352649050302        0.80395651359652        2.17550333597225
H           -4.47758014725752        2.64820914319131        0.29666586435204
H           -2.43117841070370        4.01276718035911       -0.19281231515822
H            2.59744059088584       -2.07578749185471        1.43708860913596
H            2.63442712198854       -4.50815217421727        1.02465015883481
H            4.55555615254698       -5.51960566803178       -0.15654432674614
H            6.42295004939085       -4.13142056986029       -0.88239076961766

          :  Hamiltonian                  GFN2-xTB          :
         :: gradient norm              0.000047387675 Eh/a0 ::
         :: HOMO-LUMO gap              2.348088861617 eV    ::
         :: SCC energy              -136.367620403474 Eh    ::
         :: -> dispersion             -0.131554083284 Eh    ::
         :: -> Gsolv                  -0.059540630470 Eh    ::
         :: repulsion energy           2.257473201925 Eh    ::

    * Orbital Energies and Occupations

         #    Occupation            Energy/Eh            Energy/eV
      -------------------------------------------------------------
         1        2.0000           -0.7713126             -20.9885
       ...           ...                  ...                  ...
       112        2.0000           -0.4144565             -11.2779
       113        2.0000           -0.4122599             -11.2182
       114        2.0000           -0.4087538             -11.1228
       115        2.0000           -0.4081094             -11.1052
       116        2.0000           -0.4048588             -11.0168
       117        2.0000           -0.4039939             -10.9932
       118        2.0000           -0.4034592             -10.9787
       119        2.0000           -0.4008954             -10.9089
       120        2.0000           -0.4007367             -10.9046
       121        2.0000           -0.3978664             -10.8265
       122        2.0000           -0.3925107             -10.6808
       123        2.0000           -0.3613765              -9.8336
       124        2.0000           -0.3476401              -9.4598 (HOMO)
       125                         -0.2613494              -7.1117 (LUMO)
       126                         -0.2493527              -6.7852
       127                         -0.2449437              -6.6653
       128                         -0.2358858              -6.4188
       129                         -0.2309387              -6.2842
       130                         -0.2251700              -6.1272
       131                         -0.2244526              -6.1077
       132                         -0.2225497              -6.0559
       133                         -0.2192285              -5.9655
       134                         -0.2182595              -5.9391
       135                         -0.2164111              -5.8888
       ...                                ...                  ...
       245                          1.1743125              31.9547
      -------------------------------------------------------------
                  HL-Gap            0.0862907 Eh            2.3481 eV

     #   Z          covCN         q      C6AA      α(0)
     1   6 C        3.761    -0.101    22.474     6.758
     2   6 C        3.910     0.023    20.132     6.377
     3   6 C        3.759    -0.109    22.644     6.784
     4   6 C        2.987    -0.005    28.141     8.702
     5   6 C        2.923    -0.038    28.948     8.823
     6   6 C        2.919    -0.037    28.913     8.818
     7   6 C        2.920    -0.034    28.838     8.806
     8   6 C        2.920    -0.047    29.163     8.856
     9   6 C        2.951     0.053    26.812     8.493
    10   7 N        2.754    -0.061    22.420     7.032
    11   6 C        2.910     0.073    26.363     8.419
    12   6 C        2.923    -0.058    29.449     8.899
    13   6 C        2.970    -0.025    28.634     8.777
    14   6 C        2.976    -0.100    30.501     9.059
    15   6 C        3.006     0.009    27.807     8.650
    16   6 C        2.932    -0.069    29.720     8.941
    17   6 C        3.907     0.017    20.239     6.395
    18   6 C        3.765    -0.116    22.764     6.800
    19   6 C        3.760    -0.119    22.818     6.810
    20   6 C        3.006     0.014    27.688     8.632
    21   6 C        2.931    -0.046    29.136     8.852
    22   6 C        2.926     0.075    26.320     8.413
    23   7 N        2.754    -0.069    22.573     7.056
    24   6 C        2.927     0.057    26.720     8.477
    25   6 C        2.924    -0.061    29.512     8.909
    26   6 C        2.919    -0.034    28.857     8.809
    27   6 C        2.917    -0.046    29.139     8.852
    28   6 C        2.928    -0.037    28.923     8.820
    29   6 C        2.979    -0.013    28.325     8.730
    30   6 C        3.909     0.021    20.165     6.383
    31   6 C        3.761    -0.104    22.532     6.767
    32   6 C        3.761    -0.105    22.550     6.769
    33   6 C        2.979    -0.013    28.324     8.730
    34   6 C        2.928    -0.037    28.925     8.820
    35   6 C        2.917    -0.046    29.138     8.852
    36   6 C        2.919    -0.034    28.857     8.809
    37   6 C        2.924    -0.060    29.499     8.907
    38   6 C        2.927     0.057    26.720     8.477
    39   6 C        2.922    -0.037    28.908     8.817
    40   6 C        2.972    -0.023    28.576     8.769
    41   6 C        2.978    -0.083    30.072     8.995
    42  16 S        3.846     0.956   107.918    17.484
    43   8 O        0.860    -0.598    26.060     6.844
    44   8 O        0.860    -0.591    25.892     6.822
    45   6 C        2.950     0.052    26.822     8.494
    46   6 C        2.920    -0.047    29.175     8.858
    47   6 C        2.919    -0.033    28.830     8.805
    48   6 C        2.919    -0.036    28.902     8.816
    49   6 C        2.923    -0.038    28.937     8.822
    50   6 C        2.987    -0.005    28.132     8.700
    51   1 H        0.925     0.034     2.528     2.486
    52   1 H        0.925     0.041     2.429     2.437
    53   1 H        0.925     0.043     2.405     2.425
    54   1 H        0.925     0.046     2.372     2.409
    55   1 H        0.925     0.041     2.431     2.438
    56   1 H        0.925     0.045     2.387     2.416
    57   1 H        0.926     0.047     2.355     2.400
    58   1 H        0.926     0.036     2.496     2.471
    59   1 H        0.926     0.036     2.502     2.474
    60   1 H        0.926     0.039     2.462     2.454
    61   1 H        0.926     0.053     2.281     2.362
    62   1 H        0.926     0.040     2.455     2.450
    63   1 H        0.926     0.072     2.067     2.248
    64   1 H        0.925     0.054     2.274     2.358
    65   1 H        0.925     0.047     2.352     2.398
    66   1 H        0.925     0.051     2.306     2.374
    67   1 H        0.925     0.053     2.289     2.366
    68   1 H        0.925     0.059     2.214     2.327
    69   1 H        0.925     0.057     2.229     2.334
    70   1 H        0.926     0.078     1.997     2.210
    71   1 H        0.926     0.024     2.678     2.559
    72   1 H        0.926     0.027     2.625     2.534
    73   1 H        0.926     0.027     2.632     2.537
    74   1 H        0.926     0.034     2.527     2.486
    75   1 H        0.925     0.042     2.420     2.433
    76   1 H        0.925     0.042     2.420     2.432
    77   1 H        0.925     0.030     2.592     2.518
    78   1 H        0.925     0.032     2.556     2.500
    79   1 H        0.925     0.042     2.418     2.432
    80   1 H        0.925     0.043     2.414     2.430
    81   1 H        0.926     0.034     2.525     2.485
    82   1 H        0.926     0.027     2.631     2.536
    83   1 H        0.926     0.027     2.632     2.537
    84   1 H        0.926     0.022     2.702     2.570
    85   1 H        0.926     0.061     2.186     2.312
    86   1 H        0.926     0.052     2.296     2.369
    87   1 H        0.926     0.043     2.413     2.429
    88   1 H        0.926     0.039     2.458     2.452
    89   1 H        0.926     0.038     2.482     2.463
    90   1 H        0.926     0.047     2.356     2.400

molecular dipole:
                 x           y           z       tot (Debye)
 q only:        1.279      -4.207       0.538
   full:        1.246      -3.656       0.545       9.916

 projected vibrational frequencies (cm⁻¹)
eigval :       -0.00    -0.00     0.00     0.00     0.00     0.00
eigval :        9.41    12.17    13.02    23.36    26.27    39.56
eigval :       51.28    51.83    62.85    81.29    91.29   101.02
eigval :      104.48   121.52   129.97   132.17   134.34   139.83
eigval :      143.95   155.65   167.05   173.63   179.33   189.89
eigval :      195.00   199.39   206.64   221.04   227.63   235.06
eigval :      236.66   250.31   255.29   280.14   282.25   301.08
eigval :      304.74   306.35   315.81   323.97   331.23   332.84
eigval :      336.68   344.41   346.44   357.29   359.33   374.29
eigval :      378.32   388.07   396.63   403.33   408.77   412.95
eigval :      415.89   418.86   441.67   447.83   452.66   454.84
eigval :      461.55   479.69   490.70   498.21   501.63   516.00
eigval :      518.96   523.07   546.55   548.44   552.63   557.82
eigval :      564.75   573.02   579.98   585.30   589.50   605.74
eigval :      606.90   638.87   646.81   650.90   669.72   679.89
eigval :      682.35   693.19   694.61   699.66   701.44   708.70
eigval :      726.38   737.74   777.11   777.68   778.37   779.20
eigval :      786.09   808.50   816.60   821.60   828.65   833.78
eigval :      857.09   866.20   869.27   881.80   884.81   890.07
eigval :      906.24   909.22   913.31   914.59   916.17   918.71
eigval :      920.35   921.07   922.21   923.90   932.15   936.29
eigval :      938.56   939.00   943.97   957.91   963.11   966.08
eigval :      978.51   993.83  1006.60  1013.92  1013.98  1018.74
eigval :     1035.02  1072.10  1076.07  1076.19  1081.30  1088.02
eigval :     1098.66  1105.62  1112.23  1118.32  1131.36  1136.65
eigval :     1139.82  1141.49  1147.14  1151.08  1158.74  1160.96
eigval :     1170.12  1171.94  1172.71  1179.17  1182.52  1186.20
eigval :     1186.83  1188.51  1193.63  1197.86  1227.22  1229.48
eigval :     1234.70  1246.48  1248.26  1250.62  1256.35  1261.22
eigval :     1267.03  1267.86  1272.55  1285.91  1293.20  1306.13
eigval :     1314.60  1317.87  1323.16  1324.60  1332.34  1335.62
eigval :     1337.59  1343.63  1394.57  1395.41  1397.60  1400.25
eigval :     1412.20  1412.81  1419.27  1419.47  1434.98  1437.84
eigval :     1439.44  1440.70  1449.28  1452.99  1463.88  1476.51
eigval :     1478.92  1487.07  1487.28  1488.40  1489.19  1490.14
eigval :     1491.41  1493.73  1497.05  1503.41  1503.44  1505.46
eigval :     1516.01  1525.13  1551.73  1560.21  1572.09  1573.83
eigval :     1575.46  1581.91  1583.73  1587.62  1589.47  1590.39
eigval :     1597.39  1599.97  3021.59  3025.64  3026.28  3028.73
eigval :     3029.49  3031.50  3033.47  3033.56  3039.81  3039.83
eigval :     3041.64  3043.44  3046.67  3048.35  3052.32  3053.66
eigval :     3055.97  3072.24  3072.62  3077.07  3078.57  3079.63
eigval :     3080.19  3083.88  3085.71  3089.99  3090.07  3091.26
eigval :     3093.32  3094.75  3095.43  3096.00  3096.86  3099.34
eigval :     3104.95  3113.10  3114.56  3120.44  3127.46  3156.86

   temp. (K)  partition function   enthalpy   heat capacity  entropy
                                   cal/mol     cal/K/mol   cal/K/mol   J/K/mol
 298.15  VIB  0.239E+19            25445.160    164.143    154.743
         ROT  0.984E+08              888.752      2.981     39.555
         INT  0.235E+27            26333.912    167.124    194.298
         TR   0.169E+29             1481.254      4.968     45.380
         TOT                       27815.1658   172.0921   239.6781  1002.8130

       T/K    H(0)-H(T)+PV         H(T)/Eh          T*S/Eh         G(T)/Eh
   ------------------------------------------------------------------------
    298.15    0.443263E-01    0.762645E+00    0.113879E+00    0.648766E+00
   ------------------------------------------------------------------------

         :::::::::::::::::::::::::::::::::::::::::::::::::::::
         ::                  THERMODYNAMIC                  ::
         :::::::::::::::::::::::::::::::::::::::::::::::::::::
         :: total free energy        -133.461380995027 Eh   ::
         ::.................................................::
         :: total energy             -134.110147202026 Eh   ::
         :: zero point energy           0.718318697921 Eh   ::
         :: G(RRHO) w/o ZPVE           -0.069552490922 Eh   ::
         :: G(RRHO) contrib.            0.648766207000 Eh   ::
         :::::::::::::::::::::::::::::::::::::::::::::::::::::

           -------------------------------------------------
          | TOTAL ENERGY             -134.110147202026 Eh   |
          | TOTAL ENTHALPY           -133.347502215938 Eh   |
          | TOTAL FREE ENERGY        -133.461380995027 Eh   |
          | GRADIENT NORM               0.000047392475 Eh/α |
          | HOMO-LUMO GAP               2.348089825521 eV   |
           -------------------------------------------------

 * finished run on 2025/09/14 at 14:09:56.182
