   * xtb version 6.7.1 (edcfbbe) compiled by 'albert@albert-system' on 2024-07-22

   ID    Z sym.   atoms
    1    6 C      1-9, 11-22, 24-41, 45-50
    2    7 N      10, 23
    3   16 S      42
    4    8 O      43, 44
    5    1 H      51-90

          program call               : xtb data2507/toluene/DDMA-TXO2/DDMA-TXO2_toluene_S0_finalOpt.xtbopt.xyz --gfn 2 --uhf 2 --gbsa toluene --ohess vtight --parallel 40 --molden --ceasefiles --namespace data2507/toluene/DDMA-TXO2/DDMA-TXO2_toluene_T1_preOpt
      * Solvation model:               GBSA
        Solvent                        toluene
        Solvent mass                       9.2140E+01 g/mol
          :  Hamiltonian                  GFN2-xTB          :
 * total energy  :  -134.0024466 Eh     change       -0.1025464E-07 Eh
 * total energy  :  -134.0054735 Eh     change       -0.3026844E-02 Eh
 * total energy  :  -134.0062983 Eh     change       -0.8248399E-03 Eh
 * total energy  :  -134.0064607 Eh     change       -0.1624065E-03 Eh
 * total energy  :  -134.0065695 Eh     change       -0.1087991E-03 Eh
 * total energy  :  -134.0066154 Eh     change       -0.4591865E-04 Eh
 * total energy  :  -134.0066585 Eh     change       -0.4304115E-04 Eh
 * total energy  :  -134.0066882 Eh     change       -0.2974013E-04 Eh
 * total energy  :  -134.0067133 Eh     change       -0.2503748E-04 Eh
 * total energy  :  -134.0067363 Eh     change       -0.2307834E-04 Eh
 * total energy  :  -134.0071053 Eh     change       -0.1835370E-05 Eh
 * total energy  :  -134.0071068 Eh     change       -0.1557481E-05 Eh
 * total energy  :  -134.0071082 Eh     change       -0.1345837E-05 Eh
 * total energy  :  -134.0071094 Eh     change       -0.1225178E-05 Eh
 * total energy  :  -134.0071106 Eh     change       -0.1185380E-05 Eh
 * total energy  :  -134.0071118 Eh     change       -0.1233112E-05 Eh
 * total energy  :  -134.0071130 Eh     change       -0.1220219E-05 Eh
 * total energy  :  -134.0071143 Eh     change       -0.1234696E-05 Eh
 * total energy  :  -134.0071143 Eh     change       -0.5382788E-08 Eh
   *** GEOMETRY OPTIMIZATION CONVERGED AFTER 68 ITERATIONS ***

 final structure:
================
90
 xtb: 6.7.1 (edcfbbe)
C            6.33659539159351       -0.70117856282020       -1.80425194862367
C            6.66394881555274       -1.44332485852983       -0.49044733832820
C            7.94224360047834       -2.25277091824699       -0.71216389011228
C            6.80138287713581       -0.43356067248516        0.63353386535268
C            7.99969566640643       -0.06276394561526        1.21568601018649
C            8.03715801397799        0.85456397406822        2.25696372896406
C            6.85811535228428        1.39199934567476        2.75337272621487
C            5.64980281114397        1.04048786644470        2.18907317026486
C            5.61532761147278        0.15833010182497        1.10689537577215
N            4.40294567451710       -0.26150753179608        0.54213141003731
C            3.40852485773229        0.59753520581642        0.12137629703846
C            3.55688260242363        2.00506517239819        0.23918330699811
C            2.55797925480430        2.82787711712312       -0.19815220715590
C            1.41320336098317        2.31353220208432       -0.81735202603771
C            1.26575437978523        0.92013650525719       -1.01919977959273
C            2.26319654324688        0.10066970894070       -0.54606221726914
C            0.04824337121788        0.39640643810224       -1.76200836232445
C            0.12064827684839        0.86129710501655       -3.23217865527932
C            0.00380166813707       -1.13624327149847       -1.78275798751609
C           -1.19692442391660        0.98614830746362       -1.11829021452264
C           -2.28011582219431        0.22145565324196       -0.73813362676947
C           -3.42811511127553        0.79799257617638       -0.17790776708405
N           -4.54728742115332       -0.02311732133122        0.13654962196341
C           -5.35757594120900       -0.47034012769976       -0.88642809376816
C           -5.05835304902805       -0.11553596864559       -2.21147920096541
C           -5.83398527155446       -0.56459267537176       -3.25559064142451
C           -6.93206857195877       -1.37408626183820       -3.00188998945345
C           -7.24687895237838       -1.70534715163905       -1.69646862906853
C           -6.48485967771809       -1.26649263979361       -0.62199810593393
C           -6.89957485357475       -1.62869269562449        0.78760054775051
C           -8.30480931049191       -1.04945164999640        1.04651960629789
C           -6.92627865894085       -3.16423735407107        0.92284999847286
C           -5.94283168550990       -1.07141972908796        1.81901142474198
C           -6.16727180847942       -1.31210959901906        3.16771081217062
C           -5.30641421679068       -0.85030460982087        4.14707613766617
C           -4.17236490517533       -0.13902485606117        3.78107490168261
C           -3.92622871979256        0.12096304051787        2.45244934411646
C           -4.81135127595902       -0.32115283691340        1.45636770827947
C           -3.48571364491644        2.18271430747285        0.05658082755414
C           -2.40872377278937        2.95394726307055       -0.29110834872737
C           -1.28635802520905        2.38122665878509       -0.89956059268522
S            0.10019277491925        3.41525795583313       -1.19569278463432
O            0.15633346370503        3.88659929336755       -2.58291684361992
O            0.10409549583234        4.50469642291049       -0.22665127564078
C            4.34535610093453       -1.65447511657511        0.39651992488878
C            3.24149074117595       -2.38686960743384        0.83988408154962
C            3.23586924432245       -3.76113047197172        0.72614762637625
C            4.33433871947993       -4.41567521531077        0.18691234766717
C            5.45255454047459       -3.69262899956509       -0.20595849729075
C            5.48393157744365       -2.31385960004714       -0.10171557127188
H            5.43863380055619       -0.09579874750802       -1.71431121477461
H            7.16315731711106       -0.04688697480583       -2.07303722354925
H            6.18579413552961       -1.42114039817181       -2.60585142304283
H            7.80064086039786       -2.95718819257687       -1.52764302149012
H            8.21988947115651       -2.79872648688347        0.18649606067059
H            8.75793790635521       -1.59186838527689       -0.99347758122100
H            8.92717842839098       -0.48487142157926        0.86519023564722
H            8.98480225506755        1.13305724354874        2.69206939981662
H            6.88067839523000        2.07542192635774        3.58900375861281
H            4.72449162577759        1.41472235599018        2.60030848112452
H            4.46313702926719        2.42960816561555        0.63640805914631
H            2.62915650306608        3.90056992244673       -0.10011542114155
H            2.20584584930497       -0.95846757335473       -0.71939931091764
H            1.01953179895897        0.46351482806257       -3.69934319146760
H            0.14549143744937        1.94335108212001       -3.30736176590077
H           -0.74806910754115        0.49793559127873       -3.77765273798351
H           -0.05156006724085       -1.54731498621161       -0.77812213690552
H            0.88900724772895       -1.52412813226969       -2.27982385163159
H           -0.85878246846240       -1.46935577741209       -2.35390164292419
H           -2.28155915619758       -0.84822055660440       -0.86756200151000
H           -4.21317768766628        0.52480445680880       -2.40680695467393
H           -5.58515054703969       -0.28092963543626       -4.26700798447892
H           -7.54457544006913       -1.73386382295892       -3.81434549130328
H           -8.11499183003356       -2.31984076257614       -1.51644022690947
H           -9.02074544812930       -1.44224976659323        0.33077111912822
H           -8.64708476458972       -1.30125579778328        2.04578295306286
H           -8.28317179387074        0.03472031620348        0.95225796200694
H           -5.93309024381004       -3.57023894722163        0.74102794776626
H           -7.24084428099589       -3.45711299480920        1.91991463145559
H           -7.61428264118141       -3.60207656152443        0.20609425093951
H           -7.03536719991821       -1.87697187650800        3.46942030655255
H           -5.51225159299229       -1.05216558085182        5.18707756786807
H           -3.48124886524353        0.21244988510450        4.53221600186632
H           -3.04350302470766        0.66994244477343        2.16496421257891
H           -4.36942603645316        2.61822716339468        0.49749022263958
H           -2.39086780067714        4.01938441270485       -0.11980217829433
H            2.41585557387373       -1.87011333387779        1.30517037781426
H            2.38128895583570       -4.32446842942930        1.06931402147928
H            4.33101885500589       -5.49062132688117        0.09082751454923
H            6.30259067789398       -4.22662075019750       -0.59769093875082

          :  Hamiltonian                  GFN2-xTB          :
         :: gradient norm              0.000073689491 Eh/a0 ::
         :: HOMO-LUMO gap              0.269537898603 eV    ::
         :: SCC energy              -136.242676306915 Eh    ::
         :: -> dispersion             -0.131424636119 Eh    ::
         :: -> Gsolv                  -0.069337911363 Eh    ::
         :: repulsion energy           2.235562053800 Eh    ::

    * Orbital Energies and Occupations

         #    Occupation            Energy/Eh            Energy/eV
      -------------------------------------------------------------
         1        2.0000           -0.7481137             -20.3572
       ...           ...                  ...                  ...
       113        2.0000           -0.4110727             -11.1859
       114        2.0000           -0.4088137             -11.1244
       115        2.0000           -0.4064750             -11.0607
       116        2.0000           -0.4060985             -11.0505
       117        2.0000           -0.4053960             -11.0314
       118        2.0000           -0.4032609             -10.9733
       119        2.0000           -0.4014636             -10.9244
       120        2.0000           -0.4008784             -10.9085
       121        2.0000           -0.3975054             -10.8167
       122        2.0000           -0.3873745             -10.5410
       123        1.5637           -0.3608700              -9.8198
       124        1.4363           -0.3603835              -9.8065
       125        0.9939           -0.2501833              -6.8078 (HOMO)
       126        0.0048           -0.2402794              -6.5383 (LUMO)
       127        0.0013           -0.2390397              -6.5046
       128        0.0000           -0.2317312              -6.3057
       129        0.0000           -0.2316045              -6.3023
       130        0.0000           -0.2313848              -6.2963
       131                         -0.2291784              -6.2363
       132                         -0.2266861              -6.1684
       133                         -0.2229920              -6.0679
       134                         -0.2195558              -5.9744
       135                         -0.2138395              -5.8189
       136                         -0.2044142              -5.5624
       ...                                ...                  ...
       245                          1.1553365              31.4383
      -------------------------------------------------------------
                  HL-Gap            0.0099039 Eh            0.2695 eV

     #   Z          covCN         q      C6AA      α(0)
     1   6 C        3.761    -0.101    22.483     6.759
     2   6 C        3.911     0.023    20.128     6.377
     3   6 C        3.759    -0.110    22.657     6.786
     4   6 C        2.987    -0.003    28.102     8.696
     5   6 C        2.921    -0.037    28.930     8.820
     6   6 C        2.918    -0.038    28.939     8.822
     7   6 C        2.918    -0.034    28.835     8.806
     8   6 C        2.918    -0.044    29.095     8.845
     9   6 C        2.956     0.047    26.949     8.515
    10   7 N        2.753    -0.011    21.468     6.881
    11   6 C        2.908     0.041    27.083     8.533
    12   6 C        2.915    -0.054    29.330     8.881
    13   6 C        2.963    -0.032    28.807     8.804
    14   6 C        2.970    -0.102    30.565     9.069
    15   6 C        3.002    -0.003    28.083     8.693
    16   6 C        2.923    -0.061    29.510     8.908
    17   6 C        3.907     0.015    20.262     6.398
    18   6 C        3.763    -0.114    22.726     6.795
    19   6 C        3.760    -0.114    22.720     6.795
    20   6 C        3.005    -0.005    28.126     8.700
    21   6 C        2.922    -0.053    29.309     8.878
    22   6 C        2.927     0.026    27.413     8.586
    23   7 N        2.754    -0.013    21.511     6.888
    24   6 C        2.929     0.060    26.646     8.466
    25   6 C        2.922    -0.048    29.189     8.860
    26   6 C        2.917    -0.028    28.702     8.785
    27   6 C        2.917    -0.032    28.803     8.801
    28   6 C        2.925    -0.033    28.831     8.805
    29   6 C        2.978    -0.001    28.055     8.688
    30   6 C        3.909     0.024    20.114     6.375
    31   6 C        3.761    -0.107    22.599     6.777
    32   6 C        3.761    -0.108    22.617     6.779
    33   6 C        2.978    -0.001    28.058     8.689
    34   6 C        2.925    -0.033    28.831     8.806
    35   6 C        2.917    -0.032    28.808     8.801
    36   6 C        2.917    -0.028    28.704     8.786
    37   6 C        2.922    -0.047    29.178     8.858
    38   6 C        2.930     0.060    26.646     8.466
    39   6 C        2.915    -0.048    29.180     8.858
    40   6 C        2.972    -0.035    28.878     8.815
    41   6 C        2.971    -0.108    30.719     9.091
    42  16 S        3.850     0.893   109.775    17.634
    43   8 O        0.859    -0.623    26.692     6.927
    44   8 O        0.860    -0.607    26.301     6.876
    45   6 C        2.957     0.046    26.963     8.517
    46   6 C        2.918    -0.044    29.101     8.846
    47   6 C        2.918    -0.033    28.825     8.804
    48   6 C        2.918    -0.038    28.934     8.821
    49   6 C        2.921    -0.037    28.922     8.819
    50   6 C        2.987    -0.003    28.096     8.695
    51   1 H        0.925     0.035     2.521     2.483
    52   1 H        0.925     0.043     2.405     2.425
    53   1 H        0.925     0.045     2.382     2.414
    54   1 H        0.925     0.048     2.344     2.394
    55   1 H        0.925     0.044     2.399     2.422
    56   1 H        0.925     0.047     2.359     2.402
    57   1 H        0.926     0.050     2.320     2.382
    58   1 H        0.926     0.038     2.477     2.461
    59   1 H        0.926     0.037     2.483     2.464
    60   1 H        0.926     0.041     2.439     2.442
    61   1 H        0.926     0.048     2.343     2.393
    62   1 H        0.926     0.028     2.618     2.530
    63   1 H        0.926     0.066     2.130     2.282
    64   1 H        0.925     0.041     2.438     2.442
    65   1 H        0.925     0.045     2.388     2.416
    66   1 H        0.925     0.042     2.428     2.437
    67   1 H        0.925     0.047     2.359     2.402
    68   1 H        0.925     0.050     2.322     2.383
    69   1 H        0.925     0.051     2.308     2.376
    70   1 H        0.926     0.057     2.239     2.340
    71   1 H        0.926     0.042     2.424     2.434
    72   1 H        0.926     0.040     2.446     2.446
    73   1 H        0.926     0.043     2.408     2.427
    74   1 H        0.926     0.050     2.322     2.383
    75   1 H        0.925     0.051     2.302     2.373
    76   1 H        0.925     0.052     2.300     2.371
    77   1 H        0.925     0.036     2.507     2.476
    78   1 H        0.925     0.038     2.471     2.458
    79   1 H        0.925     0.052     2.298     2.371
    80   1 H        0.925     0.052     2.296     2.369
    81   1 H        0.926     0.050     2.323     2.384
    82   1 H        0.926     0.043     2.409     2.427
    83   1 H        0.926     0.040     2.445     2.445
    84   1 H        0.926     0.041     2.435     2.440
    85   1 H        0.926     0.039     2.467     2.456
    86   1 H        0.926     0.027     2.623     2.533
    87   1 H        0.926     0.044     2.400     2.422
    88   1 H        0.926     0.041     2.438     2.442
    89   1 H        0.926     0.039     2.462     2.454
    90   1 H        0.926     0.050     2.324     2.384

molecular dipole:
                 x           y           z       tot (Debye)
 q only:       -1.003      -6.388       1.693
   full:       -0.967      -5.757       1.676      15.437

 projected vibrational frequencies (cm⁻¹)
eigval :       -0.00    -0.00     0.00     0.00     0.00     0.00
eigval :       10.08    11.41    13.88    24.71    25.35    39.52
eigval :       50.43    56.63    63.07    81.41    86.68    98.07
eigval :      101.44   120.45   130.84   133.12   133.89   134.67
eigval :      145.07   153.53   165.42   176.44   188.59   192.38
eigval :      196.71   197.72   207.42   218.43   228.16   233.63
eigval :      235.21   253.70   258.02   280.05   283.48   296.64
eigval :      302.91   305.37   314.74   323.01   325.46   328.26
eigval :      334.17   342.44   346.89   348.48   357.26   362.47
eigval :      379.03   381.32   386.17   394.04   402.30   407.61
eigval :      410.98   417.88   427.22   431.82   447.98   450.13
eigval :      450.89   462.56   490.76   491.33   496.80   503.58
eigval :      512.38   520.33   533.94   542.43   547.48   552.22
eigval :      558.17   565.19   569.66   576.69   583.51   589.37
eigval :      599.40   615.43   634.72   638.45   644.88   652.03
eigval :      665.57   680.60   687.49   692.74   699.97   701.18
eigval :      711.74   727.05   764.42   768.95   772.01   775.42
eigval :      776.83   793.00   797.71   807.20   821.36   825.69
eigval :      833.87   855.88   870.99   872.87   874.60   881.24
eigval :      890.66   892.77   898.47   902.91   905.20   908.39
eigval :      914.74   915.39   921.48   921.84   923.83   929.54
eigval :      931.25   935.93   939.20   955.24   958.01   958.89
eigval :      967.21   977.56   998.13  1006.59  1008.03  1013.09
eigval :     1013.25  1044.92  1067.83  1072.70  1072.92  1083.18
eigval :     1090.20  1095.36  1098.10  1107.01  1109.99  1118.10
eigval :     1127.48  1132.79  1136.47  1144.94  1145.59  1146.17
eigval :     1155.48  1157.98  1166.91  1172.16  1177.36  1180.54
eigval :     1181.91  1183.27  1186.19  1193.52  1205.60  1221.33
eigval :     1223.82  1231.21  1239.10  1242.66  1248.02  1253.96
eigval :     1256.44  1258.94  1266.30  1273.39  1291.83  1294.56
eigval :     1299.50  1306.53  1320.22  1327.11  1327.49  1330.54
eigval :     1334.25  1334.93  1351.71  1363.57  1387.12  1393.20
eigval :     1394.99  1396.33  1397.32  1404.50  1411.81  1412.30
eigval :     1414.93  1416.72  1421.68  1427.24  1436.50  1438.83
eigval :     1450.38  1452.19  1454.29  1468.53  1481.89  1482.52
eigval :     1488.33  1488.71  1489.36  1490.47  1491.22  1495.25
eigval :     1497.53  1502.92  1504.07  1511.42  1515.12  1518.63
eigval :     1523.25  1539.21  1541.24  1544.47  1551.68  1568.59
eigval :     1572.08  1590.14  3021.47  3024.13  3027.77  3027.91
eigval :     3029.67  3029.98  3033.00  3034.40  3034.80  3037.14
eigval :     3047.11  3048.28  3049.16  3050.99  3051.17  3056.20
eigval :     3060.18  3078.76  3080.51  3081.34  3083.43  3083.48
eigval :     3087.57  3088.08  3088.39  3090.77  3090.87  3094.62
eigval :     3095.35  3095.83  3096.30  3100.86  3101.23  3108.75
eigval :     3111.54  3113.50  3114.77  3115.68  3117.57  3147.72

   temp. (K)  partition function   enthalpy   heat capacity  entropy
                                   cal/mol     cal/K/mol   cal/K/mol   J/K/mol
 298.15  VIB  0.283E+19            25724.779    166.286    156.196
         ROT  0.975E+08              888.752      2.981     39.538
         INT  0.276E+27            26613.531    169.267    195.734
         TR   0.169E+29             1481.254      4.968     45.380
         TOT                       28094.7850   174.2348   241.1136  1008.8194

       T/K    H(0)-H(T)+PV         H(T)/Eh          T*S/Eh         G(T)/Eh
   ------------------------------------------------------------------------
    298.15    0.447719E-01    0.757797E+00    0.114561E+00    0.643236E+00
   ------------------------------------------------------------------------

         :::::::::::::::::::::::::::::::::::::::::::::::::::::
         ::                  THERMODYNAMIC                  ::
         :::::::::::::::::::::::::::::::::::::::::::::::::::::
         :: total free energy        -133.363878460011 Eh   ::
         ::.................................................::
         :: total energy             -134.007114262876 Eh   ::
         :: zero point energy           0.713024773791 Eh   ::
         :: G(RRHO) w/o ZPVE           -0.069788970925 Eh   ::
         :: G(RRHO) contrib.            0.643235802865 Eh   ::
         :::::::::::::::::::::::::::::::::::::::::::::::::::::

           -------------------------------------------------
          | TOTAL ENERGY             -134.007114262876 Eh   |
          | TOTAL ENTHALPY           -133.249317599296 Eh   |
          | TOTAL FREE ENERGY        -133.363878460011 Eh   |
          | GRADIENT NORM               0.000071697926 Eh/α |
          | HOMO-LUMO GAP               0.269497538696 eV   |
           -------------------------------------------------

 * finished run on 2025/09/14 at 14:10:09.575
