   * xtb version 6.7.1 (edcfbbe) compiled by 'albert@albert-system' on 2024-07-22

   ID    Z sym.   atoms
    1    7 N      1, 5, 15, 39
    2    6 C      2-4, 6-14, 16-38, 40-56
    3    1 H      57-90

          program call               : xtb data2507/toluene/36DTPAFM/36DTPAFM_toluene_S0_finalOpt.xtbopt.xyz --gfn 2 --uhf 2 --gbsa toluene --ohess vtight --parallel 40 --molden --ceasefiles --namespace data2507/toluene/36DTPAFM/36DTPAFM_toluene_T1_preOpt
      * Solvation model:               GBSA
        Solvent                        toluene
        Solvent mass                       9.2140E+01 g/mol
          :  Hamiltonian                  GFN2-xTB          :
 * total energy  :  -140.3266843 Eh     change       -0.1113241E-07 Eh
 * total energy  :  -140.3295849 Eh     change       -0.2900617E-02 Eh
 * total energy  :  -140.3301663 Eh     change       -0.5814241E-03 Eh
 * total energy  :  -140.3299258 Eh     change        0.2405375E-03 Eh
 * total energy  :  -140.3302234 Eh     change       -0.2975671E-03 Eh
 * total energy  :  -140.3302349 Eh     change       -0.1150237E-04 Eh
 * total energy  :  -140.3302375 Eh     change       -0.2690140E-05 Eh
 * total energy  :  -140.3302464 Eh     change       -0.8888307E-05 Eh
 * total energy  :  -140.3302506 Eh     change       -0.4136462E-05 Eh
 * total energy  :  -140.3302522 Eh     change       -0.1623068E-05 Eh
 * total energy  :  -140.3302771 Eh     change       -0.1909685E-06 Eh
 * total energy  :  -140.3302773 Eh     change       -0.1814858E-06 Eh
 * total energy  :  -140.3302775 Eh     change       -0.1702601E-06 Eh
 * total energy  :  -140.3302776 Eh     change       -0.1513544E-06 Eh
 * total energy  :  -140.3302778 Eh     change       -0.2015865E-06 Eh
 * total energy  :  -140.3302782 Eh     change       -0.3589247E-06 Eh
 * total energy  :  -140.3302787 Eh     change       -0.5409584E-06 Eh
 * total energy  :  -140.3302792 Eh     change       -0.4879186E-06 Eh
 * total energy  :  -140.3302792 Eh     change       -0.3842104E-08 Eh
   *** GEOMETRY OPTIMIZATION CONVERGED AFTER 44 ITERATIONS ***

 final structure:
================
90
 xtb: 6.7.1 (edcfbbe)
N           -2.06695481806236       -8.00821502019991        0.04831906997849
C           -1.15299774163676       -7.29770154016595        0.03376349448865
C           -0.00397883125715       -6.51580684659706        0.01830251883890
C            1.14417799168699       -7.29892601234621        0.03671131899493
N            2.05734029488572       -8.01037109292746        0.05394651215565
C           -0.00318613218967       -5.10000094673836       -0.00899658560228
C           -1.15301438343155       -4.24762696326335       -0.02043403496555
C           -2.52285484634586       -4.52165579665836       -0.01432850719871
C           -3.41928012344139       -3.47841362906348       -0.00827888421187
C           -3.00196881922831       -2.13148598656349       -0.02617450172019
C           -3.98322235097110       -1.05465746892006       -0.02105066272798
C           -5.19421842057709       -1.17771795598161        0.67360169315883
C           -6.11785183592562       -0.15936044197676        0.68819800039181
C           -5.87402169901831        1.03358333746617       -0.00402758895006
N           -6.80643040525035        2.06351910334855        0.00592287989954
C           -8.17566547229673        1.77503099667680        0.06090131280173
C           -9.03204700938094        2.57169204987419        0.82323803191872
C          -10.38297086472047        2.28789227820196        0.87086618824836
C          -10.89846960596645        1.21008198545066        0.16715415825582
C          -10.05165325391997        0.41641321310837       -0.59144574461705
C           -8.69955146360115        0.69311402037765       -0.64946301325878
C           -6.38661987264625        3.39842258529901       -0.03631576540510
C           -7.11120298499141        4.34099912668656       -0.76852228236046
C           -6.69760705239282        5.65842034280677       -0.80312232653543
C           -5.56046228068949        6.05531955210896       -0.11613797604150
C           -4.83795494849593        5.12272544993712        0.61237557971311
C           -5.24470221130650        3.80344271649101        0.65784849617418
C           -4.66923088578514        1.16413582509545       -0.70633647598134
C           -3.74764675962927        0.14397282144092       -0.70826397263472
C           -1.63302731843692       -1.84979261829609       -0.04821070783861
C           -0.72162512227022       -2.88345248350728       -0.03663151962312
C            0.71783959159424       -2.88428232346446       -0.03690265430266
C            1.63044776207145       -1.85167989745463       -0.04886562092048
C            2.99905975556823       -2.13498994993943       -0.02732435732160
C            3.98165853434917       -1.05938005555405       -0.02216974306058
C            5.19246056713137       -1.18409653263212        0.67252607004829
C            6.11740385397319       -0.16694094768006        0.68734440006038
C            5.87525896748424        1.02636892775461       -0.00486037132541
N            6.80911819662115        2.05501279157545        0.00506318225601
C            6.39108581003059        3.39048775420696       -0.03774914445097
C            5.24976596904405        3.79734773768833        0.65632756917360
C            4.84466184521400        5.11711300274475        0.61014021409751
C            5.56824063225439        6.04838520658592       -0.11900125623062
C            6.70483075092949        5.64967278245455       -0.80585437400851
C            7.11677581936678        4.33175297530974       -0.77055130607619
C            8.17796675556754        1.76471077140651        0.06007499365654
C            9.03558517043107        2.56088329643946        0.82155968851148
C           10.38612499910209        2.27528094479089        0.86924048089631
C           10.90006375200282        1.19609943386700        0.16649054515004
C           10.05204223904010        0.40290690122814       -0.59125968178365
C            8.70032838854620        0.68145361828638       -0.64939419265383
C            4.67064368839703        1.15856360117530       -0.70718930916156
C            3.74767281012094        0.13965068402583       -0.70921377832008
C            3.41479220369534       -3.48240742392178       -0.00981512907850
C            2.51714628527298       -4.52459770446623       -0.01549266024529
C            1.14763132908871       -4.24895530885801       -0.02076294597352
H           -2.87819578171894       -5.54123557433924       -0.01531729748358
H           -4.47621684583110       -3.70043759559725       -0.02513000876070
H           -5.39069036330521       -2.07399446265571        1.24205640675535
H           -7.02986942141270       -0.26675219945096        1.25649513384210
H           -8.62810754256904        3.40159775517850        1.38380586028943
H          -11.03614861778601        2.90627549848766        1.46822916498155
H          -11.95437987002918        0.99036607244358        0.20830030089624
H          -10.44795653060167       -0.41929809389173       -1.14871769669316
H           -8.04304689924109        0.08414527695425       -1.25324865149082
H           -7.98852051342064        4.02975197938701       -1.31582958285513
H           -7.26202631411206        6.37809871862546       -1.37700074660110
H           -5.24006063842384        7.08553194993425       -0.14762307102102
H           -3.95640010893857        5.42621593232411        1.15712850629788
H           -4.69205304810589        3.08107020301239        1.24008871561049
H           -4.47845961713764        2.06550421150455       -1.26974803077950
H           -2.84179082284596        0.25424087313270       -1.28452016740423
H           -1.28886432243068       -0.82613487343649       -0.03535634447405
H            1.28749833802292       -0.82761437874057       -0.03585561789345
H            5.38771059477142       -2.08071029649026        1.24087080373674
H            7.02920535051974       -0.27559379521445        1.25574689583389
H            4.69622140427857        3.07598417209127        1.23897002245456
H            3.96347862500709        5.42199365917460        1.15471858202395
H            5.24912045414076        7.07898007375314       -0.15104756946283
H            7.27017334331651        6.36833823547932       -1.38009449699861
H            7.99367579891285        4.01910365422149       -1.31772880285104
H            8.63293011436967        3.39190378509318        1.38139900611498
H           11.04025997105974        2.89346398847477        1.46576426064907
H           11.95569726044069        0.97504350382441        0.20760509541284
H           10.44707122440970       -0.43393536053423       -1.14774533705277
H            8.04294202669705        0.07280141367627       -1.25253702483163
H            4.48108634557837        2.06022447079953       -1.27054047882177
H            2.84195934827897        0.25119469137598       -1.28545199266616
H            4.47146293292546       -3.70564697228666       -0.02727584904258
H            2.87129436231711       -5.54459200489647       -0.01687127009024

          :  Hamiltonian                  GFN2-xTB          :
         :: gradient norm              0.000076555268 Eh/a0 ::
         :: HOMO-LUMO gap              1.283441282515 eV    ::
         :: SCC energy              -143.051090333044 Eh    ::
         :: -> dispersion             -0.124298258882 Eh    ::
         :: -> Gsolv                  -0.085354484237 Eh    ::
         :: repulsion energy           2.720811108811 Eh    ::

    * Orbital Energies and Occupations

         #    Occupation            Energy/Eh            Energy/eV
      -------------------------------------------------------------
         1        2.0000           -0.6843868             -18.6231
       ...           ...                  ...                  ...
       120        2.0000           -0.4168789             -11.3439
       121        2.0000           -0.4168693             -11.3436
       122        2.0000           -0.4157028             -11.3119
       123        2.0000           -0.4129602             -11.2372
       124        2.0000           -0.4117049             -11.2031
       125        2.0000           -0.4042673             -11.0007
       126        2.0000           -0.4006890             -10.9033
       127        2.0000           -0.3967426             -10.7959
       128        2.0000           -0.3762616             -10.2386
       129        2.0000           -0.3756115             -10.2209
       130        1.5119           -0.3613922              -9.8340
       131        1.4881           -0.3613015              -9.8315
       132        1.0000           -0.3039406              -8.2706 (HOMO)
       133                         -0.2567749              -6.9872 (LUMO)
       134                         -0.2479281              -6.7465
       135                         -0.2447161              -6.6591
       136                         -0.2447138              -6.6590
       137                         -0.2395055              -6.5173
       138                         -0.2394773              -6.5165
       139                         -0.2383374              -6.4855
       140                         -0.2343292              -6.3764
       141                         -0.2342838              -6.3752
       142                         -0.2324986              -6.3266
       143                         -0.2324703              -6.3258
       ...                                ...                  ...
       258                          1.1762340              32.0070
      -------------------------------------------------------------
                  HL-Gap            0.0471657 Eh            1.2834 eV

     #   Z          covCN         q      C6AA      α(0)
     1   7 N        0.911    -0.359    29.250     7.822
     2   6 C        1.952     0.118    28.182     8.573
     3   6 C        2.945    -0.036    28.895     8.816
     4   6 C        1.952     0.118    28.182     8.573
     5   7 N        0.911    -0.359    29.250     7.822
     6   6 C        3.030    -0.013    28.308     8.727
     7   6 C        3.069    -0.010    28.188     8.706
     8   6 C        2.907    -0.038    28.952     8.823
     9   6 C        2.922    -0.038    28.949     8.823
    10   6 C        2.975     0.001    28.001     8.680
    11   6 C        2.974     0.015    27.679     8.630
    12   6 C        2.922    -0.031    28.772     8.796
    13   6 C        2.918    -0.043    29.056     8.839
    14   6 C        2.924     0.063    26.587     8.456
    15   7 N        2.752    -0.033    21.888     6.948
    16   6 C        2.926     0.063    26.582     8.455
    17   6 C        2.921    -0.041    29.017     8.834
    18   6 C        2.919    -0.026    28.640     8.776
    19   6 C        2.919    -0.030    28.738     8.791
    20   6 C        2.919    -0.025    28.639     8.776
    21   6 C        2.921    -0.041    29.009     8.832
    22   6 C        2.926     0.063    26.581     8.455
    23   6 C        2.921    -0.041    29.016     8.833
    24   6 C        2.919    -0.025    28.639     8.776
    25   6 C        2.919    -0.030    28.744     8.792
    26   6 C        2.919    -0.026    28.642     8.776
    27   6 C        2.921    -0.041    29.016     8.833
    28   6 C        2.918    -0.043    29.064     8.841
    29   6 C        2.923    -0.031    28.782     8.798
    30   6 C        2.915    -0.039    28.973     8.827
    31   6 C        3.053    -0.011    28.247     8.716
    32   6 C        3.053    -0.011    28.247     8.716
    33   6 C        2.915    -0.039    28.973     8.827
    34   6 C        2.975     0.001    28.001     8.680
    35   6 C        2.974     0.015    27.679     8.630
    36   6 C        2.922    -0.031    28.772     8.796
    37   6 C        2.918    -0.043    29.056     8.839
    38   6 C        2.924     0.063    26.587     8.456
    39   7 N        2.752    -0.033    21.888     6.948
    40   6 C        2.926     0.063    26.582     8.455
    41   6 C        2.921    -0.041    29.016     8.833
    42   6 C        2.919    -0.026    28.642     8.776
    43   6 C        2.919    -0.030    28.744     8.792
    44   6 C        2.919    -0.025    28.639     8.776
    45   6 C        2.921    -0.041    29.016     8.833
    46   6 C        2.926     0.063    26.582     8.455
    47   6 C        2.921    -0.041    29.017     8.834
    48   6 C        2.919    -0.026    28.640     8.776
    49   6 C        2.919    -0.030    28.738     8.791
    50   6 C        2.919    -0.025    28.639     8.776
    51   6 C        2.921    -0.041    29.009     8.832
    52   6 C        2.918    -0.043    29.064     8.841
    53   6 C        2.923    -0.031    28.782     8.798
    54   6 C        2.922    -0.038    28.949     8.823
    55   6 C        2.907    -0.038    28.952     8.823
    56   6 C        3.069    -0.010    28.188     8.706
    57   1 H        0.926     0.019     2.754     2.595
    58   1 H        0.926     0.030     2.589     2.516
    59   1 H        0.926     0.043     2.410     2.428
    60   1 H        0.926     0.044     2.392     2.418
    61   1 H        0.926     0.044     2.392     2.419
    62   1 H        0.926     0.045     2.382     2.413
    63   1 H        0.926     0.043     2.408     2.426
    64   1 H        0.926     0.044     2.401     2.423
    65   1 H        0.926     0.043     2.410     2.428
    66   1 H        0.926     0.043     2.404     2.425
    67   1 H        0.926     0.045     2.387     2.416
    68   1 H        0.926     0.044     2.401     2.423
    69   1 H        0.926     0.045     2.385     2.415
    70   1 H        0.926     0.044     2.401     2.423
    71   1 H        0.926     0.046     2.366     2.405
    72   1 H        0.926     0.046     2.369     2.407
    73   1 H        0.926     0.036     2.508     2.476
    74   1 H        0.926     0.036     2.508     2.476
    75   1 H        0.926     0.043     2.410     2.428
    76   1 H        0.926     0.044     2.391     2.418
    77   1 H        0.926     0.044     2.401     2.423
    78   1 H        0.926     0.045     2.385     2.415
    79   1 H        0.926     0.044     2.401     2.423
    80   1 H        0.926     0.045     2.387     2.416
    81   1 H        0.926     0.043     2.404     2.425
    82   1 H        0.926     0.044     2.392     2.419
    83   1 H        0.926     0.045     2.382     2.414
    84   1 H        0.926     0.043     2.408     2.426
    85   1 H        0.926     0.044     2.401     2.423
    86   1 H        0.926     0.043     2.410     2.428
    87   1 H        0.926     0.046     2.366     2.405
    88   1 H        0.926     0.046     2.369     2.407
    89   1 H        0.926     0.030     2.589     2.516
    90   1 H        0.926     0.019     2.754     2.595

molecular dipole:
                 x           y           z       tot (Debye)
 q only:        0.007      11.750      -0.048
   full:        0.007      11.895      -0.049      30.235

 projected vibrational frequencies (cm⁻¹)
eigval :       -0.00    -0.00    -0.00    -0.00    -0.00     0.00
eigval :        8.53    11.69    13.42    16.90    17.96    23.08
eigval :       28.44    39.81    43.34    47.37    49.95    50.94
eigval :       63.77    64.49    71.61    71.98    77.82    87.31
eigval :      103.94   104.10   107.46   115.47   125.20   125.49
eigval :      147.58   157.54   167.50   183.50   196.64   213.17
eigval :      224.09   228.89   233.57   234.28   240.27   270.54
eigval :      301.94   304.76   306.14   313.12   326.22   340.81
eigval :      345.92   370.40   373.79   375.84   376.28   378.03
eigval :      380.13   388.27   388.78   392.84   398.17   405.48
eigval :      408.94   414.86   426.94   438.58   447.72   461.09
eigval :      464.08   479.53   493.09   497.44   511.13   518.55
eigval :      519.64   537.01   553.76   579.73   581.58   582.30
eigval :      583.61   587.98   591.45   591.90   592.48   593.23
eigval :      599.58   612.15   616.63   620.53   622.86   659.42
eigval :      659.59   659.90   663.87   679.56   681.16   691.60
eigval :      692.47   698.82   702.99   725.63   746.09   755.41
eigval :      755.97   758.72   761.86   808.14   808.51   828.12
eigval :      828.82   851.63   855.05   858.31   865.29   866.24
eigval :      866.60   868.23   870.28   871.48   895.20   896.96
eigval :      897.05   897.54   900.15   908.23   908.26   911.11
eigval :      911.31   915.51   916.68   918.55   918.92   924.08
eigval :      925.51   927.04   927.80   928.70   928.77   929.32
eigval :      929.41   929.90   930.02   933.61   977.99   981.95
eigval :     1000.07  1001.97  1001.99  1011.78  1026.12  1064.31
eigval :     1065.89  1078.52  1078.70  1080.08  1080.11  1119.20
eigval :     1119.23  1121.30  1121.34  1134.84  1136.00  1143.85
eigval :     1147.30  1172.36  1176.75  1176.86  1177.86  1178.93
eigval :     1179.87  1188.50  1189.06  1189.18  1190.79  1205.65
eigval :     1212.36  1217.79  1224.76  1225.20  1244.16  1254.81
eigval :     1263.20  1268.96  1269.57  1272.38  1272.52  1274.95
eigval :     1275.77  1286.90  1290.35  1295.02  1296.63  1305.30
eigval :     1313.56  1313.97  1316.12  1323.11  1323.24  1324.94
eigval :     1326.97  1335.31  1345.23  1393.52  1411.77  1416.19
eigval :     1416.62  1430.49  1430.90  1436.31  1436.68  1443.81
eigval :     1454.20  1456.24  1456.29  1456.39  1457.91  1472.15
eigval :     1480.48  1488.33  1511.98  1520.65  1523.46  1526.99
eigval :     1535.92  1562.45  1567.27  1567.28  1570.84  1571.25
eigval :     1579.71  1579.73  1580.70  1585.58  1588.99  1593.34
eigval :     2244.14  2307.83  3075.53  3077.17  3078.71  3079.35
eigval :     3080.59  3080.61  3080.81  3080.83  3081.31  3081.32
eigval :     3081.98  3081.99  3083.49  3083.52  3084.65  3084.69
eigval :     3088.88  3088.95  3089.81  3089.91  3092.14  3092.18
eigval :     3093.09  3093.10  3095.52  3095.58  3097.09  3097.53
eigval :     3100.06  3100.15  3100.31  3100.35  3100.53  3101.22

   temp. (K)  partition function   enthalpy   heat capacity  entropy
                                   cal/mol     cal/K/mol   cal/K/mol   J/K/mol
 298.15  VIB  0.299E+23            27319.829    167.772    172.845
         ROT  0.236E+09              888.752      2.981     41.294
         INT  0.705E+31            28208.582    170.753    214.139
         TR   0.185E+29             1481.254      4.968     45.560
         TOT                       29689.8357   175.7208   259.6996  1086.5831

       T/K    H(0)-H(T)+PV         H(T)/Eh          T*S/Eh         G(T)/Eh
   ------------------------------------------------------------------------
    298.15    0.473138E-01    0.729792E+00    0.123392E+00    0.606400E+00
   ------------------------------------------------------------------------

         :::::::::::::::::::::::::::::::::::::::::::::::::::::
         ::                  THERMODYNAMIC                  ::
         :::::::::::::::::::::::::::::::::::::::::::::::::::::
         :: total free energy        -139.723879354367 Eh   ::
         ::.................................................::
         :: total energy             -140.330279222642 Eh   ::
         :: zero point energy           0.682477760702 Eh   ::
         :: G(RRHO) w/o ZPVE           -0.076077892426 Eh   ::
         :: G(RRHO) contrib.            0.606399868276 Eh   ::
         :::::::::::::::::::::::::::::::::::::::::::::::::::::

           -------------------------------------------------
          | TOTAL ENERGY             -140.330279222642 Eh   |
          | TOTAL ENTHALPY           -139.600487697077 Eh   |
          | TOTAL FREE ENERGY        -139.723879354367 Eh   |
          | GRADIENT NORM               0.000177042173 Eh/α |
          | HOMO-LUMO GAP               1.283444990184 eV   |
           -------------------------------------------------

 * finished run on 2025/07/20 at 07:42:46.403
