   * xtb version 6.7.1 (edcfbbe) compiled by 'albert@albert-system' on 2024-07-22

   ID    Z sym.   atoms
    1    7 N      1, 5, 15, 39
    2    6 C      2-4, 6-14, 16-38, 40-56
    3    1 H      57-90

          program call               : xtb data2507/toluene/36DTPAFM/36DTPAFM_toluene_T1_crest.xyz --gfn 2 --uhf 2 --gbsa toluene --ohess vtight --parallel 40 --molden --ceasefiles --namespace data2507/toluene/36DTPAFM/36DTPAFM_toluene_T1_finalOpt
      * Solvation model:               GBSA
        Solvent                        toluene
        Solvent mass                       9.2140E+01 g/mol
          :  Hamiltonian                  GFN2-xTB          :
 * total energy  :  -140.3301363 Eh     change       -0.2975810E-08 Eh
 * total energy  :  -140.3302203 Eh     change       -0.8398456E-04 Eh
 * total energy  :  -140.3302279 Eh     change       -0.7615055E-05 Eh
 * total energy  :  -140.3302363 Eh     change       -0.8335498E-05 Eh
 * total energy  :  -140.3302519 Eh     change       -0.1562584E-04 Eh
 * total energy  :  -140.3302482 Eh     change        0.3714598E-05 Eh
 * total energy  :  -140.3302580 Eh     change       -0.9826103E-05 Eh
 * total energy  :  -140.3302597 Eh     change       -0.1714959E-05 Eh
 * total energy  :  -140.3302615 Eh     change       -0.1778804E-05 Eh
 * total energy  :  -140.3302623 Eh     change       -0.8108765E-06 Eh
 * total energy  :  -140.3302750 Eh     change       -0.4257699E-06 Eh
 * total energy  :  -140.3302756 Eh     change       -0.5676708E-06 Eh
 * total energy  :  -140.3302763 Eh     change       -0.6833197E-06 Eh
 * total energy  :  -140.3302769 Eh     change       -0.5717018E-06 Eh
 * total energy  :  -140.3302775 Eh     change       -0.6892163E-06 Eh
 * total energy  :  -140.3302780 Eh     change       -0.4807281E-06 Eh
 * total energy  :  -140.3302784 Eh     change       -0.3521632E-06 Eh
 * total energy  :  -140.3302786 Eh     change       -0.2295264E-06 Eh
 * total energy  :  -140.3302786 Eh     change       -0.1504958E-08 Eh
   *** GEOMETRY OPTIMIZATION CONVERGED AFTER 44 ITERATIONS ***

 final structure:
================
90
 xtb: 6.7.1 (edcfbbe)
N           -2.06528164260663       -8.00977515092456        0.04195417958241
C           -1.15066166135250       -7.30031883840407        0.01913261806755
C           -0.00131623878844       -6.51918566903344       -0.00659306221807
C            1.14667993359638       -7.30271647865375       -0.00426234989025
N            2.05992573114648       -8.01427870428901       -0.00084252374169
C           -0.00012792015427       -5.10329565399777       -0.02916836776352
C           -1.14980647043489       -4.25054694173396       -0.03205618699207
C           -2.51973660475842       -4.52394107708441       -0.01955258086511
C           -3.41572107365411       -3.48031143962343       -0.00889479041583
C           -2.99795910207748       -2.13357226975037       -0.02857458672311
C           -3.97854228264811       -1.05615203896548       -0.02247730743021
C           -5.18827320752200       -1.17700372842659        0.67471405161076
C           -6.11128928943110       -0.15804758779636        0.68881392444489
C           -5.86825035588809        1.03315028642226       -0.00671958960435
N           -6.80009520335126        2.06360625928540        0.00186913040416
C           -8.16941484351887        1.77661051396002        0.06016213099977
C           -9.02418095131929        2.57834352705851        0.81905522029702
C          -10.37523289071153        2.29581766407187        0.87029871884152
C          -10.89255007360481        1.21420840822284        0.17378642817984
C          -10.04742810407645        0.41559438276603       -0.58150483110000
C           -8.69526361382682        0.69111056089908       -0.64331944317259
C           -6.37900249628488        3.39804096396749       -0.04569186577204
C           -7.10252945825965        4.33838872983198       -0.78174689707275
C           -6.68745403788256        5.65520563678237       -0.82169457533586
C           -5.54993691394281        6.05362460300536       -0.13621497479809
C           -4.82845235526179        5.12321118430699        0.59608483064160
C           -5.23662443166405        3.80455537723166        0.64680833090438
C           -4.66454772360727        1.16155312535513       -0.71131414042103
C           -3.74350939815951        0.14094650197635       -0.71256756505455
C           -1.62898636709678       -1.85247995608702       -0.05518113650217
C           -0.71804062799792       -2.88652682929161       -0.04796730833110
C            0.72136488647329       -2.88778196075132       -0.05477803025130
C            1.63393542961867       -1.85523456547188       -0.06645550952034
C            3.00268088183286       -2.13851786647621       -0.05141383438528
C            3.98441399412251       -1.06217327446187       -0.04257908138633
C            5.19841557697898       -1.19106178492482        0.64579408503193
C            6.12051117829682       -0.17142940685629        0.66817717115781
C            5.87144684764800        1.02908502183262       -0.00877776305196
N            6.80036123978110        2.06225708268773        0.01296326189585
C            6.37513842939484        3.39585122056939       -0.00306665779951
C            5.23235018711658        3.78256234927708        0.70018806587626
C            4.81996788976457        5.10070297484389        0.68102000490723
C            5.53773009531096        6.05050323900869       -0.02974679112583
C            6.67571215200635        5.67185779786378       -0.72561648002342
C            7.09474175281041        4.35573144044779       -0.71758669211789
C            8.17064546958760        1.77696721148986        0.05680767546198
C            9.02849721730607        2.56217743819580        0.82926048846973
C           10.38038238012169        2.28126582818288        0.86541678544302
C           10.89538767892165        1.21781959778965        0.13984150636155
C           10.04703666198769        0.43539456710608       -0.62866150077104
C            8.69388803888472        0.70917305535032       -0.67506458585671
C            4.66480454135537        1.16478390765911       -0.70678885600204
C            3.74525507254463        0.14285745801742       -0.71737744169355
C            3.41823428680348       -3.48609201069206       -0.04126649221243
C            2.52045687111911       -4.52820273099638       -0.04671767328657
C            1.15090035462683       -4.25256380188096       -0.04486134740214
H           -2.87560144976241       -5.54333026092478       -0.01964611487992
H           -4.47280688923967       -3.70192607792782       -0.02119952658283
H           -5.38427625651224       -2.07199272584710        1.24536362406796
H           -7.02226066634191       -0.26369839787321        1.25910818156137
H           -8.61892462468045        3.41128654930020        1.37414022917375
H          -11.02709960703501        2.91826692679643        1.46486662084862
H          -11.94853271866067        0.99542947357320        0.21786264379456
H          -10.44511103083098       -0.42316590162681       -1.13318902702604
H           -8.04023214365615        0.07828870493614       -1.24479347623311
H           -7.98016516951905        4.02583183813075       -1.32780006972456
H           -7.25104756774223        6.37319437967548       -1.39849261648488
H           -5.22841747260485        7.08335294214226       -0.17183270111270
H           -3.94651469425755        5.42792562536529        1.13952611734003
H           -4.68467953883554        3.08383179433831        1.23176085448472
H           -4.47429099848112        2.06150938509402       -1.27714371198145
H           -2.83866556616169        0.24946117591457       -1.29073460258318
H           -1.28430376435514       -0.82899231612182       -0.04313004093513
H            1.29086097479075       -0.83132688356343       -0.04772582904106
H            5.39837924539208       -2.09303637504886        1.20388696355939
H            7.03497370742654       -0.28350110732767        1.23163802003308
H            4.68345105326953        3.04677199318134        1.26899162323322
H            3.93778663258642        5.38963150518183        1.23264904788539
H            5.21319419428865        7.07984507339868       -0.04034603175190
H            7.23658781725725        6.40510035952046       -1.28563868192422
H            7.97262169460149        4.05912000496949       -1.27206234446369
H            8.62503592742936        3.38085062967687        1.40645137578269
H           11.03477739229015        2.89063475585001        1.47064994298476
H           11.95210415081992        1.00043238566646        0.17189653573012
H           10.44298757439862       -0.38891892630333       -1.20290379192326
H            8.03595823599655        0.10905289420660       -1.28611603027646
H            4.47077855924614        2.07215244655397       -1.25938302055150
H            2.83769675369330        0.25758397603403       -1.29005771520199
H            4.47474973561756       -3.70955465023264       -0.06402326378272
H            2.87459459159712       -5.54818430270374       -0.05297495150707

          :  Hamiltonian                  GFN2-xTB          :
         :: gradient norm              0.000050464990 Eh/a0 ::
         :: HOMO-LUMO gap              1.282627687024 eV    ::
         :: SCC energy              -143.051096521699 Eh    ::
         :: -> dispersion             -0.124299808270 Eh    ::
         :: -> Gsolv                  -0.085350936619 Eh    ::
         :: repulsion energy           2.720817908883 Eh    ::

    * Orbital Energies and Occupations

         #    Occupation            Energy/Eh            Energy/eV
      -------------------------------------------------------------
         1        2.0000           -0.6844014             -18.6235
       ...           ...                  ...                  ...
       120        2.0000           -0.4168835             -11.3440
       121        2.0000           -0.4168747             -11.3437
       122        2.0000           -0.4157023             -11.3118
       123        2.0000           -0.4129595             -11.2372
       124        2.0000           -0.4117045             -11.2030
       125        2.0000           -0.4042623             -11.0005
       126        2.0000           -0.4006935             -10.9034
       127        2.0000           -0.3967315             -10.7956
       128        2.0000           -0.3762629             -10.2386
       129        2.0000           -0.3756145             -10.2210
       130        1.5119           -0.3614003              -9.8342
       131        1.4881           -0.3613100              -9.8317
       132        1.0000           -0.3039527              -8.2710 (HOMO)
       133                         -0.2568170              -6.9883 (LUMO)
       134                         -0.2479413              -6.7468
       135                         -0.2447245              -6.6593
       136                         -0.2446945              -6.6585
       137                         -0.2395083              -6.5174
       138                         -0.2394699              -6.5163
       139                         -0.2383386              -6.4855
       140                         -0.2343291              -6.3764
       141                         -0.2342754              -6.3750
       142                         -0.2325046              -6.3268
       143                         -0.2324759              -6.3260
       ...                                ...                  ...
       258                          1.1762048              32.0062
      -------------------------------------------------------------
                  HL-Gap            0.0471357 Eh            1.2826 eV

     #   Z          covCN         q      C6AA      α(0)
     1   7 N        0.911    -0.359    29.249     7.822
     2   6 C        1.952     0.118    28.182     8.573
     3   6 C        2.945    -0.036    28.895     8.816
     4   6 C        1.952     0.118    28.183     8.573
     5   7 N        0.911    -0.359    29.249     7.822
     6   6 C        3.030    -0.013    28.308     8.727
     7   6 C        3.069    -0.010    28.188     8.706
     8   6 C        2.907    -0.038    28.952     8.823
     9   6 C        2.922    -0.038    28.949     8.823
    10   6 C        2.975     0.001    28.000     8.680
    11   6 C        2.974     0.015    27.679     8.630
    12   6 C        2.922    -0.031    28.772     8.796
    13   6 C        2.918    -0.043    29.056     8.839
    14   6 C        2.924     0.063    26.587     8.456
    15   7 N        2.752    -0.033    21.887     6.948
    16   6 C        2.926     0.063    26.582     8.455
    17   6 C        2.921    -0.041    29.017     8.834
    18   6 C        2.919    -0.026    28.640     8.776
    19   6 C        2.919    -0.030    28.738     8.791
    20   6 C        2.919    -0.025    28.639     8.776
    21   6 C        2.921    -0.041    29.009     8.832
    22   6 C        2.926     0.063    26.582     8.455
    23   6 C        2.921    -0.041    29.015     8.833
    24   6 C        2.919    -0.025    28.639     8.776
    25   6 C        2.919    -0.030    28.743     8.792
    26   6 C        2.919    -0.026    28.642     8.776
    27   6 C        2.921    -0.041    29.015     8.833
    28   6 C        2.918    -0.043    29.064     8.841
    29   6 C        2.923    -0.031    28.782     8.798
    30   6 C        2.915    -0.039    28.973     8.827
    31   6 C        3.053    -0.011    28.247     8.716
    32   6 C        3.053    -0.011    28.247     8.716
    33   6 C        2.915    -0.039    28.973     8.827
    34   6 C        2.974     0.001    28.001     8.680
    35   6 C        2.974     0.015    27.678     8.630
    36   6 C        2.922    -0.031    28.772     8.796
    37   6 C        2.918    -0.042    29.054     8.839
    38   6 C        2.924     0.063    26.588     8.456
    39   7 N        2.752    -0.033    21.889     6.949
    40   6 C        2.926     0.063    26.581     8.455
    41   6 C        2.921    -0.041    29.017     8.834
    42   6 C        2.919    -0.026    28.642     8.776
    43   6 C        2.919    -0.030    28.745     8.792
    44   6 C        2.919    -0.025    28.639     8.776
    45   6 C        2.921    -0.041    29.017     8.834
    46   6 C        2.926     0.063    26.582     8.455
    47   6 C        2.921    -0.041    29.017     8.834
    48   6 C        2.919    -0.026    28.640     8.776
    49   6 C        2.919    -0.030    28.738     8.791
    50   6 C        2.919    -0.025    28.638     8.776
    51   6 C        2.921    -0.041    29.008     8.832
    52   6 C        2.918    -0.043    29.062     8.840
    53   6 C        2.923    -0.031    28.783     8.798
    54   6 C        2.922    -0.038    28.949     8.823
    55   6 C        2.907    -0.038    28.951     8.823
    56   6 C        3.069    -0.010    28.188     8.706
    57   1 H        0.926     0.019     2.754     2.595
    58   1 H        0.926     0.030     2.589     2.516
    59   1 H        0.926     0.043     2.410     2.428
    60   1 H        0.926     0.044     2.391     2.418
    61   1 H        0.926     0.044     2.392     2.419
    62   1 H        0.926     0.045     2.382     2.414
    63   1 H        0.926     0.043     2.408     2.427
    64   1 H        0.926     0.044     2.401     2.423
    65   1 H        0.926     0.043     2.410     2.428
    66   1 H        0.926     0.043     2.404     2.425
    67   1 H        0.926     0.045     2.387     2.416
    68   1 H        0.926     0.044     2.401     2.423
    69   1 H        0.926     0.045     2.385     2.415
    70   1 H        0.926     0.044     2.400     2.423
    71   1 H        0.926     0.046     2.366     2.405
    72   1 H        0.926     0.046     2.369     2.407
    73   1 H        0.926     0.036     2.507     2.476
    74   1 H        0.926     0.036     2.507     2.476
    75   1 H        0.926     0.043     2.410     2.428
    76   1 H        0.926     0.044     2.392     2.419
    77   1 H        0.926     0.044     2.402     2.424
    78   1 H        0.926     0.045     2.386     2.416
    79   1 H        0.926     0.044     2.402     2.423
    80   1 H        0.926     0.045     2.387     2.416
    81   1 H        0.926     0.043     2.404     2.425
    82   1 H        0.926     0.044     2.392     2.419
    83   1 H        0.926     0.045     2.382     2.414
    84   1 H        0.926     0.043     2.408     2.426
    85   1 H        0.926     0.044     2.401     2.423
    86   1 H        0.926     0.043     2.411     2.428
    87   1 H        0.926     0.046     2.366     2.405
    88   1 H        0.926     0.046     2.369     2.407
    89   1 H        0.926     0.030     2.589     2.516
    90   1 H        0.926     0.019     2.754     2.595

molecular dipole:
                 x           y           z       tot (Debye)
 q only:       -0.004      11.755      -0.008
   full:       -0.003      11.900      -0.008      30.248

 projected vibrational frequencies (cm⁻¹)
eigval :       -0.00    -0.00    -0.00     0.00     0.00     0.00
eigval :        8.90    10.24    13.03    16.89    18.22    22.34
eigval :       28.70    39.89    44.41    47.95    50.93    53.43
eigval :       62.80    64.49    71.71    72.79    78.48    88.12
eigval :      103.85   104.28   108.47   116.17   125.20   125.45
eigval :      147.86   158.22   167.42   183.47   196.96   213.27
eigval :      224.24   228.89   233.20   234.24   240.40   270.24
eigval :      302.09   304.72   306.25   313.02   326.23   340.99
eigval :      346.01   370.63   373.85   376.42   376.87   378.42
eigval :      380.49   388.38   388.94   393.09   397.91   405.58
eigval :      408.94   414.73   426.79   438.63   447.70   461.27
eigval :      464.13   479.60   493.10   497.20   511.16   518.19
eigval :      519.43   536.81   553.85   579.86   581.60   582.29
eigval :      583.66   588.09   591.48   591.82   592.45   593.24
eigval :      599.57   612.08   616.68   620.61   622.84   659.27
eigval :      659.65   660.93   664.33   679.61   681.32   691.85
eigval :      692.63   698.99   703.05   725.71   746.54   756.09
eigval :      758.17   759.57   762.87   808.03   808.40   828.22
eigval :      828.97   851.61   854.73   858.21   866.48   866.64
eigval :      868.21   870.43   871.41   874.06   895.61   897.14
eigval :      898.22   899.12   901.18   908.27   908.59   911.06
eigval :      911.24   915.66   917.05   918.71   919.13   924.60
eigval :      926.84   927.86   928.14   928.76   929.62   929.93
eigval :      930.57   931.39   933.44   934.67   978.12   981.96
eigval :     1000.07  1001.99  1002.01  1011.85  1026.25  1064.40
eigval :     1065.98  1078.80  1079.34  1080.07  1080.31  1119.28
eigval :     1119.93  1121.31  1121.90  1134.83  1136.05  1143.89
eigval :     1147.33  1174.02  1177.08  1177.45  1177.57  1177.75
eigval :     1180.38  1188.34  1189.16  1189.97  1190.86  1205.48
eigval :     1211.11  1217.61  1224.88  1225.40  1244.29  1254.84
eigval :     1263.02  1269.14  1269.71  1272.48  1273.09  1275.15
eigval :     1275.79  1286.83  1290.37  1295.00  1296.63  1306.07
eigval :     1313.53  1314.00  1316.06  1323.14  1323.26  1324.95
eigval :     1326.97  1335.31  1345.27  1393.56  1411.77  1416.15
eigval :     1416.63  1430.57  1430.90  1436.30  1436.78  1443.66
eigval :     1454.23  1456.30  1456.48  1457.14  1458.10  1472.08
eigval :     1480.48  1488.38  1511.97  1520.71  1523.48  1527.04
eigval :     1535.87  1562.45  1567.23  1567.26  1570.83  1571.25
eigval :     1579.73  1579.75  1580.80  1585.59  1588.61  1593.34
eigval :     2244.10  2307.69  3075.77  3077.34  3078.77  3079.52
eigval :     3080.60  3080.67  3080.86  3080.92  3081.32  3081.45
eigval :     3081.98  3082.00  3083.41  3083.52  3084.57  3084.68
eigval :     3089.05  3089.06  3089.87  3089.99  3092.16  3092.38
eigval :     3093.09  3093.31  3095.49  3095.59  3097.11  3097.53
eigval :     3100.10  3100.21  3100.29  3100.41  3100.54  3101.23

   temp. (K)  partition function   enthalpy   heat capacity  entropy
                                   cal/mol     cal/K/mol   cal/K/mol   J/K/mol
 298.15  VIB  0.298E+23            27303.613    167.813    172.841
         ROT  0.236E+09              888.752      2.981     41.292
         INT  0.703E+31            28192.365    170.794    214.133
         TR   0.185E+29             1481.254      4.968     45.560
         TOT                       29673.6193   175.7619   259.6934  1086.5570

       T/K    H(0)-H(T)+PV         H(T)/Eh          T*S/Eh         G(T)/Eh
   ------------------------------------------------------------------------
    298.15    0.472879E-01    0.729885E+00    0.123389E+00    0.606496E+00
   ------------------------------------------------------------------------

         :::::::::::::::::::::::::::::::::::::::::::::::::::::
         ::                  THERMODYNAMIC                  ::
         :::::::::::::::::::::::::::::::::::::::::::::::::::::
         :: total free energy        -139.723782760337 Eh   ::
         ::.................................................::
         :: total energy             -140.330278611342 Eh   ::
         :: zero point energy           0.682596624803 Eh   ::
         :: G(RRHO) w/o ZPVE           -0.076100773799 Eh   ::
         :: G(RRHO) contrib.            0.606495851004 Eh   ::
         :::::::::::::::::::::::::::::::::::::::::::::::::::::

           -------------------------------------------------
          | TOTAL ENERGY             -140.330278611342 Eh   |
          | TOTAL ENTHALPY           -139.600394064210 Eh   |
          | TOTAL FREE ENERGY        -139.723782760337 Eh   |
          | GRADIENT NORM               0.000050640090 Eh/α |
          | HOMO-LUMO GAP               1.282628236529 eV   |
           -------------------------------------------------

 * finished run on 2025/07/20 at 07:55:11.789
