   * xtb version 6.7.1 (edcfbbe) compiled by 'albert@albert-system' on 2024-07-22

   ID    Z sym.   atoms
    1    7 N      1, 5, 15, 39
    2    6 C      2-4, 6-14, 16-38, 40-56
    3    1 H      57-90

          program call               : xtb data2507/toluene/36DTPAFM/36DTPAFM.xyz --gfn 2 --gbsa toluene --ohess vtight --parallel 40 --molden --ceasefiles --namespace data2507/toluene/36DTPAFM/36DTPAFM_toluene_S0_preOpt
      * Solvation model:               GBSA
        Solvent                        toluene
        Solvent mass                       9.2140E+01 g/mol
          :  Hamiltonian                  GFN2-xTB          :
 * total energy  :  -140.3459200 Eh     change       -0.1735856E-08 Eh
 * total energy  :  -140.3619362 Eh     change       -0.1601618E-01 Eh
 * total energy  :  -140.3692028 Eh     change       -0.7266652E-02 Eh
 * total energy  :  -140.3720454 Eh     change       -0.2842577E-02 Eh
 * total energy  :  -140.3725192 Eh     change       -0.4737879E-03 Eh
 * total energy  :  -140.3740307 Eh     change       -0.1511444E-02 Eh
 * total energy  :  -140.3744233 Eh     change       -0.3926129E-03 Eh
 * total energy  :  -140.3748733 Eh     change       -0.4500072E-03 Eh
 * total energy  :  -140.3750671 Eh     change       -0.1938090E-03 Eh
 * total energy  :  -140.3751260 Eh     change       -0.5896553E-04 Eh
 * total energy  :  -140.3759523 Eh     change       -0.2459658E-06 Eh
 * total energy  :  -140.3759525 Eh     change       -0.2234650E-06 Eh
 * total energy  :  -140.3759527 Eh     change       -0.1683020E-06 Eh
 * total energy  :  -140.3759529 Eh     change       -0.1713449E-06 Eh
 * total energy  :  -140.3759531 Eh     change       -0.2138922E-06 Eh
 * total energy  :  -140.3759534 Eh     change       -0.3029512E-06 Eh
 * total energy  :  -140.3759538 Eh     change       -0.3982155E-06 Eh
 * total energy  :  -140.3759538 Eh     change        0.2390948E-08 Eh
 * total energy  :  -140.3759538 Eh     change       -0.5302857E-07 Eh
   *** GEOMETRY OPTIMIZATION CONVERGED AFTER 123 ITERATIONS ***

 final structure:
================
90
 xtb: 6.7.1 (edcfbbe)
N           -2.05805739745341       -8.51346720157480       -0.28094791701137
C           -1.15803129788509       -7.79803024514213       -0.24904670713133
C            0.00008686369166       -6.99970120070221       -0.21289724357882
C            1.15822593089300       -7.79804704073652       -0.24831731419981
N            2.05826676629268       -8.51344424854989       -0.28062126932022
C            0.00007720992259       -5.62692265129064       -0.15518062780886
C           -1.16521374326723       -4.75807843415728       -0.12283572692541
C           -2.52407367645056       -5.03671628384626       -0.12548352593827
C           -3.42423478996187       -3.98504221562347       -0.08835773421339
C           -3.00294642967632       -2.65334576586327       -0.05416887909593
C           -3.97662044591380       -1.56216746717858       -0.02453558325386
C           -5.17080806521652       -1.67737030026443        0.69127953225941
C           -6.08444418105671       -0.64774852100147        0.72497918806381
C           -5.84766869041665        0.53868508524551        0.02383121091799
N           -6.77265750186536        1.57689451868859        0.04757758493956
C           -8.14624256306528        1.30281290489344        0.13464944932606
C           -8.97459252846182        2.10631464198683        0.91734188864041
C          -10.32915955139339        1.84352795045963        0.99261531311083
C          -10.87595496246079        0.77537198317996        0.29962374562629
C          -10.05640260337191       -0.02724949932147       -0.47770553095337
C           -8.70204878488842        0.23282148537279       -0.56608782343151
C           -6.34460518639646        2.91149197508249       -0.02139428314301
C           -7.06592536651771        3.84413144094987       -0.76596528387532
C           -6.64828970873967        5.16011494567361       -0.82464377306726
C           -5.50608034260864        5.56462835124941       -0.15245265685580
C           -4.78494066643405        4.64101932724058        0.58720084379742
C           -5.19975125777090        3.32482802557241        0.65935389424790
C           -4.65816446514732        0.65587779367332       -0.70153904741771
C           -3.74073011810357       -0.37063324646479       -0.71507210109942
C           -1.62790018588646       -2.37361179022961       -0.05134388425364
C           -0.72944274371646       -3.41250354189894       -0.08148073141648
C            0.72955173179140       -3.41249073377503       -0.08144547742670
C            1.62798756687099       -2.37358058772546       -0.05130979852897
C            3.00303875283968       -2.65328787071180       -0.05409271848300
C            3.97668911628822       -1.56208858815211       -0.02444689084436
C            5.17084743698676       -1.67725061595671        0.69142192423362
C            6.08445388669121       -0.64760319132523        0.72514787472810
C            5.84767298443175        0.53881629339961        0.02397912389013
N            6.77262743218310        1.57705818830383        0.04776325550035
C            6.34452524201330        2.91163903876821       -0.02118785006475
C            5.19961107841397        3.32490038939941        0.65950598918901
C            4.78473188987125        4.64106990704861        0.58735745626325
C            5.50586811182119        5.56473656702915       -0.15222717836496
C            6.64814151143917        5.16030085099260       -0.82435572251293
C            7.06584169482103        3.84433719434250       -0.76568930245472
C            8.14621732428056        1.30300539442616        0.13484158805692
C            8.97454804360447        2.10649794357694        0.91756323361060
C           10.32911740062658        1.84372418047661        0.99284554292677
C           10.87593548504298        0.77559851211036        0.29982493828052
C           10.05640282580401       -0.02700979273502       -0.47753877050121
C            8.70204562368498        0.23304140269753       -0.56592065120654
C            4.65820128181312        0.65596610326461       -0.70145024440781
C            3.74079837697793       -0.37057257955924       -0.71501519828687
C            3.42435498275921       -3.98497579938179       -0.08826091510400
C            2.52421552666422       -5.03666817533834       -0.12539912388055
C            1.16535049055197       -4.75805758169196       -0.12275607738963
H           -2.88640409753618       -6.05231554498954       -0.16030868544511
H           -4.48107829000956       -4.20351873110204       -0.11131285214088
H           -5.36645503262923       -2.57308206834050        1.26183289912956
H           -6.98979257081703       -0.74951207749794        1.30505984451516
H           -8.54826697432603        2.93435374443518        1.46478208507095
H          -10.96020305285253        2.47236316050409        1.60362937121464
H          -11.93413399116642        0.57085647007339        0.36303544462434
H          -10.47604506478474       -0.85726430635254       -1.02723885650997
H           -8.06729340576016       -0.38743608188379       -1.18215230775818
H           -7.95222786081278        3.52928591322443       -1.29738125027071
H           -7.21485110057775        5.87240205238829       -1.40653871914953
H           -5.18092844841148        6.59287977183794       -0.20405329717314
H           -3.89723220150412        4.94900820520153        1.12029675968079
H           -4.64297754605903        2.60928626213303        1.24680587723083
H           -4.46681826044783        1.55746326147629       -1.26459117722979
H           -2.84344630305601       -0.26474448078791       -1.30636488080968
H           -1.28446407573748       -1.35193823715497       -0.00062677331736
H            1.28452912130471       -1.35191238243507       -0.00063084107596
H            5.36650148324290       -2.57295751288884        1.26198104399847
H            6.98978488125524       -0.74933726418211        1.30526110947086
H            4.64284467568277        2.60931751698943        1.24691467248690
H            3.89698310129848        4.94900089862863        1.12041995668842
H            5.18066397403451        6.59297174265615       -0.20382270187547
H            7.21469410016971        5.87263058766435       -1.40620718249283
H            7.95218691114029        3.52955206363268       -1.29706959218183
H            8.54820849283357        2.93452511395196        1.46501058407857
H           10.96014958988716        2.47256048365942        1.60387023937809
H           11.93411591211525        0.57109289290130        0.36324493788454
H           10.47605870414752       -0.85701376776407       -1.02707808306353
H            8.06730179418579       -0.38721409639708       -1.18199924886423
H            4.46685105092158        1.55754483195209       -1.26451236829774
H            2.84353133929124       -0.26471236768512       -1.30633874416598
H            4.48120401678204       -4.20342807299999       -0.11122193918191
H            2.88656681328760       -6.05226020582424       -0.16022833861400

          :  Hamiltonian                  GFN2-xTB          :
         :: gradient norm              0.000077821371 Eh/a0 ::
         :: HOMO-LUMO gap              0.789040471195 eV    ::
         :: SCC energy              -143.111886569875 Eh    ::
         :: -> dispersion             -0.124418209562 Eh    ::
         :: -> Gsolv                  -0.066670990476 Eh    ::
         :: repulsion energy           2.735932726845 Eh    ::

    * Orbital Energies and Occupations

         #    Occupation            Energy/Eh            Energy/eV
      -------------------------------------------------------------
         1        2.0000           -0.6777481             -18.4425
       ...           ...                  ...                  ...
       119        2.0000           -0.4130184             -11.2388
       120        2.0000           -0.4129685             -11.2374
       121        2.0000           -0.4112488             -11.1907
       122        2.0000           -0.4112428             -11.1905
       123        2.0000           -0.4084471             -11.1144
       124        2.0000           -0.4084347             -11.1141
       125        2.0000           -0.4083535             -11.1119
       126        2.0000           -0.4079894             -11.1020
       127        2.0000           -0.4049673             -11.0197
       128        2.0000           -0.3967171             -10.7952
       129        2.0000           -0.3911212             -10.6429
       130        2.0000           -0.3547460              -9.6531
       131        2.0000           -0.3535478              -9.6205 (HOMO)
       132        0.0000           -0.3245510              -8.8315 (LUMO)
       133                         -0.2573776              -7.0036
       134                         -0.2566567              -6.9840
       135                         -0.2430056              -6.6125
       136                         -0.2424015              -6.5961
       137                         -0.2340274              -6.3682
       138                         -0.2340265              -6.3682
       139                         -0.2312493              -6.2926
       140                         -0.2312466              -6.2925
       141                         -0.2259849              -6.1494
       142                         -0.2259814              -6.1493
       ...                                ...                  ...
       258                          1.1560730              31.4583
      -------------------------------------------------------------
                  HL-Gap            0.0289968 Eh            0.7890 eV

     #   Z          covCN         q      C6AA      α(0)
     1   7 N        0.911    -0.283    27.301     7.557
     2   6 C        1.943     0.128    27.939     8.536
     3   6 C        2.946    -0.004    28.134     8.700
     4   6 C        1.943     0.128    27.939     8.536
     5   7 N        0.911    -0.283    27.301     7.557
     6   6 C        3.030     0.035    27.195     8.554
     7   6 C        3.053    -0.009    28.187     8.707
     8   6 C        2.911    -0.026    28.656     8.778
     9   6 C        2.924    -0.036    28.893     8.815
    10   6 C        2.976     0.021    27.538     8.608
    11   6 C        2.975     0.001    27.998     8.679
    12   6 C        2.923    -0.032    28.800     8.801
    13   6 C        2.920    -0.048    29.203     8.862
    14   6 C        2.922     0.067    26.494     8.441
    15   7 N        2.752    -0.070    22.600     7.061
    16   6 C        2.924     0.064    26.557     8.451
    17   6 C        2.922    -0.046    29.145     8.853
    18   6 C        2.919    -0.029    28.730     8.790
    19   6 C        2.919    -0.037    28.922     8.819
    20   6 C        2.919    -0.029    28.733     8.790
    21   6 C        2.922    -0.046    29.151     8.854
    22   6 C        2.924     0.064    26.557     8.451
    23   6 C        2.922    -0.046    29.145     8.853
    24   6 C        2.919    -0.029    28.729     8.790
    25   6 C        2.919    -0.037    28.925     8.820
    26   6 C        2.919    -0.029    28.735     8.790
    27   6 C        2.922    -0.046    29.154     8.855
    28   6 C        2.920    -0.049    29.213     8.863
    29   6 C        2.923    -0.032    28.805     8.801
    30   6 C        2.917    -0.035    28.871     8.811
    31   6 C        3.050     0.006    27.845     8.654
    32   6 C        3.050     0.006    27.845     8.654
    33   6 C        2.917    -0.035    28.871     8.811
    34   6 C        2.976     0.021    27.538     8.608
    35   6 C        2.975     0.001    27.998     8.679
    36   6 C        2.923    -0.032    28.800     8.801
    37   6 C        2.920    -0.048    29.203     8.862
    38   6 C        2.922     0.067    26.494     8.441
    39   7 N        2.752    -0.070    22.600     7.061
    40   6 C        2.924     0.064    26.557     8.451
    41   6 C        2.922    -0.046    29.154     8.855
    42   6 C        2.919    -0.029    28.735     8.790
    43   6 C        2.919    -0.037    28.925     8.820
    44   6 C        2.919    -0.029    28.729     8.790
    45   6 C        2.922    -0.046    29.145     8.853
    46   6 C        2.924     0.064    26.557     8.451
    47   6 C        2.922    -0.046    29.145     8.853
    48   6 C        2.919    -0.029    28.730     8.790
    49   6 C        2.919    -0.037    28.922     8.819
    50   6 C        2.919    -0.029    28.733     8.790
    51   6 C        2.922    -0.046    29.151     8.854
    52   6 C        2.920    -0.049    29.213     8.863
    53   6 C        2.923    -0.032    28.805     8.801
    54   6 C        2.924    -0.036    28.893     8.815
    55   6 C        2.911    -0.026    28.656     8.778
    56   6 C        3.053    -0.009    28.187     8.707
    57   1 H        0.926     0.036     2.504     2.474
    58   1 H        0.926     0.044     2.395     2.420
    59   1 H        0.926     0.039     2.463     2.454
    60   1 H        0.926     0.036     2.497     2.471
    61   1 H        0.926     0.034     2.532     2.488
    62   1 H        0.926     0.036     2.509     2.477
    63   1 H        0.926     0.034     2.530     2.487
    64   1 H        0.926     0.035     2.511     2.478
    65   1 H        0.926     0.034     2.526     2.485
    66   1 H        0.926     0.033     2.539     2.492
    67   1 H        0.926     0.035     2.513     2.479
    68   1 H        0.926     0.034     2.528     2.486
    69   1 H        0.926     0.036     2.503     2.474
    70   1 H        0.926     0.035     2.518     2.482
    71   1 H        0.926     0.037     2.484     2.464
    72   1 H        0.926     0.041     2.437     2.441
    73   1 H        0.926     0.050     2.325     2.385
    74   1 H        0.926     0.050     2.325     2.385
    75   1 H        0.926     0.039     2.463     2.454
    76   1 H        0.926     0.036     2.497     2.471
    77   1 H        0.926     0.035     2.518     2.482
    78   1 H        0.926     0.036     2.503     2.474
    79   1 H        0.926     0.034     2.528     2.486
    80   1 H        0.926     0.035     2.513     2.479
    81   1 H        0.926     0.033     2.539     2.492
    82   1 H        0.926     0.034     2.532     2.488
    83   1 H        0.926     0.036     2.509     2.477
    84   1 H        0.926     0.034     2.530     2.487
    85   1 H        0.926     0.035     2.511     2.478
    86   1 H        0.926     0.034     2.526     2.485
    87   1 H        0.926     0.037     2.484     2.464
    88   1 H        0.926     0.041     2.437     2.441
    89   1 H        0.926     0.044     2.395     2.420
    90   1 H        0.926     0.036     2.504     2.474

molecular dipole:
                 x           y           z       tot (Debye)
 q only:       -0.000       5.022       0.169
   full:       -0.000       5.310       0.185      13.506

 projected vibrational frequencies (cm⁻¹)
eigval :       -0.00    -0.00     0.00     0.00     0.00     0.00
eigval :       10.35    11.70    13.24    19.31    19.53    25.33
eigval :       36.62    39.94    45.52    47.12    48.63    50.66
eigval :       63.49    64.06    69.94    71.31    79.43    81.26
eigval :      102.22   104.08   108.05   113.39   124.38   124.94
eigval :      148.25   159.28   165.98   184.99   195.30   213.15
eigval :      221.19   230.42   232.88   235.04   241.91   271.16
eigval :      300.18   305.34   306.26   313.79   330.88   345.47
eigval :      346.26   369.37   376.88   379.53   379.85   381.25
eigval :      382.89   389.32   390.74   395.68   397.96   406.53
eigval :      407.89   422.93   443.93   444.53   447.26   465.19
eigval :      481.89   483.29   491.92   497.21   509.88   511.44
eigval :      523.60   553.13   572.33   582.70   583.88   584.43
eigval :      584.83   588.41   593.66   593.86   594.31   604.72
eigval :      610.42   617.99   620.25   630.18   636.62   661.13
eigval :      661.47   663.23   666.56   682.90   683.13   691.54
eigval :      695.65   713.63   714.23   728.03   750.86   756.48
eigval :      756.49   759.62   763.83   810.68   811.03   834.45
eigval :      835.80   853.35   864.03   864.70   874.11   874.18
eigval :      874.69   874.72   876.44   877.01   892.99   893.77
eigval :      895.15   895.73   900.34   909.32   909.35   914.88
eigval :      915.25   917.94   918.99   921.20   924.23   925.11
eigval :      925.72   927.32   927.88   928.79   928.93   929.32
eigval :      930.48   931.39   931.41   934.19   981.67   984.14
eigval :     1004.19  1004.20  1006.69  1015.89  1033.98  1073.30
eigval :     1074.82  1081.58  1081.60  1082.60  1082.61  1120.18
eigval :     1120.19  1122.25  1122.26  1127.78  1140.77  1144.85
eigval :     1151.08  1179.01  1179.13  1179.40  1179.40  1183.75
eigval :     1184.19  1192.92  1192.99  1193.72  1194.53  1201.99
eigval :     1204.21  1213.69  1216.92  1218.76  1223.14  1245.58
eigval :     1264.31  1271.10  1271.19  1276.41  1276.45  1278.85
eigval :     1279.51  1290.42  1297.80  1303.81  1304.39  1313.99
eigval :     1314.25  1318.36  1323.00  1323.27  1325.69  1326.15
eigval :     1327.41  1328.58  1361.46  1397.50  1414.54  1416.26
eigval :     1428.84  1433.98  1434.35  1439.48  1439.99  1449.04
eigval :     1458.94  1467.42  1467.65  1470.67  1470.79  1493.95
eigval :     1495.00  1521.94  1544.84  1545.56  1558.13  1564.74
eigval :     1565.85  1575.93  1575.94  1579.68  1580.06  1586.32
eigval :     1590.19  1590.21  1594.44  1597.11  1601.33  1610.00
eigval :     2311.60  2342.97  3073.41  3073.42  3073.66  3073.67
eigval :     3074.05  3074.06  3074.49  3074.50  3078.72  3078.73
eigval :     3080.30  3080.32  3083.05  3083.06  3083.60  3083.61
eigval :     3085.33  3085.37  3086.28  3086.30  3089.65  3089.75
eigval :     3091.59  3091.60  3092.56  3092.87  3094.39  3094.90
eigval :     3094.92  3095.38  3095.44  3096.54  3110.86  3111.36

   temp. (K)  partition function   enthalpy   heat capacity  entropy
                                   cal/mol     cal/K/mol   cal/K/mol   J/K/mol
 298.15  VIB  0.144E+23            27185.531    167.047    171.896
         ROT  0.236E+09              888.752      2.981     41.290
         INT  0.339E+31            28074.283    170.028    213.186
         TR   0.185E+29             1481.254      4.968     45.560
         TOT                       29555.5370   174.9963   258.7467  1082.5960

       T/K    H(0)-H(T)+PV         H(T)/Eh          T*S/Eh         G(T)/Eh
   ------------------------------------------------------------------------
    298.15    0.470997E-01    0.731730E+00    0.122939E+00    0.608791E+00
   ------------------------------------------------------------------------

         :::::::::::::::::::::::::::::::::::::::::::::::::::::
         ::                  THERMODYNAMIC                  ::
         :::::::::::::::::::::::::::::::::::::::::::::::::::::
         :: total free energy        -139.767162981122 Eh   ::
         ::.................................................::
         :: total energy             -140.375953839276 Eh   ::
         :: zero point energy           0.684629997396 Eh   ::
         :: G(RRHO) w/o ZPVE           -0.075839139242 Eh   ::
         :: G(RRHO) contrib.            0.608790858154 Eh   ::
         :::::::::::::::::::::::::::::::::::::::::::::::::::::

           -------------------------------------------------
          | TOTAL ENERGY             -140.375953839276 Eh   |
          | TOTAL ENTHALPY           -139.644224095687 Eh   |
          | TOTAL FREE ENERGY        -139.767162981122 Eh   |
          | GRADIENT NORM               0.000077858767 Eh/α |
          | HOMO-LUMO GAP               0.789044017610 eV   |
           -------------------------------------------------

 * finished run on 2025/07/20 at 07:31:56.902
