   * xtb version 6.7.1 (edcfbbe) compiled by 'albert@albert-system' on 2024-07-22

   ID    Z sym.   atoms
    1    7 N      1, 5, 15, 39
    2    6 C      2-4, 6-14, 16-38, 40-56
    3    1 H      57-90

          program call               : xtb data2507/toluene/36DTPAFM/36DTPAFM_toluene_S0_crest.xyz --gfn 2 --gbsa toluene --ohess vtight --parallel 40 --molden --ceasefiles --namespace data2507/toluene/36DTPAFM/36DTPAFM_toluene_S0_finalOpt
      * Solvation model:               GBSA
        Solvent                        toluene
        Solvent mass                       9.2140E+01 g/mol
          :  Hamiltonian                  GFN2-xTB          :
 * total energy  :  -140.3758311 Eh     change       -0.2414538E-08 Eh
 * total energy  :  -140.3758802 Eh     change       -0.4916535E-04 Eh
 * total energy  :  -140.3758926 Eh     change       -0.1239577E-04 Eh
 * total energy  :  -140.3758544 Eh     change        0.3826607E-04 Eh
 * total energy  :  -140.3758932 Eh     change       -0.3879528E-04 Eh
 * total energy  :  -140.3758838 Eh     change        0.9317072E-05 Eh
 * total energy  :  -140.3759028 Eh     change       -0.1899917E-04 Eh
 * total energy  :  -140.3759043 Eh     change       -0.1410373E-05 Eh
 * total energy  :  -140.3759073 Eh     change       -0.3005382E-05 Eh
 * total energy  :  -140.3759080 Eh     change       -0.7597349E-06 Eh
 * total energy  :  -140.3759134 Eh     change       -0.7183927E-06 Eh
 * total energy  :  -140.3759140 Eh     change       -0.5648895E-06 Eh
 * total energy  :  -140.3759145 Eh     change       -0.5036174E-06 Eh
 * total energy  :  -140.3759151 Eh     change       -0.5783414E-06 Eh
 * total energy  :  -140.3759157 Eh     change       -0.5562157E-06 Eh
 * total energy  :  -140.3759161 Eh     change       -0.4723708E-06 Eh
 * total energy  :  -140.3759165 Eh     change       -0.3937529E-06 Eh
 * total energy  :  -140.3759169 Eh     change       -0.3505924E-06 Eh
 * total energy  :  -140.3759170 Eh     change       -0.9112225E-07 Eh
   *** GEOMETRY OPTIMIZATION CONVERGED AFTER 22 ITERATIONS ***

 final structure:
================
90
 xtb: 6.7.1 (edcfbbe)
N           -2.06090399667085       -8.00372746926340       -0.10046898370079
C           -1.16174051065150       -7.28657546735531       -0.08794984131125
C           -0.00358988669620       -6.48761177398976       -0.07452141847283
C            1.15392929014676       -7.28752915607190       -0.08439130428739
N            2.05259993148867       -8.00535197571100       -0.09377683693891
C           -0.00305775380760       -5.11374130408596       -0.05284728473024
C           -1.16764169747844       -4.24394767861468       -0.04044666544567
C           -2.52616797935284       -4.52348108077155       -0.04903999071253
C           -3.42673819473531       -3.47200040903574       -0.03094756647321
C           -3.00634156730941       -2.13964311754124       -0.00770110629980
C           -3.98421240394161       -1.05187846303579        0.00679670268190
C           -5.18491248814870       -1.17103781271795        0.71136843223470
C           -6.10780791300745       -0.14951826770759        0.72644283622159
C           -5.87363850692588        1.03329752274879        0.01840407390943
N           -6.81107942323339        2.06073002267435        0.02077925401603
C           -8.18209726892809        1.76817369582137        0.08904510510333
C           -9.03308350954130        2.56176120020301        0.85734493281674
C          -10.38464531220439        2.27940298904253        0.91405984795690
C          -10.90591684977264        1.20133721089362        0.21675515312743
C          -10.06373572671601        0.40844082863197       -0.54625539601758
C           -8.71225732806287        0.68821449321250       -0.61627514524076
C           -6.39950849905554        3.40021450430169       -0.04686931465700
C           -7.12563461761770        4.32207557696668       -0.80027730567258
C           -6.72547805541152        5.64354490113819       -0.85644129982621
C           -5.59561319922111        6.06443535690582       -0.17349272232270
C           -4.86948070031887        5.15157044808353        0.57453593067592
C           -5.26712900392827        3.82997519165172        0.64453382490684
C           -4.67591755373630        1.15639268862687       -0.69223162271663
C           -3.74979998253799        0.13735952142009       -0.68816647222335
C           -1.63133734891003       -1.85904986605415       -0.00175981639751
C           -0.73195619713515       -2.89780699657317       -0.01565010212819
C            0.72748414782644       -2.89838391082372       -0.01340797934370
C            1.62764232870622       -1.86032479302688        0.00239861241616
C            3.00243954578695       -2.14199707481415        0.00031227598136
C            3.98126879956187       -1.05509393926818        0.01463638797209
C            5.18084876600702       -1.17384584549577        0.72117796447888
C            6.10529129513421       -0.15368766336168        0.73423002384968
C            5.87398427915843        1.02720419213270        0.02202562206228
N            6.81354030071860        2.05270252980311        0.02131506824074
C            6.40475458308882        3.39272418036771       -0.05291815667846
C            5.27309200001702        3.82810789139021        0.63611759696743
C            4.87810003322359        5.15014004604042        0.55956382549948
C            5.60618864517248        6.05785554077103       -0.19281118772853
C            6.73535894673065        5.63138388853693       -0.87344073456332
C            7.13286446240789        4.30940771997150       -0.81070904619975
C            8.18395306779124        1.75776446332854        0.09112969006410
C            9.03647951988273        2.55366256973940        0.85534684853123
C           10.38753033839650        2.26913804049533        0.91336102143843
C           10.90678755434462        1.18657452709114        0.22154214605628
C           10.06307027175598        0.39130998438979       -0.53728869268665
C            8.71212425331544        0.67327907086634       -0.60872306546370
C            4.67701299141808        1.15018463809100       -0.68989694582585
C            3.74929178412397        0.13262942690369       -0.68372881614732
C            3.42183961381205       -3.47471588589414       -0.02022153103105
C            2.52049604318908       -4.52549742487661       -0.04028385017229
C            1.16217105694914       -4.24488140049133       -0.03642320655529
H           -2.88768758950779       -5.53960100801504       -0.07488049335831
H           -4.48318343040435       -3.69146147585407       -0.05974689931024
H           -5.37939182543474       -2.06355224761498        1.28725289673628
H           -7.01909876160336       -0.25493952645438        1.29646835621482
H           -8.62684583872930        3.39753437617589        1.40829919771577
H          -11.03343635571920        2.90076034233154        1.51402828982998
H          -11.96181524757087        0.98159859557267        0.26581560257561
H          -10.46309606658357       -0.42947792550024       -1.09894553335797
H           -8.05970664852394        0.07532964369602       -1.22102711553133
H           -8.00219136292026        3.99464320511339       -1.34018175047181
H           -7.29599084096027        6.34733905304350       -1.44479250670254
H           -5.28414203170117        7.09702717832705       -0.22295765974295
H           -3.99145460286106        5.47222028848601        1.11613935872072
H           -4.70686069563220        3.12308026015410        1.23908653577171
H           -4.48530076468543        2.05605133094892       -1.25864160457011
H           -2.84652231949861        0.24712899065069       -1.26951088273327
H           -1.28866470043994       -0.83664194709411        0.03856463895116
H            1.28566206220489       -0.83761394335205        0.04093549697280
H            5.37333766457460       -2.06493885333147        1.29993315629563
H            7.01575611146168       -0.25880520580635        1.30563195300721
H            4.71128418695892        3.12523088326745        1.23397562267594
H            4.00057691906972        5.47520279067297        1.09933805165793
H            5.29673850835695        7.09079345778197       -0.24747342218874
H            7.30737204496010        6.33113781817563       -1.46515310597481
H            8.00886655014057        3.97755081718106       -1.34881305244025
H            8.63190056573408        3.39305110703059        1.40200869894279
H           11.03751538224032        2.89240737220597        1.51004764423806
H           11.96229351950758        0.96519149892792        0.27160026622784
H           10.46078305914991       -0.45024047079999       -1.08563728124708
H            8.05847527039266        0.05856482064138       -1.21042042590595
H            4.48833150103745        2.04841244929831       -1.25921310936572
H            2.84677422552844        0.24213794642077       -1.26629867813811
H            4.47819022611339       -3.69504043490509       -0.04564646207092
H            2.88128785564328       -5.54192224763820       -0.06426117916205

          :  Hamiltonian                  GFN2-xTB          :
         :: gradient norm              0.000195094811 Eh/a0 ::
         :: HOMO-LUMO gap              0.788779632929 eV    ::
         :: SCC energy              -143.111675406750 Eh    ::
         :: -> dispersion             -0.124416664827 Eh    ::
         :: -> Gsolv                  -0.066645301767 Eh    ::
         :: repulsion energy           2.735758445967 Eh    ::

    * Orbital Energies and Occupations

         #    Occupation            Energy/Eh            Energy/eV
      -------------------------------------------------------------
         1        2.0000           -0.6777409             -18.4423
       ...           ...                  ...                  ...
       119        2.0000           -0.4130482             -11.2396
       120        2.0000           -0.4130035             -11.2384
       121        2.0000           -0.4112221             -11.1899
       122        2.0000           -0.4112163             -11.1898
       123        2.0000           -0.4084340             -11.1141
       124        2.0000           -0.4084288             -11.1139
       125        2.0000           -0.4083437             -11.1116
       126        2.0000           -0.4079718             -11.1015
       127        2.0000           -0.4049714             -11.0198
       128        2.0000           -0.3966655             -10.7938
       129        2.0000           -0.3910859             -10.6420
       130        2.0000           -0.3547612              -9.6535
       131        2.0000           -0.3535556              -9.6207 (HOMO)
       132        0.0000           -0.3245686              -8.8320 (LUMO)
       133                         -0.2573907              -7.0040
       134                         -0.2568144              -6.9883
       135                         -0.2430803              -6.6146
       136                         -0.2424828              -6.5983
       137                         -0.2340091              -6.3677
       138                         -0.2340059              -6.3676
       139                         -0.2312629              -6.2930
       140                         -0.2312595              -6.2929
       141                         -0.2260027              -6.1498
       142                         -0.2259979              -6.1497
       ...                                ...                  ...
       258                          1.1558922              31.4534
      -------------------------------------------------------------
                  HL-Gap            0.0289871 Eh            0.7888 eV

     #   Z          covCN         q      C6AA      α(0)
     1   7 N        0.911    -0.283    27.304     7.557
     2   6 C        1.944     0.128    27.939     8.536
     3   6 C        2.946    -0.005    28.135     8.700
     4   6 C        1.944     0.128    27.939     8.536
     5   7 N        0.911    -0.283    27.304     7.557
     6   6 C        3.030     0.035    27.196     8.554
     7   6 C        3.054    -0.009    28.186     8.707
     8   6 C        2.910    -0.026    28.657     8.778
     9   6 C        2.925    -0.036    28.894     8.815
    10   6 C        2.976     0.021    27.539     8.608
    11   6 C        2.975     0.001    27.997     8.679
    12   6 C        2.923    -0.032    28.801     8.801
    13   6 C        2.920    -0.048    29.201     8.861
    14   6 C        2.922     0.067    26.494     8.441
    15   7 N        2.752    -0.070    22.599     7.060
    16   6 C        2.925     0.064    26.557     8.451
    17   6 C        2.922    -0.046    29.144     8.853
    18   6 C        2.919    -0.029    28.729     8.790
    19   6 C        2.919    -0.037    28.920     8.819
    20   6 C        2.919    -0.029    28.732     8.790
    21   6 C        2.922    -0.046    29.149     8.854
    22   6 C        2.924     0.064    26.557     8.451
    23   6 C        2.922    -0.046    29.148     8.854
    24   6 C        2.919    -0.029    28.730     8.790
    25   6 C        2.919    -0.037    28.927     8.820
    26   6 C        2.919    -0.029    28.735     8.791
    27   6 C        2.922    -0.047    29.158     8.855
    28   6 C        2.920    -0.049    29.211     8.863
    29   6 C        2.923    -0.032    28.804     8.801
    30   6 C        2.917    -0.035    28.870     8.811
    31   6 C        3.050     0.006    27.845     8.654
    32   6 C        3.050     0.006    27.845     8.654
    33   6 C        2.917    -0.035    28.870     8.811
    34   6 C        2.976     0.021    27.539     8.608
    35   6 C        2.975     0.001    27.997     8.679
    36   6 C        2.923    -0.032    28.801     8.801
    37   6 C        2.920    -0.048    29.201     8.862
    38   6 C        2.922     0.067    26.494     8.441
    39   7 N        2.752    -0.070    22.599     7.060
    40   6 C        2.924     0.064    26.557     8.451
    41   6 C        2.922    -0.047    29.157     8.855
    42   6 C        2.919    -0.029    28.735     8.791
    43   6 C        2.919    -0.037    28.927     8.820
    44   6 C        2.919    -0.029    28.730     8.790
    45   6 C        2.922    -0.046    29.147     8.854
    46   6 C        2.925     0.064    26.557     8.451
    47   6 C        2.922    -0.046    29.144     8.853
    48   6 C        2.919    -0.029    28.730     8.790
    49   6 C        2.919    -0.037    28.921     8.819
    50   6 C        2.919    -0.029    28.732     8.790
    51   6 C        2.922    -0.046    29.149     8.854
    52   6 C        2.920    -0.049    29.212     8.863
    53   6 C        2.923    -0.032    28.804     8.801
    54   6 C        2.925    -0.036    28.894     8.815
    55   6 C        2.910    -0.026    28.657     8.778
    56   6 C        3.054    -0.009    28.186     8.707
    57   1 H        0.926     0.036     2.504     2.474
    58   1 H        0.926     0.044     2.394     2.420
    59   1 H        0.926     0.039     2.462     2.454
    60   1 H        0.926     0.036     2.498     2.472
    61   1 H        0.926     0.034     2.531     2.488
    62   1 H        0.926     0.036     2.509     2.477
    63   1 H        0.926     0.034     2.529     2.487
    64   1 H        0.926     0.035     2.510     2.478
    65   1 H        0.926     0.034     2.526     2.485
    66   1 H        0.926     0.033     2.540     2.492
    67   1 H        0.926     0.035     2.514     2.479
    68   1 H        0.926     0.034     2.529     2.487
    69   1 H        0.926     0.036     2.504     2.475
    70   1 H        0.926     0.035     2.519     2.482
    71   1 H        0.926     0.037     2.482     2.464
    72   1 H        0.926     0.041     2.435     2.440
    73   1 H        0.926     0.050     2.326     2.385
    74   1 H        0.926     0.050     2.326     2.385
    75   1 H        0.926     0.039     2.462     2.454
    76   1 H        0.926     0.036     2.498     2.471
    77   1 H        0.926     0.035     2.519     2.482
    78   1 H        0.926     0.036     2.504     2.475
    79   1 H        0.926     0.034     2.529     2.487
    80   1 H        0.926     0.035     2.514     2.479
    81   1 H        0.926     0.033     2.540     2.492
    82   1 H        0.926     0.034     2.531     2.488
    83   1 H        0.926     0.036     2.509     2.477
    84   1 H        0.926     0.034     2.529     2.487
    85   1 H        0.926     0.035     2.510     2.478
    86   1 H        0.926     0.034     2.526     2.485
    87   1 H        0.926     0.037     2.482     2.464
    88   1 H        0.926     0.041     2.435     2.440
    89   1 H        0.926     0.044     2.394     2.420
    90   1 H        0.926     0.036     2.504     2.474

molecular dipole:
                 x           y           z       tot (Debye)
 q only:        0.002       5.007       0.058
   full:        0.002       5.296       0.065      13.462

 projected vibrational frequencies (cm⁻¹)
eigval :       -0.00    -0.00    -0.00    -0.00     0.00     0.00
eigval :        8.72    11.09    12.83    16.38    18.52    25.22
eigval :       36.40    38.98    43.81    47.11    48.61    49.19
eigval :       63.08    63.51    69.90    71.89    78.15    81.44
eigval :      103.07   103.34   108.18   114.15   124.72   124.91
eigval :      147.36   159.30   166.29   184.16   194.98   212.56
eigval :      220.36   230.43   230.87   235.10   242.08   270.72
eigval :      299.74   304.90   305.88   313.12   330.34   345.41
eigval :      345.84   369.36   375.62   377.88   378.07   380.07
eigval :      381.54   389.08   390.52   396.03   397.70   406.24
eigval :      407.70   422.40   444.21   444.61   447.16   465.25
eigval :      481.03   483.21   491.95   496.99   510.01   511.52
eigval :      523.98   552.99   572.66   582.29   583.73   584.47
eigval :      584.51   588.70   593.50   593.71   594.22   604.92
eigval :      610.01   617.92   620.29   628.12   636.71   660.69
eigval :      660.98   662.75   666.08   682.83   683.81   692.37
eigval :      695.66   713.17   713.63   727.92   750.52   755.62
eigval :      755.90   759.04   763.46   810.98   811.44   834.90
eigval :      836.12   853.01   864.30   865.01   870.17   871.30
eigval :      873.99   874.03   875.52   876.11   892.19   893.03
eigval :      893.28   893.48   900.12   909.17   909.20   914.77
eigval :      915.14   917.90   918.92   921.17   924.10   925.40
eigval :      926.27   927.31   927.53   928.44   928.67   928.86
eigval :      929.01   929.34   930.58   934.25   981.53   983.97
eigval :     1003.98  1004.00  1006.63  1015.85  1033.97  1073.04
eigval :     1074.52  1080.82  1080.88  1082.07  1082.11  1119.28
eigval :     1119.38  1121.35  1121.36  1127.83  1140.68  1144.76
eigval :     1151.34  1178.11  1178.18  1178.63  1179.07  1183.23
eigval :     1183.64  1191.86  1192.00  1193.38  1194.18  1201.60
eigval :     1204.10  1213.45  1216.95  1218.90  1222.86  1245.73
eigval :     1264.72  1271.21  1271.46  1275.89  1275.97  1278.09
eigval :     1278.64  1290.20  1297.64  1303.78  1304.37  1313.92
eigval :     1314.19  1318.14  1322.91  1323.24  1325.50  1326.07
eigval :     1327.08  1328.40  1361.13  1397.52  1414.38  1416.16
eigval :     1428.74  1433.93  1434.33  1439.45  1439.95  1448.94
eigval :     1458.90  1467.21  1467.44  1470.48  1470.60  1493.74
eigval :     1494.83  1521.43  1544.67  1545.40  1558.12  1564.90
eigval :     1565.31  1575.89  1575.91  1579.67  1580.04  1586.11
eigval :     1590.19  1590.23  1594.34  1597.05  1601.10  1609.21
eigval :     2311.48  2342.65  3073.37  3073.38  3073.60  3073.67
eigval :     3074.13  3074.15  3074.56  3074.58  3078.86  3078.87
eigval :     3080.44  3080.45  3082.79  3082.83  3083.36  3083.45
eigval :     3085.34  3085.41  3086.26  3086.33  3089.84  3089.96
eigval :     3091.98  3092.01  3092.70  3093.09  3094.34  3094.71
eigval :     3094.74  3095.21  3095.27  3096.34  3111.20  3111.72

   temp. (K)  partition function   enthalpy   heat capacity  entropy
                                   cal/mol     cal/K/mol   cal/K/mol   J/K/mol
 298.15  VIB  0.260E+23            27219.507    167.017    172.470
         ROT  0.237E+09              888.752      2.981     41.299
         INT  0.614E+31            28108.259    169.997    213.769
         TR   0.185E+29             1481.254      4.968     45.560
         TOT                       29589.5131   174.9656   259.3289  1085.0322

       T/K    H(0)-H(T)+PV         H(T)/Eh          T*S/Eh         G(T)/Eh
   ------------------------------------------------------------------------
    298.15    0.471539E-01    0.731606E+00    0.123216E+00    0.608391E+00
   ------------------------------------------------------------------------

         :::::::::::::::::::::::::::::::::::::::::::::::::::::
         ::                  THERMODYNAMIC                  ::
         :::::::::::::::::::::::::::::::::::::::::::::::::::::
         :: total free energy        -139.767526105853 Eh   ::
         ::.................................................::
         :: total energy             -140.375916958748 Eh   ::
         :: zero point energy           0.684452503956 Eh   ::
         :: G(RRHO) w/o ZPVE           -0.076061651061 Eh   ::
         :: G(RRHO) contrib.            0.608390852895 Eh   ::
         :::::::::::::::::::::::::::::::::::::::::::::::::::::

           -------------------------------------------------
          | TOTAL ENERGY             -140.375916958748 Eh   |
          | TOTAL ENTHALPY           -139.644310564138 Eh   |
          | TOTAL FREE ENERGY        -139.767526105853 Eh   |
          | GRADIENT NORM               0.000195078322 Eh/α |
          | HOMO-LUMO GAP               0.788777870186 eV   |
           -------------------------------------------------

 * finished run on 2025/07/20 at 07:42:36.645
