   * xtb version 6.7.1 (edcfbbe) compiled by 'albert@albert-system' on 2024-07-22

   ID    Z sym.   atoms
    1    7 N      1, 11, 19, 23
    2    6 C      2-10, 12-18, 20-22, 24-29, 31-38
    3    8 O      30
    4    1 H      39-56

          program call               : xtb data2507/toluene/oPTBC/oPTBC_toluene_S0_finalOpt.xtbopt.xyz --gfn 2 --uhf 2 --gbsa toluene --ohess vtight --parallel 40 --molden --ceasefiles --namespace data2507/toluene/oPTBC/oPTBC_toluene_T1_preOpt
      * Solvation model:               GBSA
        Solvent                        toluene
        Solvent mass                       9.2140E+01 g/mol
          :  Hamiltonian                  GFN2-xTB          :
 * total energy  :   -95.4719607 Eh     change       -0.7295611E-08 Eh
 * total energy  :   -95.4759778 Eh     change       -0.4017035E-02 Eh
 * total energy  :   -95.4769503 Eh     change       -0.9725380E-03 Eh
 * total energy  :   -95.4770482 Eh     change       -0.9791235E-04 Eh
 * total energy  :   -95.4771283 Eh     change       -0.8009425E-04 Eh
 * total energy  :   -95.4771735 Eh     change       -0.4519230E-04 Eh
 * total energy  :   -95.4772512 Eh     change       -0.7765164E-04 Eh
 * total energy  :   -95.4772984 Eh     change       -0.4729305E-04 Eh
 * total energy  :   -95.4773439 Eh     change       -0.4548191E-04 Eh
 * total energy  :   -95.4773725 Eh     change       -0.2853230E-04 Eh
 * total energy  :   -95.4775877 Eh     change       -0.3230989E-06 Eh
 * total energy  :   -95.4775880 Eh     change       -0.3165580E-06 Eh
 * total energy  :   -95.4775883 Eh     change       -0.3046518E-06 Eh
 * total energy  :   -95.4775886 Eh     change       -0.2830221E-06 Eh
 * total energy  :   -95.4775889 Eh     change       -0.2751396E-06 Eh
 * total energy  :   -95.4775892 Eh     change       -0.2584429E-06 Eh
 * total energy  :   -95.4775894 Eh     change       -0.2454209E-06 Eh
 * total energy  :   -95.4775896 Eh     change       -0.2224233E-06 Eh
 * total energy  :   -95.4775896 Eh     change       -0.2178552E-08 Eh
   *** GEOMETRY OPTIMIZATION CONVERGED AFTER 44 ITERATIONS ***

 final structure:
================
56
 xtb: 6.7.1 (edcfbbe)
N            7.14046656522001       -1.61866194909111       -0.87848399641765
C            6.14984171532057       -1.04215288279583       -0.75837457426726
C            4.94159394740168       -0.34506523039612       -0.61110734177046
C            3.81802185100297       -0.70718062083618       -1.36896761466609
C            2.63105325474872       -0.03343111139086       -1.20882195700808
C            2.51628040769404        1.02207269100837       -0.29298611010259
C            1.25653513576617        1.74308643610933       -0.10435182766476
C            1.25696015659151        3.12243884259233       -0.07799479293168
C            0.05248025695394        3.84607124941399        0.00727891819146
C            0.07247906403917        5.24385990643713        0.00989423114981
N            0.08962751376846        6.39855702243161        0.01213855716905
C           -1.17192795365304        3.15576464383413        0.08979176493099
C           -1.20884205736729        1.77703273298924        0.11147895533315
C           -2.48794719578032        1.08958141602847        0.29724960792959
C           -3.61350147275653        1.49424359998738       -0.43416899102606
C           -4.82094434422657        0.85556875374629       -0.29041194765489
C           -4.94745699504450       -0.21573818709755        0.60795065492310
C           -6.17266822842541       -0.88378791302459        0.75031233452483
N           -7.17702049458192       -1.43677903103146        0.86659378664057
C           -3.83646716665605       -0.60442682121019        1.37113550974792
C           -2.63241905726518        0.03923175505294        1.21457061370288
C            0.01394227463224        1.05688232158622        0.00269431050752
N           -0.00659771332546       -0.35261227454478        0.00101488588036
C            0.62635007931978       -1.05890833667541        1.00002623400660
C            1.25215267673601       -0.42830039146014        2.08335953740955
C            1.90279989900380       -1.17271421496837        3.04122942842787
C            1.93710284888561       -2.56598750759007        2.95909206070154
C            1.28234969139685       -3.21417348961409        1.93228222568679
C            0.61729153232291       -2.47515007034385        0.95904657701836
O           -0.05339443427935       -3.15198729372175        0.00033761529390
C           -0.70018737971715       -2.45271374204030       -0.95866250574936
C           -1.38881730619048       -3.16866339854317       -1.93278334070596
C           -2.02066465456372       -2.49844779330066       -2.95976394389391
C           -1.93955322633672       -1.10706204054095       -3.04130925308970
C           -1.26543843388002       -0.38523254697668       -2.08236919375957
C           -0.66187090159011       -1.03696883668285       -0.99891419080075
C            3.65458840167885        1.39886270562604        0.43397080475589
C            4.84502165488810        0.73002241822203        0.28658030077411
H            3.89882253822851       -1.51428846358174       -2.08303091430915
H            1.79083716210995       -0.29950346237703       -1.83335523577870
H            2.18619254344001        3.66309456264477       -0.17684820890653
H           -2.08628687316149        3.72090551271190        0.19021412629230
H           -3.52130193328283        2.30660494614948       -1.13991756887860
H           -5.67917161082351        1.16545334853180       -0.86881634330959
H           -3.94032143770692       -1.40808078724592        2.08610916543318
H           -1.80115963101431       -0.24648256338122        1.84242333229335
H            1.20838357541680        0.64489368600199        2.16665107224501
H            2.38476110813502       -0.67155092361306        3.86534276656882
H            2.45664700350086       -3.13864403960117        3.71017459566048
H            1.26098837049021       -4.28954081005138        1.86155746018878
H           -1.40359460561081       -4.24416765868289       -1.86250134900352
H           -2.55848337694589       -3.05301876760216       -3.71154885001321
H           -2.40378568503900       -0.58969304461567       -3.86556579067721
H           -1.18566015918071        0.68594829916953       -2.16515557187538
H            3.58564151464355        2.21391675963880        1.13928006272957
H            5.71291512664663        1.01917451229784        0.86131812353834

          :  Hamiltonian                  GFN2-xTB          :
         :: gradient norm              0.000046744977 Eh/a0 ::
         :: HOMO-LUMO gap              0.079740624056 eV    ::
         :: SCC energy               -97.285825079750 Eh    ::
         :: -> dispersion             -0.086212226374 Eh    ::
         :: -> Gsolv                  -0.056905689791 Eh    ::
         :: repulsion energy           1.808235449752 Eh    ::

    * Orbital Energies and Occupations

         #    Occupation            Energy/Eh            Energy/eV
      -------------------------------------------------------------
         1        2.0000           -0.7836257             -21.3235
       ...           ...                  ...                  ...
        77        2.0000           -0.4355716             -11.8525
        78        2.0000           -0.4318109             -11.7502
        79        2.0000           -0.4305350             -11.7155
        80        2.0000           -0.4244350             -11.5495
        81        2.0000           -0.4241274             -11.5411
        82        2.0000           -0.4205376             -11.4434
        83        2.0000           -0.4194406             -11.4136
        84        2.0000           -0.4189143             -11.3992
        85        2.0000           -0.4173033             -11.3554
        86        2.0000           -0.4063116             -11.0563
        87        2.0000           -0.4015152             -10.9258
        88        1.0000           -0.3799379             -10.3386
        89        0.8163           -0.2865743              -7.7981 (HOMO)
        90        0.1690           -0.2836440              -7.7183 (LUMO)
        91        0.0147           -0.2811588              -7.6507
        92                         -0.2669471              -7.2640
        93                         -0.2643980              -7.1946
        94                         -0.2501115              -6.8059
        95                         -0.2392498              -6.5103
        96                         -0.2389848              -6.5031
        97                         -0.2351424              -6.3986
        98                         -0.2343186              -6.3761
        99                         -0.2060140              -5.6059
       100                         -0.2058734              -5.6021
       ...                                ...                  ...
       170                          1.1583932              31.5215
      -------------------------------------------------------------
                  HL-Gap            0.0029303 Eh            0.0797 eV

     #   Z          covCN         q      C6AA      α(0)
     1   7 N        0.911    -0.306    27.886     7.637
     2   6 C        1.911     0.109    28.401     8.607
     3   6 C        2.971     0.001    28.011     8.681
     4   6 C        2.922    -0.027    28.664     8.780
     5   6 C        2.920    -0.039    28.972     8.827
     6   6 C        2.976     0.003    27.947     8.672
     7   6 C        2.968     0.003    27.952     8.672
     8   6 C        2.929    -0.034    28.847     8.808
     9   6 C        2.964    -0.002    28.080     8.692
    10   6 C        1.912     0.106    28.484     8.619
    11   7 N        0.911    -0.315    28.110     7.668
    12   6 C        2.929    -0.034    28.852     8.809
    13   6 C        2.968     0.003    27.951     8.672
    14   6 C        2.976     0.003    27.945     8.671
    15   6 C        2.922    -0.034    28.853     8.809
    16   6 C        2.922    -0.024    28.613     8.772
    17   6 C        2.971     0.001    28.007     8.681
    18   6 C        1.911     0.109    28.400     8.606
    19   7 N        0.911    -0.306    27.877     7.636
    20   6 C        2.922    -0.026    28.663     8.780
    21   6 C        2.920    -0.039    28.971     8.827
    22   6 C        2.929    -0.002    28.076     8.690
    23   7 N        2.751     0.043    20.501     6.725
    24   6 C        2.930     0.043    27.028     8.526
    25   6 C        2.917    -0.040    29.005     8.832
    26   6 C        2.917    -0.022    28.564     8.764
    27   6 C        2.918    -0.018    28.456     8.748
    28   6 C        2.913    -0.046    29.132     8.851
    29   6 C        2.889     0.138    24.989     8.196
    30   8 O        1.711    -0.179    17.003     5.567
    31   6 C        2.889     0.138    24.990     8.196
    32   6 C        2.913    -0.046    29.132     8.851
    33   6 C        2.918    -0.018    28.456     8.748
    34   6 C        2.917    -0.022    28.565     8.764
    35   6 C        2.917    -0.040    29.005     8.832
    36   6 C        2.930     0.043    27.029     8.526
    37   6 C        2.922    -0.034    28.854     8.809
    38   6 C        2.922    -0.024    28.614     8.772
    39   1 H        0.926     0.032     2.563     2.504
    40   1 H        0.926     0.029     2.603     2.523
    41   1 H        0.926     0.039     2.463     2.454
    42   1 H        0.926     0.039     2.464     2.454
    43   1 H        0.926     0.040     2.450     2.448
    44   1 H        0.926     0.034     2.526     2.486
    45   1 H        0.926     0.032     2.561     2.503
    46   1 H        0.926     0.029     2.602     2.522
    47   1 H        0.926     0.070     2.086     2.259
    48   1 H        0.926     0.071     2.079     2.255
    49   1 H        0.926     0.074     2.039     2.233
    50   1 H        0.926     0.080     1.978     2.199
    51   1 H        0.926     0.080     1.978     2.200
    52   1 H        0.926     0.074     2.039     2.233
    53   1 H        0.926     0.071     2.078     2.254
    54   1 H        0.926     0.070     2.086     2.259
    55   1 H        0.926     0.040     2.452     2.449
    56   1 H        0.926     0.034     2.529     2.487

molecular dipole:
                 x           y           z       tot (Debye)
 q only:       -0.060      -2.854       0.001
   full:       -0.059      -2.775       0.002       7.054

 projected vibrational frequencies (cm⁻¹)
eigval :       -0.00    -0.00    -0.00     0.00     0.00     0.00
eigval :       13.89    23.23    26.79    29.55    40.05    53.47
eigval :       61.16    64.70    77.04    89.83    97.09   110.79
eigval :      115.39   123.12   126.50   144.98   150.18   152.40
eigval :      197.60   217.81   218.70   244.44   255.60   267.07
eigval :      278.65   280.46   315.69   317.96   365.53   375.45
eigval :      378.46   388.84   395.71   408.25   420.46   435.78
eigval :      437.18   459.33   476.56   482.20   504.04   504.52
eigval :      516.51   522.07   522.87   533.65   534.60   535.63
eigval :      539.61   556.61   563.42   578.66   602.46   607.30
eigval :      619.55   624.25   650.25   666.91   667.64   676.29
eigval :      676.50   679.61   727.91   766.94   768.14   773.13
eigval :      786.68   808.00   810.86   826.31   852.34   855.44
eigval :      856.58   861.59   864.42   867.55   868.81   877.20
eigval :      903.49   904.34   905.57   912.11   916.95   917.44
eigval :      917.80   918.37   926.80   928.48   996.00  1002.49
eigval :     1044.88  1071.21  1072.91  1113.76  1119.57  1137.40
eigval :     1138.93  1147.82  1156.67  1158.41  1165.63  1168.95
eigval :     1184.23  1189.40  1206.87  1213.94  1215.75  1237.19
eigval :     1237.31  1242.09  1245.74  1265.45  1268.06  1271.39
eigval :     1273.63  1292.55  1311.23  1317.04  1317.98  1335.34
eigval :     1343.62  1355.44  1367.17  1381.94  1401.53  1404.67
eigval :     1409.45  1411.13  1417.76  1430.73  1450.50  1469.09
eigval :     1471.45  1489.05  1489.65  1491.48  1506.21  1516.07
eigval :     1529.53  1553.61  1586.30  2263.82  2288.84  2314.51
eigval :     3074.08  3074.83  3077.55  3077.66  3086.20  3087.04
eigval :     3089.14  3089.66  3090.99  3093.42  3104.60  3104.94
eigval :     3111.38  3111.57  3119.85  3120.16  3123.69  3124.00

   temp. (K)  partition function   enthalpy   heat capacity  entropy
                                   cal/mol     cal/K/mol   cal/K/mol   J/K/mol
 298.15  VIB  0.218E+14            17772.032    110.867    110.356
         ROT  0.147E+08              888.752      2.981     35.781
         INT  0.321E+21            18660.784    113.848    146.137
         TR   0.104E+29             1481.254      4.968     44.414
         TOT                       20142.0380   118.8160   190.5507   797.2640

       T/K    H(0)-H(T)+PV         H(T)/Eh          T*S/Eh         G(T)/Eh
   ------------------------------------------------------------------------
    298.15    0.320984E-01    0.432027E+00    0.905368E-01    0.341490E+00
   ------------------------------------------------------------------------

         :::::::::::::::::::::::::::::::::::::::::::::::::::::
         ::                  THERMODYNAMIC                  ::
         :::::::::::::::::::::::::::::::::::::::::::::::::::::
         :: total free energy         -95.136099815957 Eh   ::
         ::.................................................::
         :: total energy              -95.477589622913 Eh   ::
         :: zero point energy           0.399928198466 Eh   ::
         :: G(RRHO) w/o ZPVE           -0.058438391510 Eh   ::
         :: G(RRHO) contrib.            0.341489806956 Eh   ::
         :::::::::::::::::::::::::::::::::::::::::::::::::::::

           -------------------------------------------------
          | TOTAL ENERGY              -95.477589622913 Eh   |
          | TOTAL ENTHALPY            -95.045563043779 Eh   |
          | TOTAL FREE ENERGY         -95.136099815957 Eh   |
          | GRADIENT NORM               0.000045486879 Eh/α |
          | HOMO-LUMO GAP               0.079737795668 eV   |
           -------------------------------------------------

 * finished run on 2025/08/21 at 15:52:27.377
