   * xtb version 6.7.1 (edcfbbe) compiled by 'albert@albert-system' on 2024-07-22

   ID    Z sym.   atoms
    1    7 N      1, 11, 19, 23
    2    6 C      2-10, 12-18, 20-22, 24-29, 31-38
    3    8 O      30
    4    1 H      39-56

          program call               : xtb data2507/toluene/oPTBC/oPTBC_toluene_T1_crest.xyz --gfn 2 --uhf 2 --gbsa toluene --ohess vtight --parallel 40 --molden --ceasefiles --namespace data2507/toluene/oPTBC/oPTBC_toluene_T1_finalOpt
      * Solvation model:               GBSA
        Solvent                        toluene
        Solvent mass                       9.2140E+01 g/mol
          :  Hamiltonian                  GFN2-xTB          :
 * total energy  :   -95.4770994 Eh     change       -0.3216925E-08 Eh
 * total energy  :   -95.4772544 Eh     change       -0.1550527E-03 Eh
 * total energy  :   -95.4773199 Eh     change       -0.6549892E-04 Eh
 * total energy  :   -95.4773506 Eh     change       -0.3069543E-04 Eh
 * total energy  :   -95.4773818 Eh     change       -0.3119297E-04 Eh
 * total energy  :   -95.4774139 Eh     change       -0.3206517E-04 Eh
 * total energy  :   -95.4774496 Eh     change       -0.3574431E-04 Eh
 * total energy  :   -95.4774846 Eh     change       -0.3494559E-04 Eh
 * total energy  :   -95.4775105 Eh     change       -0.2588909E-04 Eh
 * total energy  :   -95.4775272 Eh     change       -0.1675394E-04 Eh
 * total energy  :   -95.4775648 Eh     change       -0.3524538E-05 Eh
 * total energy  :   -95.4775671 Eh     change       -0.2276887E-05 Eh
 * total energy  :   -95.4775703 Eh     change       -0.3256220E-05 Eh
 * total energy  :   -95.4775720 Eh     change       -0.1680444E-05 Eh
 * total energy  :   -95.4775729 Eh     change       -0.8733116E-06 Eh
 * total energy  :   -95.4775733 Eh     change       -0.4278785E-06 Eh
 * total energy  :   -95.4775734 Eh     change       -0.1114235E-06 Eh
 * total energy  :   -95.4775734 Eh     change        0.2168264E-08 Eh
 * total energy  :   -95.4775734 Eh     change       -0.3173916E-07 Eh
   *** GEOMETRY OPTIMIZATION CONVERGED AFTER 23 ITERATIONS ***

 final structure:
================
56
 xtb: 6.7.1 (edcfbbe)
N            7.15447689678101       -1.50289616943177        0.95871256450057
C            6.15655815251129       -0.94112489981042        0.82960934321983
C            4.93944759452539       -0.26215773280730        0.67093632810756
C            4.83582734378814        0.81286035397716       -0.22600402737057
C            3.63644523646642        1.46263715797211       -0.38590118324984
C            2.49633193414353        1.06619120577438        0.32752362327656
C            1.22674837338880        1.76585595606215        0.12444188227830
C            1.20385930301424        3.14494933851609        0.10106263992149
C           -0.01200537623369        3.84780587428936        0.00192725505200
C           -0.01713758890227        5.24571437390359        0.00283251447917
N           -0.02180078934296        6.40053971832357        0.00328310590343
C           -1.22291225317477        3.13647825522479       -0.09788242799088
C           -1.23610488912443        1.75730770469181       -0.12256375120583
C           -2.50082078010947        1.04883478059174       -0.32561197831939
C           -2.61549496185712       -0.00558650712053       -1.24261832561779
C           -3.80669911604793       -0.66877291052228       -1.41492329711732
C           -4.93469898306985       -0.29654355368586       -0.66865742660353
C           -6.14712240752273       -0.98384545054327       -0.82726519330064
N           -7.14115987116658       -1.55243798147152       -0.95641646430098
C           -4.83805695599760        0.77826700045902        0.22932036763323
C           -3.64321553568156        1.43640055912452        0.38902500738928
C           -0.00215997184081        1.05820980086438        0.00046100059972
N            0.00243558990669       -0.35125438929433        0.00004437312301
C           -0.65566020686953       -1.04892425820987        0.98893184577072
C           -1.28697343926770       -0.40991085971300        2.06414207404278
C           -1.96445950261217       -1.14520851426927        3.01041227782293
C           -2.02157613609216       -2.53741629747123        2.92427991556386
C           -1.36169574917844       -3.19461225493367        1.90646956262142
C           -0.66879830510218       -2.46493956559651        0.94571727985246
O            0.00665367461524       -3.15106897672246       -0.00302001804098
C            0.68077545059837       -2.46075592948105       -0.94968581171157
C            1.37591923698117       -3.18637563485502       -1.91192138185657
C            2.03464222955200       -2.52507665337248       -2.92779945064627
C            1.97403888328088       -1.13282987823447       -3.01058521681701
C            1.29385421085238       -0.40152425623967       -2.06311051512160
C            0.66365821108218       -1.04468729817090       -0.98976172350856
C            2.61784285883579        0.01172009658464        1.24356560191607
C            3.81358557826973       -0.64319764467549        1.41600290779717
H            5.70532718211767        1.11677052038446       -0.79058666305741
H            3.56215262657769        2.27755541401513       -1.09082756181704
H            2.12236456909024        3.70109496828213        0.21325021386273
H           -2.14527559298597        3.68635818073896       -0.20932002816207
H           -1.77108803750445       -0.27944956250580       -1.85807786140610
H           -3.88723144253586       -1.47546281587765       -2.12948494644995
H           -5.70931007749440        1.07548006707171        0.79476575071654
H           -3.57421536566737        2.25111542004951        1.09471968201832
H           -1.22608773420681        0.66220157011611        2.15064807918820
H           -2.45022619414531       -0.63764520524695        3.82835213840767
H           -2.56278981801577       -3.10265411801113        3.66562134791702
H           -1.35730560885590       -4.27003722518712        1.83364569975700
H            1.37416568657739       -4.26198075070334       -1.84166499753783
H            2.57771171740760       -3.08714487952734       -3.67019295557488
H            2.45906813149921       -0.62205764196853       -3.82695684854901
H            1.23010179241974        0.67058141354764       -2.14736405547184
H            1.77499477232953       -0.26859433455612        1.85823202516566
H            3.89939623089352       -1.44995204994165        2.12987277110036

          :  Hamiltonian                  GFN2-xTB          :
         :: gradient norm              0.000053748976 Eh/a0 ::
         :: HOMO-LUMO gap              0.080482580826 eV    ::
         :: SCC energy               -97.285815785207 Eh    ::
         :: -> dispersion             -0.086258111560 Eh    ::
         :: -> Gsolv                  -0.056871068001 Eh    ::
         :: repulsion energy           1.808242341832 Eh    ::

    * Orbital Energies and Occupations

         #    Occupation            Energy/Eh            Energy/eV
      -------------------------------------------------------------
         1        2.0000           -0.7836232             -21.3235
       ...           ...                  ...                  ...
        77        2.0000           -0.4355748             -11.8526
        78        2.0000           -0.4318209             -11.7504
        79        2.0000           -0.4305523             -11.7159
        80        2.0000           -0.4244165             -11.5490
        81        2.0000           -0.4241460             -11.5416
        82        2.0000           -0.4205318             -11.4433
        83        2.0000           -0.4194273             -11.4132
        84        2.0000           -0.4189091             -11.3991
        85        2.0000           -0.4173085             -11.3555
        86        2.0000           -0.4062996             -11.0560
        87        2.0000           -0.4014940             -10.9252
        88        1.0000           -0.3799330             -10.3385
        89        0.8184           -0.2866098              -7.7990 (HOMO)
        90        0.1670           -0.2836524              -7.7186 (LUMO)
        91        0.0146           -0.2811790              -7.6513
        92                         -0.2669466              -7.2640
        93                         -0.2644100              -7.1950
        94                         -0.2501264              -6.8063
        95                         -0.2392131              -6.5093
        96                         -0.2390029              -6.5036
        97                         -0.2351200              -6.3979
        98                         -0.2343110              -6.3759
        99                         -0.2059472              -5.6041
       100                         -0.2059276              -5.6036
       ...                                ...                  ...
       170                          1.1583820              31.5212
      -------------------------------------------------------------
                  HL-Gap            0.0029574 Eh            0.0805 eV

     #   Z          covCN         q      C6AA      α(0)
     1   7 N        0.911    -0.306    27.882     7.637
     2   6 C        1.911     0.109    28.400     8.607
     3   6 C        2.971     0.001    28.009     8.681
     4   6 C        2.922    -0.024    28.614     8.772
     5   6 C        2.922    -0.034    28.854     8.809
     6   6 C        2.976     0.003    27.946     8.671
     7   6 C        2.968     0.003    27.951     8.672
     8   6 C        2.929    -0.034    28.849     8.808
     9   6 C        2.964    -0.002    28.079     8.692
    10   6 C        1.912     0.106    28.484     8.619
    11   7 N        0.911    -0.315    28.109     7.668
    12   6 C        2.929    -0.034    28.849     8.808
    13   6 C        2.968     0.003    27.951     8.672
    14   6 C        2.976     0.003    27.946     8.671
    15   6 C        2.920    -0.039    28.972     8.827
    16   6 C        2.922    -0.026    28.664     8.780
    17   6 C        2.971     0.001    28.009     8.681
    18   6 C        1.911     0.109    28.400     8.607
    19   7 N        0.911    -0.306    27.882     7.637
    20   6 C        2.922    -0.024    28.614     8.772
    21   6 C        2.922    -0.034    28.854     8.809
    22   6 C        2.929    -0.002    28.078     8.690
    23   7 N        2.751     0.043    20.500     6.725
    24   6 C        2.930     0.043    27.028     8.526
    25   6 C        2.917    -0.040    29.005     8.832
    26   6 C        2.917    -0.022    28.564     8.764
    27   6 C        2.918    -0.018    28.455     8.748
    28   6 C        2.913    -0.046    29.132     8.851
    29   6 C        2.889     0.138    24.989     8.196
    30   8 O        1.711    -0.179    17.005     5.568
    31   6 C        2.890     0.138    24.989     8.196
    32   6 C        2.913    -0.046    29.132     8.851
    33   6 C        2.918    -0.018    28.455     8.747
    34   6 C        2.917    -0.022    28.564     8.764
    35   6 C        2.917    -0.040    29.005     8.832
    36   6 C        2.930     0.043    27.028     8.526
    37   6 C        2.920    -0.039    28.972     8.827
    38   6 C        2.922    -0.026    28.664     8.780
    39   1 H        0.926     0.034     2.528     2.486
    40   1 H        0.926     0.040     2.451     2.448
    41   1 H        0.926     0.039     2.463     2.454
    42   1 H        0.926     0.039     2.463     2.454
    43   1 H        0.926     0.029     2.603     2.523
    44   1 H        0.926     0.032     2.562     2.503
    45   1 H        0.926     0.034     2.527     2.486
    46   1 H        0.926     0.040     2.451     2.448
    47   1 H        0.926     0.070     2.086     2.259
    48   1 H        0.926     0.071     2.079     2.255
    49   1 H        0.926     0.074     2.039     2.233
    50   1 H        0.926     0.080     1.978     2.199
    51   1 H        0.926     0.080     1.978     2.199
    52   1 H        0.926     0.074     2.039     2.233
    53   1 H        0.926     0.071     2.079     2.255
    54   1 H        0.926     0.070     2.086     2.258
    55   1 H        0.926     0.029     2.603     2.523
    56   1 H        0.926     0.032     2.562     2.503

molecular dipole:
                 x           y           z       tot (Debye)
 q only:        0.009      -2.853      -0.003
   full:        0.009      -2.774      -0.003       7.050

 projected vibrational frequencies (cm⁻¹)
eigval :       -0.00    -0.00    -0.00    -0.00     0.00     0.00
eigval :       15.13    22.23    27.33    29.16    40.80    53.14
eigval :       62.59    64.11    76.97    90.39    97.12   110.97
eigval :      115.45   121.54   127.08   144.83   150.89   152.37
eigval :      197.49   218.28   218.77   244.83   256.10   266.81
eigval :      278.68   280.67   315.82   318.49   365.78   375.04
eigval :      377.92   388.83   395.63   408.70   421.12   436.01
eigval :      437.21   459.45   476.13   482.31   504.52   505.30
eigval :      516.61   522.65   523.20   533.78   535.48   536.42
eigval :      539.45   557.18   563.48   578.71   602.58   607.45
eigval :      619.96   624.35   650.32   666.96   667.79   676.38
eigval :      676.51   679.86   728.06   766.94   768.23   773.09
eigval :      787.05   808.38   810.95   825.99   852.30   855.18
eigval :      856.87   862.31   864.34   867.61   868.76   877.32
eigval :      903.73   904.64   905.65   912.09   916.86   916.94
eigval :      917.24   917.67   927.91   928.07   996.03  1002.37
eigval :     1045.26  1072.02  1073.60  1113.72  1119.83  1137.70
eigval :     1138.28  1149.06  1155.68  1160.31  1166.24  1169.47
eigval :     1184.55  1190.05  1208.09  1213.94  1216.99  1236.99
eigval :     1237.46  1241.88  1245.92  1265.59  1267.90  1271.80
eigval :     1273.56  1292.26  1311.25  1317.10  1318.07  1335.26
eigval :     1343.67  1355.33  1367.69  1381.80  1401.54  1404.75
eigval :     1409.61  1411.56  1417.87  1430.80  1450.50  1469.05
eigval :     1471.42  1489.06  1489.64  1491.49  1506.33  1515.99
eigval :     1529.93  1553.89  1586.46  2264.14  2289.01  2314.69
eigval :     3074.56  3074.60  3077.46  3077.71  3086.68  3086.84
eigval :     3089.27  3089.67  3091.77  3093.68  3105.49  3105.67
eigval :     3112.03  3112.11  3119.94  3120.22  3123.74  3124.06

   temp. (K)  partition function   enthalpy   heat capacity  entropy
                                   cal/mol     cal/K/mol   cal/K/mol   J/K/mol
 298.15  VIB  0.201E+14            17764.511    110.860    110.260
         ROT  0.147E+08              888.752      2.981     35.780
         INT  0.296E+21            18653.264    113.841    146.040
         TR   0.104E+29             1481.254      4.968     44.414
         TOT                       20134.5177   118.8088   190.4540   796.8594

       T/K    H(0)-H(T)+PV         H(T)/Eh          T*S/Eh         G(T)/Eh
   ------------------------------------------------------------------------
    298.15    0.320864E-01    0.432076E+00    0.904908E-01    0.341585E+00
   ------------------------------------------------------------------------

         :::::::::::::::::::::::::::::::::::::::::::::::::::::
         ::                  THERMODYNAMIC                  ::
         :::::::::::::::::::::::::::::::::::::::::::::::::::::
         :: total free energy         -95.135987967629 Eh   ::
         ::.................................................::
         :: total energy              -95.477573449523 Eh   ::
         :: zero point energy           0.399989912172 Eh   ::
         :: G(RRHO) w/o ZPVE           -0.058404430278 Eh   ::
         :: G(RRHO) contrib.            0.341585481894 Eh   ::
         :::::::::::::::::::::::::::::::::::::::::::::::::::::

           -------------------------------------------------
          | TOTAL ENERGY              -95.477573449523 Eh   |
          | TOTAL ENTHALPY            -95.045497140968 Eh   |
          | TOTAL FREE ENERGY         -95.135987967629 Eh   |
          | GRADIENT NORM               0.000055491167 Eh/α |
          | HOMO-LUMO GAP               0.080475161055 eV   |
           -------------------------------------------------

 * finished run on 2025/08/21 at 15:55:26.182
