   * xtb version 6.7.1 (edcfbbe) compiled by 'albert@albert-system' on 2024-07-22

   ID    Z sym.   atoms
    1    7 N      1, 11, 19, 23
    2    6 C      2-10, 12-18, 20-22, 24-29, 31-38
    3    8 O      30
    4    1 H      39-56

          program call               : xtb data2507/toluene/oPTBC/oPTBC.xyz --gfn 2 --gbsa toluene --ohess vtight --parallel 40 --molden --ceasefiles --namespace data2507/toluene/oPTBC/oPTBC_toluene_S0_preOpt
      * Solvation model:               GBSA
        Solvent                        toluene
        Solvent mass                       9.2140E+01 g/mol
          :  Hamiltonian                  GFN2-xTB          :
 * total energy  :   -95.5388627 Eh     change       -0.3463313E-08 Eh
 * total energy  :   -95.5489671 Eh     change       -0.1010439E-01 Eh
 * total energy  :   -95.5520510 Eh     change       -0.3083847E-02 Eh
 * total energy  :   -95.5529073 Eh     change       -0.8563156E-03 Eh
 * total energy  :   -95.5534200 Eh     change       -0.5127525E-03 Eh
 * total energy  :   -95.5537009 Eh     change       -0.2808957E-03 Eh
 * total energy  :   -95.5539399 Eh     change       -0.2389863E-03 Eh
 * total energy  :   -95.5541477 Eh     change       -0.2078010E-03 Eh
 * total energy  :   -95.5544011 Eh     change       -0.2533328E-03 Eh
 * total energy  :   -95.5546885 Eh     change       -0.2874706E-03 Eh
 * total energy  :   -95.5572531 Eh     change       -0.3728447E-06 Eh
 * total energy  :   -95.5572535 Eh     change       -0.4276902E-06 Eh
 * total energy  :   -95.5572540 Eh     change       -0.5017186E-06 Eh
 * total energy  :   -95.5572545 Eh     change       -0.5036872E-06 Eh
 * total energy  :   -95.5572545 Eh     change        0.5577775E-08 Eh
 * total energy  :   -95.5572546 Eh     change       -0.1040739E-06 Eh
 * total energy  :   -95.5572547 Eh     change       -0.1036053E-06 Eh
 * total energy  :   -95.5572549 Eh     change       -0.1226040E-06 Eh
 * total energy  :   -95.5572549 Eh     change       -0.6639976E-07 Eh
   *** GEOMETRY OPTIMIZATION CONVERGED AFTER 72 ITERATIONS ***

 final structure:
================
56
 xtb: 6.7.1 (edcfbbe)
N            7.11753079553275       -1.55996898487661       -0.30974548444967
C            6.12556679551987       -0.98383342113116       -0.27283564593933
C            4.90613203113722       -0.27202108964810       -0.22678366515111
C            3.90188742575580       -0.54774113752978       -1.15652821891124
C            2.70927938356186        0.14388944136035       -1.10190278171698
C            2.49847426462891        1.11432713659280       -0.12391618334017
C            1.21677441940503        1.84184454038576       -0.05029412378382
C            1.20917681189136        3.22883258337573       -0.03224716707161
C            0.00040366769399        3.92350950605667       -0.00027218773321
C            0.00060885964867        5.33690973507074       -0.00036471171896
N            0.00081601928930        6.48434655227429       -0.00073053131449
C           -1.20848946473247        3.22904503411649        0.03182843856203
C           -1.21626723927130        1.84206926925051        0.05004901343222
C           -2.49804579736616        1.11470471806763        0.12386857961249
C           -3.51390322124825        1.39998889432892       -0.78644850961013
C           -4.70922585493522        0.71286705756846       -0.74324108637312
C           -4.90580533589910       -0.27141831246328        0.22710690203084
C           -6.12531771477974       -0.98314123018828        0.27312375771177
N           -7.11718626925607       -1.55933540451928        0.31057653793259
C           -3.90167407062058       -0.54682819312158        1.15706567570998
C           -2.70900425432820        0.14469145300865        1.10224517488521
C            0.00019105725670        1.14415523711775       -0.00011272743194
N           -0.00003618734015       -0.26526361084143       -0.00003367154922
C            0.54218547509247       -0.97550274684435        1.07489015783494
C            1.03550685207886       -0.34049657929016        2.20754141493585
C            1.58001805621483       -1.07309088827520        3.25153857489809
C            1.62650142611805       -2.45095242682598        3.18524372076026
C            1.09437425053792       -3.10172254377086        2.08143673591190
C            0.54682461742942       -2.37549307230303        1.03985224706370
O           -0.00102056798270       -3.08885774450487        0.00020254976466
C           -0.54822147253417       -2.37529443520837       -1.03964590594112
C           -1.09617297023647       -3.10131453848255       -2.08116870785694
C           -1.62768754293852       -2.45035403595715       -3.18515826526254
C           -1.58014815807802       -1.07254248920199       -3.25171523982736
C           -1.03524678672496       -0.34015600782329       -2.20777295721062
C           -0.54256018842600       -0.97531844451986       -1.07493411731229
C            3.51443736441858        1.39991360384532        0.78619707767637
C            4.70971024069602        0.71269006928781        0.74317303484219
H            4.06380968267419       -1.30088067987697       -1.91344183646937
H            1.94295343994234       -0.06105987445400       -1.83467285709239
H            2.14106082096403        3.77243208634052       -0.07398457193623
H           -2.14029991781733        3.77277366006586        0.07351252059114
H           -3.35748071167414        2.15332725002928       -1.54383785723356
H           -5.49333579305857        0.92735931404442       -1.45397560370003
H           -4.06370295352342       -1.29964376990105        1.91427864518744
H           -1.94273888544606       -0.06001376727420        1.83515171401260
H            0.98525309977665        0.73424147977813        2.28197807619225
H            1.96356315775469       -0.55462997727097        4.11661187277730
H            2.05621577576877       -3.02684880445387        3.98945797670796
H            1.08910629282875       -4.17807532104979        2.01211948864241
H           -1.09172161338900       -4.17765696210343       -2.01164060640075
H           -2.05772857785263       -3.02608299551478       -3.98932012392449
H           -1.96317739012669       -0.55395836640302       -4.11694369164242
H           -0.98420533082394        0.73453552473545       -2.28239721316845
H            3.35814749238836        2.15359356609898        1.54327465027877
H            5.49389869440320        0.92744914281821        1.45374271312163

          :  Hamiltonian                  GFN2-xTB          :
         :: gradient norm              0.000141410528 Eh/a0 ::
         :: HOMO-LUMO gap              1.623622724569 eV    ::
         :: SCC energy               -97.387956191879 Eh    ::
         :: -> dispersion             -0.086235568486 Eh    ::
         :: -> Gsolv                  -0.048141583043 Eh    ::
         :: repulsion energy           1.830701267743 Eh    ::

    * Orbital Energies and Occupations

         #    Occupation            Energy/Eh            Energy/eV
      -------------------------------------------------------------
         1        2.0000           -0.7391544             -20.1134
       ...           ...                  ...                  ...
        76        2.0000           -0.4384173             -11.9299
        77        2.0000           -0.4370320             -11.8922
        78        2.0000           -0.4360305             -11.8650
        79        2.0000           -0.4352978             -11.8451
        80        2.0000           -0.4350717             -11.8389
        81        2.0000           -0.4327513             -11.7758
        82        2.0000           -0.4319334             -11.7535
        83        2.0000           -0.4253665             -11.5748
        84        2.0000           -0.4234109             -11.5216
        85        2.0000           -0.4220732             -11.4852
        86        2.0000           -0.4183004             -11.3825
        87        2.0000           -0.4009159             -10.9095
        88        2.0000           -0.3556438              -9.6776 (HOMO)
        89                         -0.2959768              -8.0539 (LUMO)
        90                         -0.2934370              -7.9848
        91                         -0.2806698              -7.6374
        92                         -0.2538585              -6.9078
        93                         -0.2525847              -6.8732
        94                         -0.2523422              -6.8666
        95                         -0.2480293              -6.7492
        96                         -0.2396252              -6.5205
        97                         -0.2260400              -6.1509
        98                         -0.2234555              -6.0805
        99                         -0.2192730              -5.9667
       ...                                ...                  ...
       170                          1.1537734              31.3958
      -------------------------------------------------------------
                  HL-Gap            0.0596671 Eh            1.6236 eV

     #   Z          covCN         q      C6AA      α(0)
     1   7 N        0.911    -0.264    26.841     7.493
     2   6 C        1.912     0.119    28.168     8.571
     3   6 C        2.974     0.019    27.579     8.614
     4   6 C        2.925    -0.017    28.440     8.745
     5   6 C        2.922    -0.026    28.657     8.779
     6   6 C        2.978     0.023    27.483     8.599
     7   6 C        2.976     0.006    27.882     8.662
     8   6 C        2.930    -0.024    28.607     8.771
     9   6 C        2.969     0.018    27.611     8.619
    10   6 C        1.913     0.120    28.158     8.570
    11   7 N        0.911    -0.257    26.675     7.470
    12   6 C        2.930    -0.024    28.607     8.771
    13   6 C        2.976     0.006    27.882     8.662
    14   6 C        2.978     0.023    27.483     8.599
    15   6 C        2.923    -0.026    28.655     8.778
    16   6 C        2.925    -0.017    28.425     8.743
    17   6 C        2.974     0.019    27.579     8.614
    18   6 C        1.912     0.119    28.168     8.571
    19   7 N        0.911    -0.264    26.840     7.493
    20   6 C        2.925    -0.017    28.440     8.745
    21   6 C        2.922    -0.026    28.657     8.779
    22   6 C        2.926     0.061    26.622     8.461
    23   7 N        2.751    -0.065    22.499     7.045
    24   6 C        2.922     0.039    27.132     8.542
    25   6 C        2.924    -0.061    29.514     8.909
    26   6 C        2.919    -0.039    28.970     8.826
    27   6 C        2.919    -0.039    28.975     8.827
    28   6 C        2.920    -0.057    29.409     8.893
    29   6 C        2.882     0.123    25.297     8.245
    30   8 O        1.708    -0.269    18.454     5.800
    31   6 C        2.882     0.123    25.297     8.245
    32   6 C        2.920    -0.057    29.409     8.893
    33   6 C        2.919    -0.039    28.975     8.827
    34   6 C        2.919    -0.039    28.970     8.826
    35   6 C        2.924    -0.061    29.514     8.909
    36   6 C        2.922     0.039    27.132     8.542
    37   6 C        2.923    -0.026    28.655     8.778
    38   6 C        2.925    -0.017    28.425     8.743
    39   1 H        0.926     0.047     2.354     2.399
    40   1 H        0.926     0.047     2.358     2.401
    41   1 H        0.926     0.058     2.221     2.331
    42   1 H        0.926     0.058     2.221     2.331
    43   1 H        0.926     0.055     2.255     2.348
    44   1 H        0.926     0.052     2.299     2.371
    45   1 H        0.926     0.047     2.354     2.399
    46   1 H        0.926     0.047     2.358     2.401
    47   1 H        0.926     0.039     2.464     2.455
    48   1 H        0.926     0.044     2.394     2.419
    49   1 H        0.926     0.045     2.389     2.417
    50   1 H        0.926     0.050     2.320     2.382
    51   1 H        0.926     0.050     2.320     2.382
    52   1 H        0.926     0.045     2.389     2.417
    53   1 H        0.926     0.044     2.394     2.419
    54   1 H        0.926     0.039     2.464     2.455
    55   1 H        0.926     0.055     2.255     2.348
    56   1 H        0.926     0.052     2.298     2.371

molecular dipole:
                 x           y           z       tot (Debye)
 q only:       -0.000       0.649      -0.000
   full:       -0.000       0.611      -0.000       1.552

 projected vibrational frequencies (cm⁻¹)
eigval :       -0.00    -0.00    -0.00    -0.00     0.00     0.00
eigval :       15.74    19.10    25.74    28.22    41.64    44.44
eigval :       53.09    54.26    70.13    86.14    97.48   109.71
eigval :      116.86   125.32   128.73   142.32   150.45   152.86
eigval :      197.15   213.26   221.64   252.66   257.38   257.89
eigval :      274.76   277.56   308.28   312.20   363.52   366.72
eigval :      371.01   391.15   408.61   423.75   430.72   438.80
eigval :      447.50   455.22   481.59   506.42   506.60   509.71
eigval :      521.64   522.70   533.76   534.73   535.79   546.13
eigval :      549.63   582.60   583.10   599.58   608.44   613.51
eigval :      625.96   629.82   659.36   660.04   678.00   693.90
eigval :      693.91   713.79   729.34   772.22   778.39   779.07
eigval :      795.23   816.24   817.71   853.23   860.08   861.12
eigval :      866.29   866.39   867.76   869.27   884.29   889.81
eigval :      897.49   898.87   914.71   915.27   916.15   917.69
eigval :      917.88   930.16   930.39   936.77  1005.19  1013.01
eigval :     1062.13  1088.84  1090.32  1107.50  1119.82  1135.79
eigval :     1136.13  1166.25  1170.44  1173.41  1178.54  1181.79
eigval :     1187.34  1188.11  1197.63  1214.60  1223.26  1234.92
eigval :     1241.85  1251.21  1258.92  1264.38  1264.60  1297.24
eigval :     1298.44  1304.65  1311.55  1311.98  1333.22  1345.63
eigval :     1356.45  1388.91  1390.08  1412.32  1421.60  1431.38
eigval :     1442.72  1480.19  1481.56  1482.29  1500.96  1533.83
eigval :     1548.82  1550.84  1559.90  1567.66  1579.54  1587.72
eigval :     1587.79  1589.17  1601.56  2362.79  2364.49  2365.40
eigval :     3084.43  3084.48  3086.02  3086.12  3091.20  3091.30
eigval :     3095.02  3095.09  3096.15  3096.62  3097.14  3097.91
eigval :     3098.70  3098.75  3105.44  3105.80  3111.35  3112.06

   temp. (K)  partition function   enthalpy   heat capacity  entropy
                                   cal/mol     cal/K/mol   cal/K/mol   J/K/mol
 298.15  VIB  0.379E+14            17682.761    109.096    110.157
         ROT  0.146E+08              888.752      2.981     35.762
         INT  0.553E+21            18571.513    112.077    145.919
         TR   0.104E+29             1481.254      4.968     44.414
         TOT                       20052.7668   117.0455   190.3329   796.3527

       T/K    H(0)-H(T)+PV         H(T)/Eh          T*S/Eh         G(T)/Eh
   ------------------------------------------------------------------------
    298.15    0.319561E-01    0.436068E+00    0.904333E-01    0.345635E+00
   ------------------------------------------------------------------------

         :::::::::::::::::::::::::::::::::::::::::::::::::::::
         ::                  THERMODYNAMIC                  ::
         :::::::::::::::::::::::::::::::::::::::::::::::::::::
         :: total free energy         -95.211619776475 Eh   ::
         ::.................................................::
         :: total energy              -95.557254927678 Eh   ::
         :: zero point energy           0.404112319789 Eh   ::
         :: G(RRHO) w/o ZPVE           -0.058477168586 Eh   ::
         :: G(RRHO) contrib.            0.345635151203 Eh   ::
         :::::::::::::::::::::::::::::::::::::::::::::::::::::

           -------------------------------------------------
          | TOTAL ENERGY              -95.557254927678 Eh   |
          | TOTAL ENTHALPY            -95.121186489851 Eh   |
          | TOTAL FREE ENERGY         -95.211619776475 Eh   |
          | GRADIENT NORM               0.000141427589 Eh/α |
          | HOMO-LUMO GAP               1.623623569271 eV   |
           -------------------------------------------------

 * finished run on 2025/08/21 at 15:50:08.208
