   * xtb version 6.7.1 (edcfbbe) compiled by 'albert@albert-system' on 2024-07-22

   ID    Z sym.   atoms
    1    7 N      1, 11, 19, 23
    2    6 C      2-10, 12-18, 20-22, 24-29, 31-38
    3    8 O      30
    4    1 H      39-56

          program call               : xtb data2507/toluene/oPTBC/oPTBC_toluene_S0_crest.xyz --gfn 2 --gbsa toluene --ohess vtight --parallel 40 --molden --ceasefiles --namespace data2507/toluene/oPTBC/oPTBC_toluene_S0_finalOpt
      * Solvation model:               GBSA
        Solvent                        toluene
        Solvent mass                       9.2140E+01 g/mol
          :  Hamiltonian                  GFN2-xTB          :
 * total energy  :   -95.5569990 Eh     change       -0.3244253E-08 Eh
 * total energy  :   -95.5570576 Eh     change       -0.5856619E-04 Eh
 * total energy  :   -95.5570456 Eh     change        0.1203164E-04 Eh
 * total energy  :   -95.5570988 Eh     change       -0.5317600E-04 Eh
 * total energy  :   -95.5571120 Eh     change       -0.1323174E-04 Eh
 * total energy  :   -95.5571170 Eh     change       -0.5022084E-05 Eh
 * total energy  :   -95.5571527 Eh     change       -0.3567276E-04 Eh
 * total energy  :   -95.5571766 Eh     change       -0.2394224E-04 Eh
 * total energy  :   -95.5571983 Eh     change       -0.2170063E-04 Eh
 * total energy  :   -95.5572276 Eh     change       -0.2922434E-04 Eh
 * total energy  :   -95.5572698 Eh     change       -0.1799046E-05 Eh
 * total energy  :   -95.5572700 Eh     change       -0.2233846E-06 Eh
 * total energy  :   -95.5572705 Eh     change       -0.4565403E-06 Eh
 * total energy  :   -95.5572704 Eh     change        0.9991668E-07 Eh
 * total energy  :   -95.5572702 Eh     change        0.1307410E-06 Eh
 * total energy  :   -95.5572700 Eh     change        0.2762348E-06 Eh
 * total energy  :   -95.5572706 Eh     change       -0.6790986E-06 Eh
 * total energy  :   -95.5572706 Eh     change        0.3710545E-07 Eh
 * total energy  :   -95.5572707 Eh     change       -0.6765529E-07 Eh
   *** GEOMETRY OPTIMIZATION CONVERGED AFTER 37 ITERATIONS ***

 final structure:
================
56
 xtb: 6.7.1 (edcfbbe)
N            7.05941461378600       -1.67092751076918       -0.98013947407951
C            6.07795516984787       -1.09193267867816       -0.84312601903754
C            4.87195556398176       -0.37585427575800       -0.67460104990014
C            3.78569663955857       -0.63124175900176       -1.51351627456406
C            2.60876106850520        0.06808451982589       -1.34213615826067
C            2.49623261376255        1.02708900898358       -0.33706861368508
C            1.23530196972230        1.76960013755720       -0.14748348761490
C            1.24701995310467        3.15653675434358       -0.12461650573153
C            0.05393622753888        3.86613025583245        0.00907971208664
C            0.07238406007214        5.27932474846734        0.01182124967442
N            0.08816799506500        6.42665696989047        0.01372510479550
C           -1.15702287168298        3.18667183230861        0.13923299691483
C           -1.18025660229576        1.79999777047387        0.15578990252419
C           -2.45960594213921        1.08793805256546        0.33893303248929
C           -3.54333723736943        1.37633250382620       -0.48805006348434
C           -4.73954120922630        0.70602405141883       -0.33733962621244
C           -4.86755131410990       -0.26262929807647        0.65979770167397
C           -6.08891413498721       -0.95437795371403        0.81876726746743
N           -7.08252631085151       -1.51403032661520        0.94830113373737
C           -3.79278047896363       -0.54228274920508        1.50576582373045
C           -2.59972147095858        0.13119478042619        1.34266447211764
C            0.01865717006075        1.08717199100498        0.00292515953448
N           -0.00051192091468       -0.32213845405620       -0.00014131733227
C            0.61049045450979       -1.04405018119881        1.02907804527151
C            1.21274740750961       -0.42017568097881        2.11416676343649
C            1.81903368796005       -1.16477494234926        3.11474079584661
C            1.81916372657302       -2.54365236752718        3.05345511020128
C            1.18263636873542       -3.18212169349699        1.99878210443521
C            0.57447449090445       -2.44378916925908        1.00020161558445
O           -0.07353928581282       -3.14475154162233        0.01086738255889
C           -0.68246604286801       -2.41933306430033       -0.98547526999066
C           -1.32668528251238       -3.13266754658138       -1.97960523252599
C           -1.92763748686713       -2.46987593303597       -3.04013047445101
C           -1.85504233585171       -1.09341282734480       -3.11231192594678
C           -1.21274552956862       -0.37374916277227       -2.11601228980282
C           -0.64601273887777       -1.01998018411451       -1.02481541217705
C            3.59121335501878        1.29014433422081        0.48364084277600
C            4.77134506000970        0.59381127840950        0.32472936601708
H            3.87344706037647       -1.37340691094636       -2.29316856271848
H            1.77771757928074       -0.12016621550504       -2.00549718058298
H            2.17898135713748        3.68878330871948       -0.24247134471456
H           -2.07548842419829        3.74145871239025        0.25910979451551
H           -3.44069880438097        2.11926978188440       -1.26465137618939
H           -5.57686467245767        0.92238648240590       -0.98383941787884
H           -3.90176189553470       -1.28326857340339        2.28386950409531
H           -1.77701393024631       -0.07582660436853        2.01095094509818
H            1.19919567710197        0.65570684486982        2.18671842865412
H            2.28650920957405       -0.65457743934830        3.94267338540543
H            2.29450058459787       -3.12916480982197        3.82439689640974
H            1.14093278757979       -4.25810102179471        1.93601851537629
H           -1.34171517443968       -4.20881819996393       -1.90844112597972
H           -2.43173788043541       -3.03573305832093       -3.80745848589923
H           -2.29381316134505       -0.56604346671087       -3.94513238602383
H           -1.14354991014425        0.69958725471142       -2.19601749516758
H            3.51004765421799        2.03414328448337        1.26178767230004
H            5.61728169434711        0.79096201283277        0.96613828312387

          :  Hamiltonian                  GFN2-xTB          :
         :: gradient norm              0.000034979052 Eh/a0 ::
         :: HOMO-LUMO gap              1.624106946127 eV    ::
         :: SCC energy               -97.388189884138 Eh    ::
         :: -> dispersion             -0.086108603208 Eh    ::
         :: -> Gsolv                  -0.048209219670 Eh    ::
         :: repulsion energy           1.830919219144 Eh    ::

    * Orbital Energies and Occupations

         #    Occupation            Energy/Eh            Energy/eV
      -------------------------------------------------------------
         1        2.0000           -0.7390992             -20.1119
       ...           ...                  ...                  ...
        76        2.0000           -0.4383978             -11.9294
        77        2.0000           -0.4369405             -11.8898
        78        2.0000           -0.4360304             -11.8650
        79        2.0000           -0.4353303             -11.8459
        80        2.0000           -0.4350646             -11.8387
        81        2.0000           -0.4327503             -11.7757
        82        2.0000           -0.4319248             -11.7533
        83        2.0000           -0.4253527             -11.5744
        84        2.0000           -0.4233598             -11.5202
        85        2.0000           -0.4221693             -11.4878
        86        2.0000           -0.4184168             -11.3857
        87        2.0000           -0.4008905             -10.9088
        88        2.0000           -0.3555986              -9.6763 (HOMO)
        89                         -0.2959137              -8.0522 (LUMO)
        90                         -0.2932663              -7.9802
        91                         -0.2807049              -7.6384
        92                         -0.2538494              -6.9076
        93                         -0.2526988              -6.8763
        94                         -0.2523562              -6.8670
        95                         -0.2480403              -6.7495
        96                         -0.2396036              -6.5199
        97                         -0.2260056              -6.1499
        98                         -0.2234712              -6.0810
        99                         -0.2192743              -5.9668
       ...                                ...                  ...
       170                          1.1537803              31.3960
      -------------------------------------------------------------
                  HL-Gap            0.0596849 Eh            1.6241 eV

     #   Z          covCN         q      C6AA      α(0)
     1   7 N        0.911    -0.264    26.843     7.493
     2   6 C        1.912     0.119    28.168     8.571
     3   6 C        2.974     0.019    27.579     8.614
     4   6 C        2.925    -0.017    28.439     8.745
     5   6 C        2.922    -0.026    28.657     8.779
     6   6 C        2.978     0.023    27.481     8.599
     7   6 C        2.976     0.006    27.881     8.661
     8   6 C        2.930    -0.024    28.607     8.772
     9   6 C        2.969     0.018    27.610     8.619
    10   6 C        1.913     0.120    28.157     8.570
    11   7 N        0.911    -0.257    26.674     7.470
    12   6 C        2.930    -0.024    28.606     8.771
    13   6 C        2.976     0.006    27.882     8.661
    14   6 C        2.978     0.023    27.484     8.599
    15   6 C        2.923    -0.026    28.655     8.778
    16   6 C        2.925    -0.017    28.425     8.743
    17   6 C        2.974     0.019    27.579     8.614
    18   6 C        1.912     0.119    28.168     8.571
    19   7 N        0.911    -0.264    26.841     7.493
    20   6 C        2.925    -0.017    28.439     8.745
    21   6 C        2.922    -0.026    28.658     8.779
    22   6 C        2.926     0.062    26.621     8.461
    23   7 N        2.751    -0.065    22.501     7.045
    24   6 C        2.922     0.039    27.130     8.542
    25   6 C        2.924    -0.061    29.516     8.909
    26   6 C        2.919    -0.039    28.970     8.826
    27   6 C        2.919    -0.039    28.974     8.827
    28   6 C        2.920    -0.057    29.408     8.893
    29   6 C        2.882     0.123    25.296     8.245
    30   8 O        1.708    -0.269    18.456     5.800
    31   6 C        2.882     0.123    25.297     8.246
    32   6 C        2.920    -0.057    29.409     8.893
    33   6 C        2.919    -0.039    28.975     8.827
    34   6 C        2.919    -0.039    28.971     8.826
    35   6 C        2.924    -0.061    29.514     8.909
    36   6 C        2.922     0.039    27.132     8.542
    37   6 C        2.923    -0.026    28.654     8.778
    38   6 C        2.925    -0.017    28.425     8.743
    39   1 H        0.926     0.047     2.353     2.399
    40   1 H        0.926     0.047     2.355     2.400
    41   1 H        0.926     0.058     2.221     2.331
    42   1 H        0.926     0.058     2.222     2.331
    43   1 H        0.926     0.055     2.255     2.348
    44   1 H        0.926     0.052     2.298     2.371
    45   1 H        0.926     0.047     2.354     2.399
    46   1 H        0.926     0.047     2.358     2.402
    47   1 H        0.926     0.039     2.463     2.454
    48   1 H        0.926     0.044     2.394     2.420
    49   1 H        0.926     0.045     2.389     2.417
    50   1 H        0.926     0.050     2.321     2.382
    51   1 H        0.926     0.050     2.321     2.382
    52   1 H        0.926     0.045     2.390     2.417
    53   1 H        0.926     0.044     2.393     2.419
    54   1 H        0.926     0.039     2.465     2.455
    55   1 H        0.926     0.055     2.256     2.349
    56   1 H        0.926     0.052     2.299     2.371

molecular dipole:
                 x           y           z       tot (Debye)
 q only:        0.011       0.635       0.004
   full:        0.007       0.594       0.006       1.509

 projected vibrational frequencies (cm⁻¹)
eigval :       -0.00    -0.00     0.00     0.00     0.00     0.00
eigval :       15.09    17.53    25.65    26.55    39.70    47.65
eigval :       52.25    53.73    68.84    81.15    97.65   108.62
eigval :      115.74   125.16   128.27   140.59   148.48   152.02
eigval :      197.36   212.12   221.47   252.38   255.41   258.39
eigval :      275.07   276.36   307.35   311.55   364.17   366.56
eigval :      370.23   390.96   408.03   422.76   430.08   438.62
eigval :      446.72   454.10   480.48   506.77   507.04   509.97
eigval :      521.05   523.21   533.35   534.51   535.13   545.52
eigval :      548.98   580.96   583.00   598.34   606.92   613.33
eigval :      625.38   629.77   658.45   659.70   678.00   693.08
eigval :      693.52   712.84   729.54   772.26   776.56   780.24
eigval :      794.88   816.33   817.80   852.93   854.98   860.57
eigval :      865.22   865.97   867.82   868.88   882.65   885.96
eigval :      896.85   899.42   913.15   915.71   916.82   917.87
eigval :      918.90   928.79   929.52   936.85  1005.23  1013.04
eigval :     1062.21  1088.48  1089.95  1106.54  1119.09  1135.62
eigval :     1137.41  1166.87  1169.43  1172.58  1178.05  1181.06
eigval :     1186.47  1188.04  1196.06  1214.39  1223.66  1235.52
eigval :     1240.75  1251.15  1257.65  1264.45  1264.63  1297.31
eigval :     1298.42  1304.75  1311.44  1311.85  1333.21  1345.65
eigval :     1356.31  1389.08  1390.06  1412.10  1421.43  1431.45
eigval :     1442.73  1480.25  1481.55  1482.34  1500.93  1533.98
eigval :     1548.76  1550.82  1559.83  1567.58  1579.57  1587.69
eigval :     1587.76  1589.11  1601.58  2362.73  2364.34  2365.26
eigval :     3083.69  3084.94  3086.93  3087.22  3089.58  3090.03
eigval :     3094.70  3095.43  3096.05  3097.08  3097.79  3098.29
eigval :     3098.32  3098.46  3104.97  3106.21  3110.94  3111.70

   temp. (K)  partition function   enthalpy   heat capacity  entropy
                                   cal/mol     cal/K/mol   cal/K/mol   J/K/mol
 298.15  VIB  0.516E+14            17717.909    109.114    110.601
         ROT  0.292E+08              888.752      2.981     37.143
         INT  0.151E+22            18606.661    112.095    147.744
         TR   0.104E+29             1481.254      4.968     44.414
         TOT                       20087.9154   117.0630   192.1582   803.9898

       T/K    H(0)-H(T)+PV         H(T)/Eh          T*S/Eh         G(T)/Eh
   ------------------------------------------------------------------------
    298.15    0.320121E-01    0.435978E+00    0.913005E-01    0.344678E+00
   ------------------------------------------------------------------------

         :::::::::::::::::::::::::::::::::::::::::::::::::::::
         ::                  THERMODYNAMIC                  ::
         :::::::::::::::::::::::::::::::::::::::::::::::::::::
         :: total free energy         -95.212592922986 Eh   ::
         ::.................................................::
         :: total energy              -95.557270664286 Eh   ::
         :: zero point energy           0.403966157268 Eh   ::
         :: G(RRHO) w/o ZPVE           -0.059288415968 Eh   ::
         :: G(RRHO) contrib.            0.344677741300 Eh   ::
         :::::::::::::::::::::::::::::::::::::::::::::::::::::

           -------------------------------------------------
          | TOTAL ENERGY              -95.557270664286 Eh   |
          | TOTAL ENTHALPY            -95.121292376228 Eh   |
          | TOTAL FREE ENERGY         -95.212592922986 Eh   |
          | GRADIENT NORM               0.000034958980 Eh/α |
          | HOMO-LUMO GAP               1.624107886267 eV   |
           -------------------------------------------------

 * finished run on 2025/08/21 at 15:52:23.072
