   * xtb version 6.7.1 (edcfbbe) compiled by 'albert@albert-system' on 2024-07-22

   ID    Z sym.   atoms
    1    6 C      1-7, 9-20, 22-24, 26-33, 35-49, 51, 53-60, 62-77
    2    8 O      8, 34, 61
    3    7 N      21, 25, 50, 52
    4    1 H      78-127

          program call               : xtb data2507/toluene/DV-3CzCN/DV-3CzCN_toluene_S0_crest.xyz --gfn 2 --gbsa toluene --ohess vtight --parallel 40 --molden --ceasefiles --namespace data2507/toluene/DV-3CzCN/DV-3CzCN_toluene_S0_finalOpt
      * Solvation model:               GBSA
        Solvent                        toluene
        Solvent mass                       9.2140E+01 g/mol
          :  Hamiltonian                  GFN2-xTB          :
 * total energy  :  -199.3673877 Eh     change       -0.6940610E-08 Eh
 * total energy  :  -199.3675123 Eh     change       -0.1245773E-03 Eh
 * total energy  :  -199.3676278 Eh     change       -0.1155266E-03 Eh
 * total energy  :  -199.3676886 Eh     change       -0.6078974E-04 Eh
 * total energy  :  -199.3677828 Eh     change       -0.9424803E-04 Eh
 * total energy  :  -199.3678974 Eh     change       -0.1145945E-03 Eh
 * total energy  :  -199.3680121 Eh     change       -0.1146411E-03 Eh
 * total energy  :  -199.3681401 Eh     change       -0.1280261E-03 Eh
 * total energy  :  -199.3682877 Eh     change       -0.1476225E-03 Eh
 * total energy  :  -199.3684502 Eh     change       -0.1625218E-03 Eh
 * total energy  :  -199.3731703 Eh     change       -0.4527748E-06 Eh
 * total energy  :  -199.3731707 Eh     change       -0.4093305E-06 Eh
 * total energy  :  -199.3731711 Eh     change       -0.4360230E-06 Eh
 * total energy  :  -199.3731715 Eh     change       -0.3268730E-06 Eh
 * total energy  :  -199.3731718 Eh     change       -0.2922624E-06 Eh
 * total energy  :  -199.3731721 Eh     change       -0.3044038E-06 Eh
 * total energy  :  -199.3731723 Eh     change       -0.2572799E-06 Eh
 * total energy  :  -199.3731726 Eh     change       -0.2256683E-06 Eh
 * total energy  :  -199.3731726 Eh     change       -0.3939391E-08 Eh
   *** GEOMETRY OPTIMIZATION CONVERGED AFTER 300 ITERATIONS ***

 final structure:
================
127
 xtb: 6.7.1 (edcfbbe)
C          -11.64225422280738       -1.12133791175536        5.56639536351421
C          -10.79152676701692       -1.53307890339073        4.63345809565562
C          -10.47357879326094       -0.85717579961556        3.38069744160986
C           -9.65364158336529       -1.50229949579918        2.45329217906925
C           -9.33110789440505       -0.90992601130637        1.24817209189822
C           -9.80571763308339        0.35769215472032        0.93966822102506
C           -9.47617891664387        1.01439645657250       -0.37912811414761
O           -8.30345212269807        0.52818584889638       -1.00037479094234
C           -7.09628011698770        0.79184531621533       -0.43064807356440
C           -6.89414454744851        1.49100523363099        0.75088326942870
C           -5.61084091801724        1.68601444308953        1.25279715056774
C           -4.48576104318294        1.22013657316400        0.60210137056422
C           -4.67587658496586        0.54315098239725       -0.59536983477472
C           -5.96777945050245        0.30631291928498       -1.10447687466059
C           -5.81077098629823       -0.46814381373559       -2.30386720530446
C           -6.70827593117184       -0.97425918067491       -3.23501047911220
C           -6.21136384451124       -1.66961575735264       -4.32034039555160
C           -4.84087212060238       -1.84638767614667       -4.49095757425452
C           -3.93121153377498       -1.35044622400718       -3.57482099990462
C           -4.42393699552666       -0.67868243517841       -2.46693256773732
N           -3.74407148306812       -0.05819129743838       -1.42898328518481
C           -2.36498447590023       -0.04948667252044       -1.24544796183571
C           -1.71231211751055        1.14032256376408       -0.92334724995315
C           -0.34060616619340        1.16151307405922       -0.71868944720834
N            0.30811492928207        2.35999584209246       -0.42489282201868
C            0.24454085323376        3.52059343729332       -1.18141238752535
C           -0.48807864296741        3.79181512100646       -2.32620492610153
C           -0.34169417536641        5.04033680543890       -2.90370138568620
C            0.51766136268519        5.99371904062781       -2.36386144372421
C            1.26623478781633        5.72014477533181       -1.23542023158332
C            1.13434748196834        4.47329921725099       -0.63796296119930
C            1.75146830091062        3.85446354265202        0.50225246882976
C            2.69982250697529        4.29792112508662        1.43344131149514
O            3.18330589139950        5.55773864535020        1.25849073146607
C            4.20164271519842        6.02431289330123        2.12285967152637
C            5.50524766255934        5.27207499348270        2.00299426244645
C            6.38719867560751        5.21957953777716        3.07666813550958
C            7.58574125142440        4.54339300980321        2.97211463983124
C            7.93919739981805        3.88834681388783        1.79069455755197
C            9.18802579620055        3.15252184296043        1.62828639468579
C           10.17504521902566        3.05243507582756        2.51115573532868
C            7.04584369656391        3.94727971643619        0.71957863530093
C            5.85166868022981        4.63310349607084        0.81987527549714
C            3.06220817587675        3.42863730565194        2.45280695144069
C            2.49038077188058        2.16407357967052        2.55276505479288
C            1.56134778941487        1.70566619291126        1.64177699240568
C            1.21960918579613        2.55475852125142        0.59933318171182
C            0.40092307125921       -0.02814695777510       -0.84525614857194
C            1.80910713095045       -0.00094243620642       -0.80537559453778
N            2.95627732929261        0.02476269485128       -0.85252719681777
C           -0.26440611112695       -1.23280893493116       -1.14306930879940
N            0.46917343632690       -2.41828796574423       -1.22745757572718
C            0.57481995145187       -3.23352586671506       -2.34222233827778
C           -0.06227671127269       -3.13906801544291       -3.56848609076228
C            0.24444503611224       -4.08426495130040       -4.53024888155168
C            1.17041998787333       -5.09447280790283       -4.28287405932181
C            1.82621782408648       -5.17913331588681       -3.06968945731887
C            1.53277870565898       -4.24020838736182       -2.08920253212521
C            2.02001519974278       -4.01479366324539       -0.75680639828114
C            2.96973451400640       -4.66900171881092        0.03883761325188
O            3.61357778847057       -5.72663828977773       -0.52612333114202
C            4.66855052845094       -6.34406118408519        0.18551445434254
C            5.84658223068135       -5.43973021530555        0.45988678778748
C            6.08963772742421       -4.32028175703900       -0.32580170127726
C            7.15630203396852       -3.48676742659400       -0.05355467150743
C            8.02526933627388       -3.75745540751141        1.00322144602256
C            9.15336479686207       -2.89443386184052        1.33914000908412
C            9.31296422430894       -1.63274383493841        0.95831751586076
C            7.79535805380117       -4.90600715625044        1.76346512557570
C            6.71682411671407       -5.72776431413688        1.50488791903454
C            3.17647037711436       -4.19148728977600        1.32547607078249
C            2.46181969421838       -3.09954465040233        1.80859808334147
C            1.53686777924254       -2.42969339204282        1.03493142889441
C            1.34279720298858       -2.88500924228040       -0.26085978100028
C           -1.63438043307288       -1.23424428818360       -1.35040735350259
C          -10.61755414287546        1.01282777909768        1.85928428993213
C          -10.94927437456291        0.41546126013743        3.05806565356311
H          -12.20419735225292       -0.20684487172694        5.48268598085904
H          -11.81248480632496       -1.69759124117569        6.46004238247841
H          -10.26905799197531       -2.47123190729151        4.77982089974700
H           -9.26967363798914       -2.48731314085848        2.67887666993291
H           -8.70034635032452       -1.42999067800435        0.54134130689804
H          -10.27035511832716        0.79220055887215       -1.10258852450603
H           -9.42179710308080        2.10505910761339       -0.25889004888426
H           -7.73126387631133        1.87274888746498        1.31235493247755
H           -5.49787966719478        2.21726702905176        2.18599267486028
H           -3.50505447548686        1.36542873857242        1.02551502158456
H           -7.76679406289716       -0.81383548102741       -3.10492355284371
H           -6.89150663257011       -2.07419962018313       -5.05522807757964
H           -4.47809076627949       -2.37752184570414       -5.35857038606143
H           -2.87164706486272       -1.47497631123709       -3.73244897158098
H           -2.27331654654091        2.05727260301060       -0.83943730185258
H           -1.14425067968964        3.05496202584175       -2.76428048335911
H           -0.90491038047424        5.27759816583995       -3.79420499292416
H            0.60394530374017        6.95776264419728       -2.84293642897733
H            1.94497510629897        6.44739103165369       -0.81870792739982
H            3.85215957658310        6.02148246908034        3.16434689475022
H            4.34969622100351        7.06699636595064        1.81663673338918
H            6.12890303457334        5.71356512912422        4.00322429940508
H            8.24872675914857        4.51675750513871        3.82272701851711
H            9.28925271409389        2.65316675360905        0.67193062381237
H           10.14636433319303        3.52666055533406        3.47723437967311
H           11.06414533297321        2.48550285533871        2.29272252073970
H            7.29236559514047        3.44826726831268       -0.20703090400142
H            5.17554311956621        4.66640722017182       -0.02254234225080
H            3.79931409508952        3.71771588382726        3.18371433833239
H            2.78975746565662        1.52457774373300        3.36940850740884
H            1.12593729161827        0.72442946957731        1.74277566797970
H           -0.76549342510496       -2.34697135229426       -3.77447591430811
H           -0.24180305874800       -4.03423989623242       -5.49332647418454
H            1.38304082487020       -5.81583970770501       -5.05800084646233
H            2.55607119491315       -5.94930556351188       -2.87588947374196
H            4.97980146979593       -7.16828038847949       -0.46751848204862
H            4.29578926212122       -6.77660021457465        1.12441112390009
H            5.43045566750253       -4.09432922047580       -1.15181795617926
H            7.31930091868846       -2.62233014774201       -0.67826830349445
H            9.89628072020266       -3.35037072623022        1.98295328288064
H            8.59226823311434       -1.11738210225173        0.34633940214658
H           10.17305143205589       -1.06013733471901        1.26131660473971
H            8.46270821503211       -5.14391026610569        2.57988548672247
H            6.54559437337782       -6.60199789392418        2.11755471729414
H            3.90301242912494       -4.65588283788251        1.97180476983696
H            2.64545149728162       -2.76834300765632        2.81968087710887
H            0.98788591951144       -1.58834300897580        1.42768637520789
H           -2.13858858040263       -2.16591313180800       -1.55287277098201
H          -10.99103144552539        2.00133875645035        1.63048831574873
H          -11.57724839982063        0.94908026996109        3.75429866898551

          :  Hamiltonian                  GFN2-xTB          :
         :: gradient norm              0.000103043401 Eh/a0 ::
         :: HOMO-LUMO gap              2.164564878843 eV    ::
         :: SCC energy              -202.952310795623 Eh    ::
         :: -> dispersion             -0.180536752524 Eh    ::
         :: -> Gsolv                  -0.085026592803 Eh    ::
         :: repulsion energy           3.579138236444 Eh    ::

    * Orbital Energies and Occupations

         #    Occupation            Energy/Eh            Energy/eV
      -------------------------------------------------------------
         1        2.0000           -0.7212208             -19.6254
       ...           ...                  ...                  ...
       172        2.0000           -0.4059778             -11.0472
       173        2.0000           -0.4017332             -10.9317
       174        2.0000           -0.4006008             -10.9009
       175        2.0000           -0.3997420             -10.8775
       176        2.0000           -0.3849119             -10.4740
       177        2.0000           -0.3828046             -10.4166
       178        2.0000           -0.3823932             -10.4054
       179        2.0000           -0.3800362             -10.3413
       180        2.0000           -0.3791141             -10.3162
       181        2.0000           -0.3781582             -10.2902
       182        2.0000           -0.3694160             -10.0523
       183        2.0000           -0.3688765             -10.0376
       184        2.0000           -0.3668201              -9.9817 (HOMO)
       185                         -0.2872737              -7.8171 (LUMO)
       186                         -0.2617511              -7.1226
       187                         -0.2543277              -6.9206
       188                         -0.2522090              -6.8630
       189                         -0.2498773              -6.7995
       190                         -0.2479135              -6.7461
       191                         -0.2468431              -6.7169
       192                         -0.2454597              -6.6793
       193                         -0.2263574              -6.1595
       194                         -0.2250860              -6.1249
       195                         -0.2242399              -6.1019
       ...                                ...                  ...
       358                          1.1535089              31.3886
      -------------------------------------------------------------
                  HL-Gap            0.0795464 Eh            2.1646 eV

     #   Z          covCN         q      C6AA      α(0)
     1   6 C        2.837    -0.086    30.145     8.998
     2   6 C        2.895    -0.031    28.774     8.795
     3   6 C        2.970     0.013    27.721     8.636
     4   6 C        2.928    -0.035    28.870     8.812
     5   6 C        2.920    -0.031    28.785     8.798
     6   6 C        2.968    -0.002    28.064     8.689
     7   6 C        3.698     0.077    19.460     6.310
     8   8 O        1.705    -0.279    18.627     5.827
     9   6 C        2.856     0.142    24.898     8.178
    10   6 C        2.917    -0.077    29.927     8.971
    11   6 C        2.925    -0.034    28.851     8.809
    12   6 C        2.909    -0.063    29.579     8.918
    13   6 C        3.066     0.044    26.942     8.511
    14   6 C        3.070    -0.037    28.849     8.807
    15   6 C        3.066    -0.008    28.141     8.699
    16   6 C        2.912    -0.033    28.823     8.804
    17   6 C        2.920    -0.039    28.973     8.827
    18   6 C        2.923    -0.034    28.842     8.807
    19   6 C        2.910    -0.050    29.247     8.868
    20   6 C        3.067     0.043    26.971     8.516
    21   7 N        2.804    -0.034    21.896     6.950
    22   6 C        2.909     0.076    26.304     8.410
    23   6 C        2.924    -0.065    29.620     8.925
    24   6 C        2.914     0.076    26.313     8.412
    25   7 N        2.805    -0.050    22.201     6.998
    26   6 C        3.068     0.045    26.924     8.508
    27   6 C        2.910    -0.053    29.305     8.877
    28   6 C        2.924    -0.034    28.853     8.809
    29   6 C        2.920    -0.040    28.990     8.829
    30   6 C        2.913    -0.033    28.832     8.805
    31   6 C        3.068    -0.008    28.157     8.701
    32   6 C        3.069    -0.038    28.877     8.811
    33   6 C        2.857     0.142    24.903     8.179
    34   8 O        1.704    -0.279    18.632     5.828
    35   6 C        3.698     0.076    19.468     6.311
    36   6 C        2.968    -0.002    28.070     8.690
    37   6 C        2.921    -0.041    29.020     8.834
    38   6 C        2.923    -0.033    28.824     8.804
    39   6 C        2.970     0.013    27.711     8.635
    40   6 C        2.895    -0.030    28.756     8.792
    41   6 C        2.837    -0.086    30.140     8.997
    42   6 C        2.928    -0.034    28.849     8.808
    43   6 C        2.920    -0.031    28.773     8.796
    44   6 C        2.918    -0.078    29.940     8.973
    45   6 C        2.926    -0.034    28.843     8.807
    46   6 C        2.909    -0.060    29.499     8.906
    47   6 C        3.070     0.048    26.844     8.495
    48   6 C        2.975    -0.019    28.484     8.754
    49   6 C        1.910     0.134    27.838     8.521
    50   7 N        0.911    -0.280    27.233     7.547
    51   6 C        2.916     0.076    26.310     8.411
    52   7 N        2.805    -0.052    22.248     7.005
    53   6 C        3.071     0.046    26.906     8.505
    54   6 C        2.910    -0.052    29.283     8.873
    55   6 C        2.924    -0.034    28.855     8.809
    56   6 C        2.920    -0.040    28.999     8.831
    57   6 C        2.913    -0.033    28.831     8.805
    58   6 C        3.068    -0.009    28.168     8.703
    59   6 C        3.070    -0.038    28.878     8.811
    60   6 C        2.857     0.142    24.897     8.178
    61   8 O        1.705    -0.280    18.642     5.829
    62   6 C        3.698     0.076    19.463     6.310
    63   6 C        2.968    -0.002    28.077     8.691
    64   6 C        2.921    -0.031    28.763     8.795
    65   6 C        2.923    -0.033    28.818     8.803
    66   6 C        2.971     0.013    27.709     8.634
    67   6 C        2.895    -0.031    28.784     8.796
    68   6 C        2.838    -0.085    30.128     8.995
    69   6 C        2.927    -0.035    28.871     8.812
    70   6 C        2.921    -0.042    29.032     8.836
    71   6 C        2.918    -0.078    29.938     8.973
    72   6 C        2.926    -0.034    28.849     8.808
    73   6 C        2.909    -0.061    29.517     8.909
    74   6 C        3.073     0.049    26.830     8.493
    75   6 C        2.922    -0.063    29.576     8.918
    76   6 C        2.921    -0.041    29.022     8.834
    77   6 C        2.923    -0.033    28.819     8.804
    78   1 H        0.926     0.042     2.425     2.435
    79   1 H        0.926     0.039     2.460     2.453
    80   1 H        0.925     0.036     2.505     2.475
    81   1 H        0.926     0.035     2.513     2.479
    82   1 H        0.926     0.036     2.509     2.477
    83   1 H        0.924     0.063     2.168     2.303
    84   1 H        0.923     0.041     2.441     2.443
    85   1 H        0.926     0.038     2.474     2.460
    86   1 H        0.926     0.039     2.456     2.451
    87   1 H        0.926     0.035     2.515     2.480
    88   1 H        0.926     0.044     2.400     2.423
    89   1 H        0.926     0.034     2.535     2.490
    90   1 H        0.926     0.036     2.509     2.477
    91   1 H        0.926     0.030     2.587     2.515
    92   1 H        0.926     0.067     2.113     2.273
    93   1 H        0.926     0.031     2.574     2.509
    94   1 H        0.926     0.036     2.498     2.471
    95   1 H        0.926     0.035     2.518     2.482
    96   1 H        0.926     0.044     2.398     2.421
    97   1 H        0.923     0.041     2.440     2.443
    98   1 H        0.924     0.063     2.159     2.298
    99   1 H        0.925     0.034     2.537     2.491
   100   1 H        0.926     0.043     2.411     2.428
   101   1 H        0.925     0.037     2.491     2.468
   102   1 H        0.926     0.041     2.429     2.437
   103   1 H        0.926     0.039     2.457     2.451
   104   1 H        0.926     0.036     2.507     2.476
   105   1 H        0.926     0.034     2.533     2.489
   106   1 H        0.926     0.040     2.447     2.446
   107   1 H        0.926     0.039     2.459     2.452
   108   1 H        0.926     0.021     2.712     2.575
   109   1 H        0.926     0.027     2.624     2.533
   110   1 H        0.926     0.036     2.497     2.471
   111   1 H        0.926     0.035     2.523     2.484
   112   1 H        0.926     0.043     2.405     2.425
   113   1 H        0.924     0.063     2.160     2.298
   114   1 H        0.923     0.041     2.439     2.442
   115   1 H        0.926     0.033     2.539     2.492
   116   1 H        0.926     0.040     2.450     2.448
   117   1 H        0.925     0.038     2.477     2.461
   118   1 H        0.926     0.042     2.428     2.437
   119   1 H        0.926     0.041     2.441     2.443
   120   1 H        0.926     0.038     2.471     2.458
   121   1 H        0.926     0.033     2.542     2.493
   122   1 H        0.926     0.039     2.459     2.452
   123   1 H        0.926     0.039     2.465     2.455
   124   1 H        0.926     0.020     2.729     2.583
   125   1 H        0.926     0.067     2.124     2.279
   126   1 H        0.926     0.033     2.540     2.492
   127   1 H        0.926     0.042     2.420     2.433

molecular dipole:
                 x           y           z       tot (Debye)
 q only:       -1.025       0.168       0.942
   full:       -1.407       0.205       1.241       4.797

 projected vibrational frequencies (cm⁻¹)
eigval :       -0.00    -0.00     0.00     0.00     0.00     0.00
eigval :      -33.47     5.63     8.01    10.68    13.51    15.53
eigval :       17.94    19.99    22.43    24.39    25.53    28.55
eigval :       30.20    33.63    35.59    39.63    43.65    47.07
eigval :       53.73    59.54    67.82    75.29    82.34    88.52
eigval :       94.43    99.73   106.02   108.31   112.82   113.86
eigval :      115.79   118.91   124.81   127.41   131.66   138.15
eigval :      149.78   157.29   168.05   169.96   175.88   202.07
eigval :      206.78   208.82   218.33   236.98   244.21   246.78
eigval :      248.06   250.87   254.84   258.63   262.21   269.97
eigval :      271.93   287.85   301.34   302.00   302.96   310.90
eigval :      313.71   315.58   325.63   332.69   337.61   354.09
eigval :      368.68   370.68   371.28   371.63   391.26   403.02
eigval :      403.34   406.64   408.64   411.01   415.77   417.45
eigval :      420.54   430.37   435.37   437.56   441.58   481.74
eigval :      483.17   488.43   495.53   501.09   503.90   507.62
eigval :      520.70   531.48   532.10   534.59   537.28   538.50
eigval :      539.27   540.14   540.68   542.19   555.39   562.09
eigval :      573.17   579.76   581.04   586.19   598.62   599.83
eigval :      604.79   607.68   610.43   611.62   617.54   619.99
eigval :      622.35   625.37   637.49   651.19   658.22   667.39
eigval :      668.61   669.56   672.42   676.16   691.01   695.14
eigval :      697.10   699.96   704.18   705.99   706.32   711.79
eigval :      729.42   737.62   741.91   743.49   747.04   763.29
eigval :      770.45   774.48   775.84   779.20   779.98   785.16
eigval :      786.44   800.71   807.73   810.40   812.63   834.15
eigval :      843.11   846.51   851.58   852.14   853.76   854.53
eigval :      857.00   862.55   864.75   865.24   868.91   870.84
eigval :      871.26   882.98   887.72   889.07   893.02   896.64
eigval :      898.57   901.94   906.02   906.37   908.46   911.24
eigval :      911.77   914.21   915.24   919.73   920.90   923.54
eigval :      925.46   926.73   927.34   930.57   945.56   950.45
eigval :      973.91   987.82   988.40   994.69  1002.15  1002.46
eigval :     1002.60  1009.06  1011.50  1012.02  1016.43  1017.59
eigval :     1020.67  1031.85  1035.10  1037.89  1045.10  1053.22
eigval :     1065.45  1069.65  1070.88  1085.45  1097.37  1113.80
eigval :     1119.30  1122.10  1122.86  1131.31  1136.75  1146.24
eigval :     1148.38  1148.57  1151.45  1167.76  1173.74  1176.82
eigval :     1179.54  1186.77  1191.94  1193.45  1194.76  1195.17
eigval :     1197.41  1199.78  1200.72  1202.02  1202.91  1204.16
eigval :     1211.24  1212.36  1212.57  1221.47  1227.57  1229.48
eigval :     1243.42  1246.04  1246.75  1248.61  1252.99  1255.52
eigval :     1262.23  1273.00  1273.91  1274.03  1285.51  1289.21
eigval :     1291.27  1293.04  1294.96  1295.61  1298.07  1301.61
eigval :     1308.24  1308.99  1318.13  1320.87  1322.22  1331.49
eigval :     1335.88  1337.80  1338.36  1339.86  1357.07  1357.69
eigval :     1358.98  1363.66  1366.68  1367.52  1392.09  1403.93
eigval :     1405.43  1408.39  1409.34  1409.64  1415.67  1416.02
eigval :     1417.06  1418.82  1419.96  1420.09  1439.38  1445.35
eigval :     1446.59  1447.82  1449.77  1460.73  1475.14  1475.54
eigval :     1477.34  1489.76  1490.40  1490.83  1491.62  1492.72
eigval :     1493.38  1517.02  1553.57  1571.54  1571.57  1571.61
eigval :     1574.83  1575.41  1576.36  1586.17  1589.13  1590.12
eigval :     1590.36  1592.17  1593.14  1599.36  1599.71  1600.46
eigval :     1605.57  1605.71  1607.56  1673.70  1673.70  1674.91
eigval :     2350.70  2878.80  2884.02  2885.90  2926.68  2928.64
eigval :     2928.73  3040.12  3040.30  3043.52  3064.03  3066.02
eigval :     3067.96  3068.82  3069.57  3075.85  3076.32  3076.54
eigval :     3077.16  3079.40  3081.93  3082.84  3082.93  3082.96
eigval :     3083.53  3084.74  3085.88  3086.50  3091.41  3093.32
eigval :     3094.91  3096.03  3096.15  3096.55  3099.01  3099.43
eigval :     3103.19  3104.80  3106.40  3106.81  3107.10  3107.12
eigval :     3107.91  3112.52  3114.65  3115.80  3116.00  3117.54
eigval :     3126.40  3126.68  3128.11

   temp. (K)  partition function   enthalpy   heat capacity  entropy
                                   cal/mol     cal/K/mol   cal/K/mol   J/K/mol
 298.15  VIB  0.467E+33            38653.837    234.473    244.572
         ROT  0.394E+09              888.752      2.981     42.310
         INT  0.184E+42            39542.589    237.454    286.882
         TR   0.304E+29             1481.254      4.968     46.546
         TOT                       41023.8434   242.4217   333.4284  1395.0644

       T/K    H(0)-H(T)+PV         H(T)/Eh          T*S/Eh         G(T)/Eh
   ------------------------------------------------------------------------
    298.15    0.653757E-01    0.104096E+01    0.158423E+00    0.882537E+00
   ------------------------------------------------------------------------

         :::::::::::::::::::::::::::::::::::::::::::::::::::::
         ::                  THERMODYNAMIC                  ::
         :::::::::::::::::::::::::::::::::::::::::::::::::::::
         :: total free energy        -198.490635861824 Eh   ::
         ::.................................................::
         :: total energy             -199.373172557273 Eh   ::
         :: zero point energy           0.975583627786 Eh   ::
         :: G(RRHO) w/o ZPVE           -0.093046932337 Eh   ::
         :: G(RRHO) contrib.            0.882536695449 Eh   ::
         :::::::::::::::::::::::::::::::::::::::::::::::::::::

           -------------------------------------------------
          | TOTAL ENERGY             -199.373172557273 Eh   |
          | TOTAL ENTHALPY           -198.332213273662 Eh   |
          | TOTAL FREE ENERGY        -198.490635861824 Eh   |
          | GRADIENT NORM               0.000103224963 Eh/α |
          | HOMO-LUMO GAP               2.164567077090 eV   |
           -------------------------------------------------

 * finished run on 2025/07/21 at 00:18:29.521
