   * xtb version 6.7.1 (edcfbbe) compiled by 'albert@albert-system' on 2024-07-22

   ID    Z sym.   atoms
    1    6 C      1-7, 9-20, 22-24, 26-33, 35-49, 51, 53-60, 62-77
    2    8 O      8, 34, 61
    3    7 N      21, 25, 50, 52
    4    1 H      78-127

          program call               : xtb data2507/toluene/DV-3CzCN/DV-3CzCN_toluene_T1_crest.xyz --gfn 2 --uhf 2 --gbsa toluene --ohess vtight --parallel 40 --molden --ceasefiles --namespace data2507/toluene/DV-3CzCN/DV-3CzCN_toluene_T1_finalOpt
      * Solvation model:               GBSA
        Solvent                        toluene
        Solvent mass                       9.2140E+01 g/mol
          :  Hamiltonian                  GFN2-xTB          :
 * total energy  :  -199.2776769 Eh     change       -0.4472838E-08 Eh
 * total energy  :  -199.2778315 Eh     change       -0.1545935E-03 Eh
 * total energy  :  -199.2779533 Eh     change       -0.1217823E-03 Eh
 * total energy  :  -199.2780163 Eh     change       -0.6295923E-04 Eh
 * total energy  :  -199.2780992 Eh     change       -0.8288221E-04 Eh
 * total energy  :  -199.2781781 Eh     change       -0.7889084E-04 Eh
 * total energy  :  -199.2782491 Eh     change       -0.7109004E-04 Eh
 * total energy  :  -199.2783209 Eh     change       -0.7179907E-04 Eh
 * total energy  :  -199.2784012 Eh     change       -0.8029913E-04 Eh
 * total energy  :  -199.2784860 Eh     change       -0.8477106E-04 Eh
 * total energy  :  -199.2825905 Eh     change       -0.2717908E-06 Eh
 * total energy  :  -199.2825908 Eh     change       -0.2872258E-06 Eh
 * total energy  :  -199.2825911 Eh     change       -0.2627988E-06 Eh
 * total energy  :  -199.2825914 Eh     change       -0.2773079E-06 Eh
 * total energy  :  -199.2825917 Eh     change       -0.3471360E-06 Eh
 * total energy  :  -199.2825921 Eh     change       -0.4312307E-06 Eh
 * total energy  :  -199.2825926 Eh     change       -0.4880080E-06 Eh
 * total energy  :  -199.2825930 Eh     change       -0.3963901E-06 Eh
 * total energy  :  -199.2825930 Eh     change       -0.6191016E-08 Eh
   *** GEOMETRY OPTIMIZATION CONVERGED AFTER 380 ITERATIONS ***

 final structure:
================
127
 xtb: 6.7.1 (edcfbbe)
C          -11.40227558748767       -0.83148986933168        5.72537197547245
C          -10.73842664896936       -1.40224115760118        4.72655332405128
C          -10.44038741606100       -0.81509322712709        3.42532621846696
C           -9.65016415720812       -1.53214823080998        2.52499853504027
C           -9.34056741948758       -1.02219659780216        1.27960928239636
C           -9.80620610922096        0.22889238646040        0.89796877530252
C           -9.49436952443046        0.79022326288734       -0.46831374637522
O           -8.31658168826856        0.27231415135989       -1.05610135654396
C           -7.11193081517658        0.59664862811836       -0.52400615212241
C           -6.91293928650842        1.40107209547651        0.59587691373998
C           -5.63058785596028        1.66649547507655        1.06876989597295
C           -4.50107304565510        1.16778000156799        0.44641345685691
C           -4.68602659024911        0.38410297174515       -0.68672897093956
C           -5.98139103663615        0.07295209816073       -1.16295544396090
C           -5.80985043184542       -0.79847617147808       -2.28593622816337
C           -6.69075495789497       -1.42693371605147       -3.15652573633410
C           -6.17222949411496       -2.19734366644807       -4.17966990099183
C           -4.79282219808434       -2.33274685875583       -4.35468984632695
C           -3.89849724568092       -1.72119087243857       -3.49927270666523
C           -4.40866715430659       -0.96770289718209       -2.44817037310933
N           -3.74545505993655       -0.24600227244907       -1.48010665061816
C           -2.36488863461969       -0.16964523939323       -1.31578468087386
C           -1.73619821001232        1.07928010523117       -1.09719361561291
C           -0.38888678564081        1.16453008657212       -0.89188709463336
N            0.23798023416306        2.40977763835285       -0.72476744454446
C            0.22621597368706        3.44794253672776       -1.62787302689905
C           -0.44680848847984        3.55864903400067       -2.83835182257522
C           -0.27465383632770        4.71991202259376       -3.56585874204315
C            0.54941857989469        5.74845075866318       -3.10806404341703
C            1.23509104119978        5.63844293498964       -1.91260708319251
C            1.07928615698151        4.48030477557661       -1.16369342815269
C            1.62544703868695        4.02119558381077        0.08205637995020
C            2.52075132569394        4.57903452363257        1.00164691314459
O            3.02407729652216        5.80224631724784        0.70146486427132
C            3.98801914905976        6.38153018886470        1.56107440461102
C            5.29150027158088        5.62256939240241        1.63275563060963
C            6.11364459324463        5.75174433506708        2.74693355460699
C            7.31118406937654        5.07015083469154        2.82204670504655
C            7.72241548895592        4.22729252849844        1.78753516170802
C            8.97187136445963        3.47529121103284        1.82041718975632
C            9.94079261784275        3.58096432127537        2.72235136712561
C            6.88795727539777        4.10331508848974        0.67543427692397
C            5.69658745328450        4.79664834196471        0.59283488437903
C            2.81822212867612        3.84251229362603        2.14696399526266
C            2.24160046657673        2.59749256793680        2.37011958795141
C            1.36272142251290        2.02610773402471        1.47051219844935
C            1.08002977630518        2.74126707278909        0.31404520392265
C            0.44114398203149       -0.01839076782188       -0.89666891224638
C            1.81283002569838        0.06475442882605       -0.88762273498360
N            2.97670364726114        0.13000831044673       -0.88550383218058
C           -0.23087732647435       -1.28423335087299       -1.08833250045861
N            0.54880055774361       -2.45100580924907       -1.07351227489960
C            0.69292287200380       -3.34433992380315       -2.10995645269482
C            0.08085636325391       -3.35680061846259       -3.35644904500629
C            0.41691367416555       -4.37148407704591       -4.23067598168826
C            1.34541753194662       -5.35171151174187       -3.87993398475560
C            1.97527404460639       -5.33417702980742       -2.64904795730593
C            1.65403821693235       -4.32303400020562       -1.75439958550125
C            2.10419424823889       -3.98243749831069       -0.43423665275414
C            3.04593417473458       -4.54597098011598        0.43345094713051
O            3.71713249263301       -5.63525445687413       -0.01633331237011
C            4.75257548846069       -6.18505024059433        0.77655209011746
C            5.92368585006612       -5.25810627669721        1.00071214081373
C            6.18418192576540       -4.20719793431911        0.13062197626848
C            7.24763093426410       -3.35523782411115        0.35442330830697
C            8.09490083771937       -3.53843641932560        1.44708547859761
C            9.22050189132457       -2.65424660393434        1.73166753810690
C            9.40377494537226       -1.43668580538810        1.23532468770206
C            7.84587824941318       -4.61906878862853        2.29593701945271
C            6.77129666939064       -5.45903186328206        2.08406952443588
C            3.21776440822540       -3.94871285425021        1.68124987198882
C            2.47870277016537       -2.83076756533291        2.05053015019063
C            1.55518329550304       -2.25113713779547        1.20231989457644
C            1.39410107411374       -2.82531877394710       -0.05191624373184
C           -1.57750095144869       -1.34462700254478       -1.30817584019888
C          -10.59540063559543        0.95169862489683        1.78586215605568
C          -10.91034001187566        0.43828055046957        3.02734438063743
H          -11.80226143919863        0.16636759883729        5.66753671761081
H          -11.56934082675769       -1.35157183983893        6.65338847505308
H          -10.35759236654961       -2.40804663376813        4.86015038402445
H           -9.27474591979319       -2.50581064216271        2.80712185114148
H           -8.72964713858464       -1.59523691842049        0.59665859830556
H          -10.28784398836078        0.50230190330408       -1.16874556354675
H           -9.45413061952027        1.88705788844177       -0.43187240782079
H           -7.75474239150648        1.81003926192446        1.13035497149897
H           -5.52211915780110        2.27577831397190        1.95313506216845
H           -3.51753365163244        1.36457810491284        0.84160800201048
H           -7.75479531534735       -1.30329729497924       -3.02996502979826
H           -6.84048633011733       -2.69563371968373       -4.86637546721012
H           -4.41935811563597       -2.92353760499015       -5.17775838328151
H           -2.83508618491408       -1.81431416592601       -3.65222547674640
H           -2.33039035927686        1.98024051786227       -1.11788765813540
H           -1.07464334068705        2.75887011932028       -3.20110847660361
H           -0.78616128428810        4.83323767049512       -4.51021685538315
H            0.65637211605197        6.64192816141106       -3.70516232493870
H            1.88254634562878        6.42611086119868       -1.56069095186008
H            3.57010062506168        6.51762073218082        2.56765309746748
H            4.16378061351487        7.37365941420745        1.12826937670155
H            5.80801687805954        6.39154601891676        3.56313134998477
H            7.92570399108912        5.18353261055026        3.70142827726942
H            9.09213405136360        2.77586466730634        1.00169664413621
H            9.89436773789733        4.26494470221223        3.55247650321126
H           10.83221810844001        2.98036906030421        2.65708678173501
H            7.17864510734417        3.45508684767725       -0.13913960002644
H            5.06969300649826        4.68694145137704       -0.28062802412560
H            3.51223856487209        4.22618107307207        2.87661860409836
H            2.49425050935989        2.06505571570447        3.27453784709295
H            0.92008602936099        1.06096969533110        1.65626518416798
H           -0.62310869814739       -2.58792842296025       -3.63484191125170
H           -0.04522596792354       -4.40526625555273       -5.20610859620723
H            1.58026425586876       -6.13152835529426       -4.58907503826005
H            2.70514722072042       -6.08138165173469       -2.38000718655293
H            5.08082947025828       -7.06296425364831        0.20736304780861
H            4.35368124658351       -6.53295284521507        1.73922113832139
H            5.54304144191237       -4.04847583926603       -0.72483609482943
H            7.42389654451501       -2.54562741969161       -0.33660737043840
H            9.94014739220284       -3.05046840196046        2.43830033593111
H            8.70693331739062       -0.97912019002918        0.55367572149333
H           10.26049648506597       -0.84351606979127        1.50696963646152
H            8.49544359427506       -4.78840204974465        3.14317114016583
H            6.58571818543570       -6.27931670517986        2.76330699759740
H            3.93857194977094       -4.34251743985964        2.37883688741115
H            2.63853062174498       -2.40597748632636        3.02992825898634
H            0.98570921442067       -1.38572333034868        1.50018549729547
H           -2.05723668889291       -2.30525081099268       -1.42050376989977
H          -10.96683655741788        1.92526067608702        1.49752650742059
H          -11.52913484680516        1.01872218591774        3.69361371028657

          :  Hamiltonian                  GFN2-xTB          :
         :: gradient norm              0.000059968693 Eh/a0 ::
         :: HOMO-LUMO gap              0.319093229383 eV    ::
         :: SCC energy              -202.840143170265 Eh    ::
         :: -> dispersion             -0.179817337660 Eh    ::
         :: -> Gsolv                  -0.088996289915 Eh    ::
         :: repulsion energy           3.557550131091 Eh    ::

    * Orbital Energies and Occupations

         #    Occupation            Energy/Eh            Energy/eV
      -------------------------------------------------------------
         1        2.0000           -0.7251397             -19.7321
       ...           ...                  ...                  ...
       173        2.0000           -0.4008790             -10.9085
       174        2.0000           -0.3971206             -10.8062
       175        2.0000           -0.3962399             -10.7822
       176        2.0000           -0.3854042             -10.4874
       177        2.0000           -0.3831468             -10.4260
       178        2.0000           -0.3830288             -10.4227
       179        2.0000           -0.3803630             -10.3502
       180        2.0000           -0.3791657             -10.3176
       181        2.0000           -0.3783215             -10.2947
       182        1.9889           -0.3694412             -10.0530
       183        1.6907           -0.3659400              -9.9577
       184        1.3205           -0.3644628              -9.9175
       185        0.9978           -0.2667213              -7.2579 (HOMO)
       186        0.0020           -0.2549951              -6.9388 (LUMO)
       187        0.0001           -0.2522396              -6.8638
       188        0.0000           -0.2507638              -6.8236
       189        0.0000           -0.2496629              -6.7937
       190        0.0000           -0.2487499              -6.7688
       191        0.0000           -0.2474802              -6.7343
       192                         -0.2327237              -6.3327
       193                         -0.2273928              -6.1877
       194                         -0.2269054              -6.1744
       195                         -0.2266061              -6.1663
       196                         -0.2261025              -6.1526
       ...                                ...                  ...
       358                          1.1626804              31.6381
      -------------------------------------------------------------
                  HL-Gap            0.0117261 Eh            0.3191 eV

     #   Z          covCN         q      C6AA      α(0)
     1   6 C        2.837    -0.086    30.144     8.997
     2   6 C        2.895    -0.031    28.777     8.795
     3   6 C        2.970     0.013    27.715     8.635
     4   6 C        2.928    -0.035    28.867     8.811
     5   6 C        2.920    -0.032    28.792     8.799
     6   6 C        2.968    -0.002    28.064     8.690
     7   6 C        3.698     0.075    19.487     6.314
     8   8 O        1.705    -0.270    18.471     5.803
     9   6 C        2.855     0.147    24.810     8.164
    10   6 C        2.916    -0.071    29.781     8.949
    11   6 C        2.923    -0.036    28.905     8.817
    12   6 C        2.908    -0.050    29.251     8.868
    13   6 C        3.076     0.041    26.999     8.519
    14   6 C        3.066    -0.041    28.947     8.822
    15   6 C        3.065    -0.007    28.135     8.698
    16   6 C        2.910    -0.033    28.820     8.803
    17   6 C        2.920    -0.034    28.859     8.809
    18   6 C        2.921    -0.036    28.903     8.816
    19   6 C        2.909    -0.043    29.066     8.840
    20   6 C        3.077     0.042    26.973     8.515
    21   7 N        2.799    -0.005    21.363     6.865
    22   6 C        2.907     0.017    27.621     8.618
    23   6 C        2.913    -0.060    29.501     8.907
    24   6 C        2.907     0.044    27.012     8.522
    25   7 N        2.805    -0.033    21.879     6.947
    26   6 C        3.080     0.049    26.812     8.489
    27   6 C        2.909    -0.047    29.171     8.856
    28   6 C        2.923    -0.034    28.846     8.808
    29   6 C        2.920    -0.036    28.899     8.816
    30   6 C        2.911    -0.033    28.819     8.803
    31   6 C        3.069    -0.007    28.121     8.695
    32   6 C        3.069    -0.040    28.916     8.817
    33   6 C        2.856     0.147    24.807     8.163
    34   8 O        1.705    -0.270    18.469     5.802
    35   6 C        3.697     0.074    19.498     6.316
    36   6 C        2.968    -0.002    28.066     8.690
    37   6 C        2.921    -0.041    29.026     8.835
    38   6 C        2.923    -0.033    28.821     8.804
    39   6 C        2.970     0.014    27.703     8.633
    40   6 C        2.895    -0.030    28.754     8.792
    41   6 C        2.837    -0.086    30.142     8.997
    42   6 C        2.928    -0.034    28.835     8.806
    43   6 C        2.920    -0.031    28.763     8.795
    44   6 C        2.917    -0.072    29.794     8.951
    45   6 C        2.924    -0.033    28.815     8.803
    46   6 C        2.909    -0.048    29.203     8.861
    47   6 C        3.082     0.054    26.708     8.472
    48   6 C        2.963    -0.046    29.141     8.854
    49   6 C        1.906     0.104    28.536     8.627
    50   7 N        0.911    -0.389    30.065     7.930
    51   6 C        2.908     0.044    27.017     8.523
    52   7 N        2.805    -0.031    21.832     6.940
    53   6 C        3.081     0.049    26.814     8.489
    54   6 C        2.909    -0.046    29.134     8.851
    55   6 C        2.923    -0.034    28.841     8.807
    56   6 C        2.920    -0.036    28.892     8.814
    57   6 C        2.911    -0.033    28.810     8.802
    58   6 C        3.069    -0.007    28.116     8.694
    59   6 C        3.070    -0.039    28.906     8.816
    60   6 C        2.856     0.147    24.799     8.162
    61   8 O        1.705    -0.269    18.466     5.802
    62   6 C        3.697     0.074    19.498     6.316
    63   6 C        2.968    -0.002    28.071     8.691
    64   6 C        2.921    -0.030    28.759     8.794
    65   6 C        2.923    -0.032    28.803     8.801
    66   6 C        2.971     0.014    27.699     8.633
    67   6 C        2.895    -0.031    28.784     8.796
    68   6 C        2.837    -0.085    30.119     8.994
    69   6 C        2.927    -0.035    28.864     8.811
    70   6 C        2.921    -0.042    29.032     8.836
    71   6 C        2.917    -0.071    29.774     8.948
    72   6 C        2.924    -0.033    28.813     8.803
    73   6 C        2.909    -0.048    29.196     8.860
    74   6 C        3.082     0.054    26.708     8.472
    75   6 C        2.913    -0.061    29.511     8.908
    76   6 C        2.921    -0.041    29.018     8.834
    77   6 C        2.923    -0.033    28.816     8.803
    78   1 H        0.926     0.042     2.424     2.435
    79   1 H        0.926     0.039     2.461     2.453
    80   1 H        0.925     0.036     2.505     2.475
    81   1 H        0.926     0.035     2.509     2.477
    82   1 H        0.926     0.036     2.505     2.475
    83   1 H        0.924     0.065     2.141     2.288
    84   1 H        0.923     0.043     2.405     2.425
    85   1 H        0.926     0.043     2.408     2.426
    86   1 H        0.926     0.042     2.417     2.431
    87   1 H        0.926     0.043     2.414     2.430
    88   1 H        0.926     0.044     2.392     2.419
    89   1 H        0.926     0.036     2.503     2.474
    90   1 H        0.926     0.036     2.501     2.473
    91   1 H        0.926     0.035     2.523     2.484
    92   1 H        0.926     0.043     2.406     2.425
    93   1 H        0.926     0.035     2.519     2.482
    94   1 H        0.926     0.039     2.468     2.457
    95   1 H        0.926     0.038     2.470     2.458
    96   1 H        0.926     0.046     2.373     2.409
    97   1 H        0.923     0.045     2.387     2.416
    98   1 H        0.924     0.067     2.121     2.278
    99   1 H        0.926     0.035     2.514     2.480
   100   1 H        0.926     0.044     2.398     2.421
   101   1 H        0.925     0.037     2.493     2.469
   102   1 H        0.926     0.042     2.420     2.433
   103   1 H        0.926     0.040     2.452     2.449
   104   1 H        0.926     0.035     2.514     2.479
   105   1 H        0.926     0.033     2.547     2.496
   106   1 H        0.926     0.046     2.373     2.409
   107   1 H        0.926     0.044     2.394     2.420
   108   1 H        0.926     0.032     2.560     2.502
   109   1 H        0.926     0.033     2.549     2.497
   110   1 H        0.926     0.040     2.455     2.450
   111   1 H        0.926     0.039     2.462     2.454
   112   1 H        0.926     0.046     2.366     2.406
   113   1 H        0.924     0.067     2.119     2.277
   114   1 H        0.923     0.045     2.384     2.415
   115   1 H        0.926     0.033     2.548     2.496
   116   1 H        0.926     0.039     2.458     2.452
   117   1 H        0.925     0.039     2.468     2.457
   118   1 H        0.926     0.041     2.436     2.441
   119   1 H        0.926     0.041     2.438     2.442
   120   1 H        0.926     0.039     2.456     2.451
   121   1 H        0.926     0.035     2.518     2.481
   122   1 H        0.926     0.046     2.369     2.407
   123   1 H        0.926     0.045     2.388     2.416
   124   1 H        0.926     0.032     2.553     2.498
   125   1 H        0.926     0.041     2.429     2.437
   126   1 H        0.926     0.034     2.530     2.487
   127   1 H        0.926     0.043     2.414     2.430

molecular dipole:
                 x           y           z       tot (Debye)
 q only:       -1.426       0.111       1.417
   full:       -1.834       0.167       1.625       6.243

 projected vibrational frequencies (cm⁻¹)
eigval :       -0.00    -0.00    -0.00    -0.00    -0.00     0.00
eigval :        6.00     7.49     9.37    10.95    13.36    14.68
eigval :       17.65    19.85    20.39    24.06    26.54    27.01
eigval :       31.00    38.42    39.78    43.45    47.94    51.29
eigval :       56.77    57.67    65.73    74.25    78.85    83.38
eigval :       89.43   100.24   104.85   106.29   110.25   111.49
eigval :      112.71   120.65   121.53   124.49   125.88   136.78
eigval :      145.33   152.89   168.26   168.82   174.73   199.42
eigval :      203.42   204.91   214.74   231.05   241.39   243.39
eigval :      245.73   249.66   254.81   256.58   259.78   263.97
eigval :      268.70   289.04   296.63   297.60   300.77   308.82
eigval :      312.58   314.99   323.03   332.46   338.45   357.78
eigval :      370.89   371.26   372.18   372.81   391.82   396.72
eigval :      402.03   403.41   403.73   406.60   407.00   414.39
eigval :      415.97   419.43   430.76   435.28   437.10   440.64
eigval :      472.66   476.04   479.63   484.77   497.47   502.19
eigval :      504.30   507.34   526.73   528.59   529.07   529.63
eigval :      532.74   534.06   534.71   537.66   540.88   553.04
eigval :      567.13   572.86   575.60   583.14   584.55   590.56
eigval :      600.70   603.13   607.07   607.90   612.28   614.38
eigval :      616.71   620.59   621.51   644.34   647.66   650.34
eigval :      658.40   664.93   667.89   668.51   676.34   693.50
eigval :      696.25   697.79   701.40   704.03   706.23   709.43
eigval :      727.08   732.15   741.33   741.64   745.62   760.46
eigval :      765.59   767.46   769.46   771.56   772.09   774.09
eigval :      775.13   796.76   808.36   809.44   811.10   830.08
eigval :      839.83   840.86   841.95   848.19   853.62   853.67
eigval :      854.85   856.13   861.57   866.12   866.59   867.32
eigval :      868.35   872.33   882.84   887.30   887.65   888.10
eigval :      889.39   898.61   901.06   901.92   902.86   904.33
eigval :      905.07   913.40   914.47   914.95   915.32   917.35
eigval :      918.28   926.58   926.72   927.84   938.61   946.23
eigval :      969.67   985.29   987.06   991.12   999.96  1001.59
eigval :     1002.01  1002.42  1010.76  1012.59  1014.34  1015.93
eigval :     1016.51  1024.23  1033.71  1036.17  1037.61  1043.27
eigval :     1059.45  1062.69  1063.89  1074.24  1087.93  1102.10
eigval :     1110.08  1114.40  1115.05  1118.15  1126.13  1131.24
eigval :     1148.49  1149.66  1151.71  1156.93  1159.45  1170.72
eigval :     1172.13  1176.70  1186.63  1189.30  1191.79  1194.32
eigval :     1195.30  1196.49  1199.61  1200.57  1201.10  1202.73
eigval :     1207.56  1208.32  1213.27  1220.93  1223.38  1229.60
eigval :     1235.06  1241.60  1243.30  1245.51  1248.86  1251.38
eigval :     1252.42  1266.74  1271.24  1273.55  1274.21  1274.84
eigval :     1278.86  1282.83  1287.98  1291.78  1292.90  1295.76
eigval :     1298.25  1298.84  1302.49  1316.94  1320.64  1322.26
eigval :     1322.98  1331.97  1335.69  1336.40  1338.06  1338.38
eigval :     1338.77  1349.34  1355.92  1363.57  1366.70  1370.72
eigval :     1377.95  1396.38  1403.09  1404.92  1408.99  1409.09
eigval :     1409.62  1412.16  1415.97  1416.01  1416.50  1421.86
eigval :     1436.39  1446.00  1446.23  1447.70  1458.75  1462.65
eigval :     1465.63  1481.51  1482.66  1483.50  1489.41  1490.42
eigval :     1490.93  1492.05  1529.68  1544.72  1552.75  1553.71
eigval :     1558.55  1561.72  1564.68  1568.06  1570.48  1571.32
eigval :     1571.41  1574.02  1575.35  1578.74  1589.59  1590.83
eigval :     1594.91  1599.13  1599.67  1669.72  1673.77  1674.79
eigval :     2203.29  2886.89  2887.29  2891.16  2928.41  2929.60
eigval :     2930.53  3040.98  3041.42  3045.40  3065.33  3067.62
eigval :     3068.32  3069.08  3070.77  3076.63  3077.22  3077.96
eigval :     3078.17  3078.57  3082.12  3083.74  3083.87  3085.30
eigval :     3087.24  3087.38  3087.88  3088.55  3091.62  3092.36
eigval :     3093.41  3094.47  3096.81  3096.99  3097.14  3100.66
eigval :     3102.53  3103.36  3104.31  3104.34  3105.02  3105.37
eigval :     3105.67  3106.67  3107.09  3116.21  3116.62  3117.17
eigval :     3126.08  3126.48  3126.50

   temp. (K)  partition function   enthalpy   heat capacity  entropy
                                   cal/mol     cal/K/mol   cal/K/mol   J/K/mol
 298.15  VIB  0.151E+35            39574.049    237.781    252.332
         ROT  0.397E+09              888.752      2.981     42.326
         INT  0.598E+43            40462.801    240.762    294.658
         TR   0.304E+29             1481.254      4.968     46.546
         TOT                       41944.0552   245.7305   341.2038  1427.5968

       T/K    H(0)-H(T)+PV         H(T)/Eh          T*S/Eh         G(T)/Eh
   ------------------------------------------------------------------------
    298.15    0.668421E-01    0.103771E+01    0.162117E+00    0.875596E+00
   ------------------------------------------------------------------------

         :::::::::::::::::::::::::::::::::::::::::::::::::::::
         ::                  THERMODYNAMIC                  ::
         :::::::::::::::::::::::::::::::::::::::::::::::::::::
         :: total free energy        -198.406996631183 Eh   ::
         ::.................................................::
         :: total energy             -199.282593037778 Eh   ::
         :: zero point energy           0.970871245978 Eh   ::
         :: G(RRHO) w/o ZPVE           -0.095274839383 Eh   ::
         :: G(RRHO) contrib.            0.875596406595 Eh   ::
         :::::::::::::::::::::::::::::::::::::::::::::::::::::

           -------------------------------------------------
          | TOTAL ENERGY             -199.282593037778 Eh   |
          | TOTAL ENTHALPY           -198.244879685121 Eh   |
          | TOTAL FREE ENERGY        -198.406996631183 Eh   |
          | GRADIENT NORM               0.000060212652 Eh/α |
          | HOMO-LUMO GAP               0.319084312987 eV   |
           -------------------------------------------------

 * finished run on 2025/07/21 at 01:52:21.104
