   * xtb version 6.7.1 (edcfbbe) compiled by 'albert@albert-system' on 2024-07-22

   ID    Z sym.   atoms
    1    6 C      1-7, 9-20, 22-24, 26-33, 35-49, 51, 53-60, 62-77
    2    8 O      8, 34, 61
    3    7 N      21, 25, 50, 52
    4    1 H      78-127

          program call               : xtb data2507/toluene/DV-3CzCN/DV-3CzCN_toluene_S0_finalOpt.xtbopt.xyz --gfn 2 --uhf 2 --gbsa toluene --ohess vtight --parallel 40 --molden --ceasefiles --namespace data2507/toluene/DV-3CzCN/DV-3CzCN_toluene_T1_preOpt
      * Solvation model:               GBSA
        Solvent                        toluene
        Solvent mass                       9.2140E+01 g/mol
          :  Hamiltonian                  GFN2-xTB          :
 * total energy  :  -199.2775965 Eh     change       -0.2204445E-08 Eh
 * total energy  :  -199.2812327 Eh     change       -0.3636281E-02 Eh
 * total energy  :  -199.2823330 Eh     change       -0.1100309E-02 Eh
 * total energy  :  -199.2824231 Eh     change       -0.9007028E-04 Eh
 * total energy  :  -199.2824845 Eh     change       -0.6135038E-04 Eh
 * total energy  :  -199.2825042 Eh     change       -0.1977559E-04 Eh
 * total energy  :  -199.2825245 Eh     change       -0.2022811E-04 Eh
 * total energy  :  -199.2825325 Eh     change       -0.8036393E-05 Eh
 * total energy  :  -199.2825362 Eh     change       -0.3659690E-05 Eh
 * total energy  :  -199.2825397 Eh     change       -0.3520040E-05 Eh
 * total energy  :  -199.2826014 Eh     change       -0.4495944E-06 Eh
 * total energy  :  -199.2826018 Eh     change       -0.3944070E-06 Eh
 * total energy  :  -199.2826021 Eh     change       -0.3266456E-06 Eh
 * total energy  :  -199.2826024 Eh     change       -0.3542618E-06 Eh
 * total energy  :  -199.2826026 Eh     change       -0.1631092E-06 Eh
 * total energy  :  -199.2826028 Eh     change       -0.1890495E-06 Eh
 * total energy  :  -199.2826030 Eh     change       -0.2535910E-06 Eh
 * total energy  :  -199.2826033 Eh     change       -0.2212335E-06 Eh
 * total energy  :  -199.2826033 Eh     change       -0.6800065E-08 Eh
   *** GEOMETRY OPTIMIZATION CONVERGED AFTER 94 ITERATIONS ***

 final structure:
================
127
 xtb: 6.7.1 (edcfbbe)
C          -11.57268972083017       -1.09105740805085        5.67739652412977
C          -10.73447684454421       -1.51020822814333        4.73631400949208
C          -10.43021403908288       -0.84194690699697        3.47620672140317
C           -9.62363132805845       -1.49429680023989        2.54206496814208
C           -9.31301955177963       -0.90866498182389        1.33052139389470
C           -9.78662646018310        0.35938341273240        1.02214653141218
C           -9.47035464486403        1.01042472862740       -0.30284480688609
O           -8.31002189163611        0.51218238881175       -0.93947862015595
C           -7.09345220277066        0.76161962655409       -0.39398135126075
C           -6.86537984292444        1.46123662537768        0.78891143519288
C           -5.57325325239059        1.64883109875435        1.27245859910621
C           -4.46177743004234        1.17643545320645        0.59913175516157
C           -4.67490100544732        0.50214358400746       -0.59767843666498
C           -5.98158931365635        0.26699941883118       -1.08669806039473
C           -5.84140410932774       -0.50596410093453       -2.28357266437342
C           -6.74531128150512       -1.03331462199252       -3.19671322126667
C           -6.25510185781929       -1.71962354828956       -4.29115093941485
C           -4.88100861343537       -1.87125681815979       -4.49289715743171
C           -3.96434042212960       -1.36175422613638       -3.59526548797456
C           -4.44636513498391       -0.69414446390122       -2.47502275577001
N           -3.75699847860380       -0.07841975218986       -1.45322868982990
C           -2.37364531264340       -0.05283531236129       -1.29853410752717
C           -1.70903659040586        1.15232032014071       -0.97036090174796
C           -0.35675959918516        1.18475028305851       -0.78045737387876
N            0.30469130518665        2.39211138644263       -0.50703673984459
C            0.28675443002992        3.51979456376443       -1.29614448910715
C           -0.42040965984544        3.76985449899509       -2.46577612795600
C           -0.24443943719087        4.99720390022446       -3.07418130324168
C            0.61600033876042        5.95648154999267       -2.53953490101595
C            1.33573207906325        5.70856716295895       -1.38550298810420
C            1.17701722253102        4.48158009152657       -0.75644831671071
C            1.75361788819965        3.88392317220198        0.41438510730302
C            2.69162926074863        4.32591231760136        1.35411020342428
O            3.20813699259087        5.56579973408704        1.16633061367361
C            4.20055052819721        6.04235741421616        2.05614353255381
C            5.50094892112819        5.27671396567289        2.00352412353252
C            6.35219063952971        5.26961073285656        3.10315834712292
C            7.55109222213286        4.58758473782941        3.06210361824023
C            7.93610668188102        3.88173861516469        1.92034984232116
C            9.18815752842740        3.13965465533833        1.82498818548317
C           10.11017313063448        3.00717156886945        2.77162942825014
C            7.07412404561288        3.89689172552589        0.82240060839294
C            5.87851862356890        4.58700788761460        0.85921688869376
C            3.01397452090165        3.46699575121131        2.40325653353980
C            2.41625735730347        2.21709346286011        2.51707779710184
C            1.49257935709204        1.76056061998169        1.59693431658916
C            1.18776159354793        2.59714425876833        0.53090872651779
C            0.44127906137171       -0.01292120995846       -0.91411328002813
C            1.81482949399691        0.03062717273182       -0.92483698209612
N            2.98007792670660        0.05831696481529       -0.94079263119520
C           -0.26744872191883       -1.23699263893279       -1.21255182758252
N            0.48320847171228       -2.41868298721803       -1.31825217593361
C            0.61669644912393       -3.20005129798498       -2.44246462108882
C            0.00341923654977       -3.07549573744942       -3.68212024418099
C            0.32649074154163       -3.99810299850339       -4.65748458712434
C            1.24255596733271       -5.02109417036724       -4.41198032139697
C            1.87240598816371       -5.14000973914243       -3.18668288020678
C            1.56478301528606       -4.22295018960665       -2.19150656919611
C            2.01798827204436       -4.02828512683071       -0.84297207954579
C            2.95266765913305       -4.68935934609989       -0.03882180402269
O            3.61928297276836       -5.72780338358974       -0.60173517739317
C            4.66247670698273       -6.35265092716400        0.12280672607810
C            5.82198785966238       -5.44306258987008        0.45368460975614
C            6.06947080025672       -4.29533058693360       -0.28862727081445
C            7.11705807490025       -3.45742040837386        0.03883444636032
C            7.96291712619746       -3.75205296132755        1.10789117427678
C            9.07078211447404       -2.88697896269422        1.50067320750211
C            9.22857133729472       -1.61408387141168        1.15832655202029
C            7.73008089712731       -4.92860502475176        1.82327642253645
C            6.66986268699383       -5.75511656177270        1.51025069194835
C            3.12524197533734       -4.23089231647680        1.26638718781594
C            2.39909506746598       -3.14893599707167        1.75035524826215
C            1.48709399912905       -2.47033488892916        0.96546497128454
C            1.32197701322022       -2.90880789909930       -0.34176567532644
C           -1.61760552366198       -1.24328989322991       -1.41506631865440
C          -10.58594923588335        1.02151779437669        1.94780675986096
C          -10.90579341564635        0.43069387491313        3.15297783387089
H          -12.13350219165203       -0.17570991247551        5.59548484733701
H          -11.73299988277389       -1.66176624065977        6.57639944671574
H          -10.21238454761490       -2.44871735409448        4.88165435631870
H           -9.24058519725460       -2.47965115470353        2.76756860389175
H           -8.69273036368723       -1.43502137362892        0.61909492100245
H          -10.27594104314194        0.79318918330514       -1.01490147372411
H           -9.40455479499369        2.10058096739092       -0.18613230202944
H           -7.69226233793362        1.84631193679767        1.36310057982444
H           -5.44232198979524        2.17467880515175        2.20593589327457
H           -3.47106188431128        1.31103784808843        1.00228911238977
H           -7.80478453476051       -0.89687859176427       -3.04697174024853
H           -6.94149775162161       -2.13792870650046       -5.01247103633773
H           -4.52946388308575       -2.39294429141566       -5.37052301676233
H           -2.90499146819969       -1.46651680081856       -3.76775090416858
H           -2.27996511457185        2.06511125518749       -0.89312857176386
H           -1.07626205385526        3.02495488391274       -2.89035516066003
H           -0.78235827647713        5.21796712102553       -3.98425545039922
H            0.72476476746906        6.90515530615052       -3.04394873893913
H            2.01156301296987        6.44214383663356       -0.97491276531556
H            3.81302018939858        6.06767523538008        3.08348139226866
H            4.37060431854153        7.07570211981937        1.73051732225304
H            6.06997299528195        5.80522022101939        3.99897568291441
H            8.19197013255011        4.60120293861526        3.92971880913898
H            9.34877771603300        2.65910364326158        0.86710018253002
H           10.01618452926702        3.45405816082373        3.74651770978995
H           11.00787505592871        2.43744116168251        2.60101268265250
H            7.34500188296150        3.35846870554011       -0.07488970402451
H            5.22804117015758        4.58409484538310       -0.00385435253452
H            3.74289460541597        3.75814697969996        3.14160596606379
H            2.68847700556874        1.58764470189022        3.35065428457976
H            1.03372144794591        0.79067320461738        1.69956964120534
H           -0.69217071563831       -2.27397885904283       -3.87749093256982
H           -0.13642740412846       -3.92455402167717       -5.63039661741598
H            1.46708700970331       -5.72567048645646       -5.19901019158882
H            2.59227317884085       -5.92075344024817       -2.99756354069601
H            5.00019083497806       -7.15583244742694       -0.54293319339679
H            4.26858337328018       -6.81314573999171        1.03921315984542
H            5.42963066667242       -4.04861666098387       -1.12388783194672
H            7.28201838259534       -2.57013938636154       -0.55243984992063
H            9.79929061444857       -3.35291180783393        2.15368866667477
H            8.52106548307548       -1.08885722419693        0.53929669397799
H           10.07331522441878       -1.04175314415071        1.50216816429653
H            8.38021317028459       -5.18530720698036        2.64775464003637
H            6.49533006612114       -6.65127989439776        2.08920493380846
H            3.83742259317148       -4.70632202156965        1.92058567161504
H            2.56035829646813       -2.83232719356153        2.76968717646052
H            0.92776912490892       -1.63299941169146        1.35052222706984
H           -2.12379352163373       -2.17675657677075       -1.60961171176523
H          -10.95892410000194        2.01008036843209        1.71872171366970
H          -11.52394678270571        0.96948899810404        3.85393754277882

          :  Hamiltonian                  GFN2-xTB          :
         :: gradient norm              0.000091611331 Eh/a0 ::
         :: HOMO-LUMO gap              0.325170122166 eV    ::
         :: SCC energy              -202.839966496944 Eh    ::
         :: -> dispersion             -0.180017700497 Eh    ::
         :: -> Gsolv                  -0.088946900290 Eh    ::
         :: repulsion energy           3.557363221713 Eh    ::

    * Orbital Energies and Occupations

         #    Occupation            Energy/Eh            Energy/eV
      -------------------------------------------------------------
         1        2.0000           -0.7251752             -19.7330
       ...           ...                  ...                  ...
       173        2.0000           -0.4008572             -10.9079
       174        2.0000           -0.3971919             -10.8081
       175        2.0000           -0.3962688             -10.7830
       176        2.0000           -0.3853722             -10.4865
       177        2.0000           -0.3831477             -10.4260
       178        2.0000           -0.3828742             -10.4185
       179        2.0000           -0.3803237             -10.3491
       180        2.0000           -0.3791454             -10.3171
       181        2.0000           -0.3782887             -10.2938
       182        1.9891           -0.3694376             -10.0529
       183        1.6900           -0.3659113              -9.9570
       184        1.3209           -0.3644390              -9.9169
       185        0.9980           -0.2667733              -7.2593 (HOMO)
       186        0.0018           -0.2548227              -6.9341 (LUMO)
       187        0.0002           -0.2526368              -6.8746
       188        0.0000           -0.2504641              -6.8155
       189        0.0000           -0.2496439              -6.7932
       190        0.0000           -0.2487542              -6.7689
       191        0.0000           -0.2474636              -6.7338
       192                         -0.2327062              -6.3323
       193                         -0.2273737              -6.1872
       194                         -0.2269320              -6.1751
       195                         -0.2265590              -6.1650
       196                         -0.2261106              -6.1528
       ...                                ...                  ...
       358                          1.1625791              31.6354
      -------------------------------------------------------------
                  HL-Gap            0.0119507 Eh            0.3252 eV

     #   Z          covCN         q      C6AA      α(0)
     1   6 C        2.837    -0.086    30.144     8.997
     2   6 C        2.895    -0.031    28.776     8.795
     3   6 C        2.970     0.013    27.715     8.635
     4   6 C        2.928    -0.035    28.867     8.811
     5   6 C        2.920    -0.032    28.789     8.799
     6   6 C        2.968    -0.002    28.063     8.689
     7   6 C        3.697     0.075    19.486     6.314
     8   8 O        1.705    -0.270    18.472     5.803
     9   6 C        2.855     0.147    24.809     8.164
    10   6 C        2.916    -0.071    29.776     8.948
    11   6 C        2.923    -0.036    28.907     8.817
    12   6 C        2.908    -0.050    29.251     8.868
    13   6 C        3.076     0.041    27.001     8.520
    14   6 C        3.066    -0.041    28.948     8.822
    15   6 C        3.065    -0.007    28.136     8.698
    16   6 C        2.910    -0.033    28.821     8.803
    17   6 C        2.920    -0.034    28.858     8.809
    18   6 C        2.921    -0.036    28.904     8.816
    19   6 C        2.909    -0.043    29.066     8.840
    20   6 C        3.077     0.042    26.976     8.515
    21   7 N        2.799    -0.005    21.359     6.864
    22   6 C        2.907     0.018    27.618     8.617
    23   6 C        2.913    -0.061    29.511     8.908
    24   6 C        2.907     0.044    27.014     8.523
    25   7 N        2.805    -0.033    21.870     6.946
    26   6 C        3.079     0.049    26.818     8.490
    27   6 C        2.909    -0.047    29.171     8.856
    28   6 C        2.923    -0.034    28.847     8.808
    29   6 C        2.920    -0.036    28.897     8.815
    30   6 C        2.911    -0.033    28.819     8.803
    31   6 C        3.069    -0.007    28.120     8.695
    32   6 C        3.069    -0.040    28.917     8.817
    33   6 C        2.856     0.147    24.809     8.164
    34   8 O        1.705    -0.269    18.467     5.802
    35   6 C        3.697     0.074    19.498     6.316
    36   6 C        2.968    -0.002    28.066     8.690
    37   6 C        2.921    -0.041    29.024     8.835
    38   6 C        2.923    -0.033    28.820     8.804
    39   6 C        2.970     0.014    27.703     8.634
    40   6 C        2.895    -0.030    28.752     8.792
    41   6 C        2.837    -0.086    30.137     8.996
    42   6 C        2.928    -0.034    28.835     8.806
    43   6 C        2.920    -0.031    28.766     8.795
    44   6 C        2.917    -0.072    29.795     8.951
    45   6 C        2.924    -0.033    28.815     8.803
    46   6 C        2.909    -0.048    29.196     8.860
    47   6 C        3.081     0.054    26.713     8.473
    48   6 C        2.963    -0.046    29.139     8.854
    49   6 C        1.906     0.104    28.534     8.627
    50   7 N        0.911    -0.389    30.064     7.930
    51   6 C        2.909     0.044    27.011     8.522
    52   7 N        2.806    -0.031    21.848     6.942
    53   6 C        3.081     0.049    26.808     8.488
    54   6 C        2.909    -0.046    29.137     8.851
    55   6 C        2.923    -0.034    28.840     8.807
    56   6 C        2.920    -0.036    28.893     8.815
    57   6 C        2.911    -0.033    28.810     8.801
    58   6 C        3.069    -0.007    28.116     8.694
    59   6 C        3.069    -0.039    28.904     8.815
    60   6 C        2.856     0.147    24.796     8.162
    61   8 O        1.705    -0.270    18.471     5.803
    62   6 C        3.697     0.074    19.498     6.316
    63   6 C        2.968    -0.002    28.072     8.691
    64   6 C        2.921    -0.030    28.757     8.794
    65   6 C        2.923    -0.032    28.801     8.801
    66   6 C        2.971     0.014    27.698     8.633
    67   6 C        2.895    -0.032    28.786     8.797
    68   6 C        2.838    -0.085    30.116     8.993
    69   6 C        2.927    -0.035    28.865     8.811
    70   6 C        2.921    -0.042    29.033     8.836
    71   6 C        2.917    -0.071    29.775     8.948
    72   6 C        2.924    -0.033    28.814     8.803
    73   6 C        2.909    -0.049    29.207     8.862
    74   6 C        3.083     0.054    26.701     8.471
    75   6 C        2.913    -0.061    29.506     8.907
    76   6 C        2.921    -0.041    29.022     8.834
    77   6 C        2.923    -0.033    28.815     8.803
    78   1 H        0.926     0.042     2.423     2.434
    79   1 H        0.926     0.039     2.460     2.453
    80   1 H        0.925     0.036     2.505     2.475
    81   1 H        0.926     0.035     2.510     2.478
    82   1 H        0.926     0.035     2.510     2.478
    83   1 H        0.924     0.065     2.139     2.287
    84   1 H        0.923     0.044     2.403     2.424
    85   1 H        0.926     0.043     2.411     2.428
    86   1 H        0.926     0.042     2.418     2.432
    87   1 H        0.926     0.043     2.413     2.429
    88   1 H        0.926     0.044     2.392     2.418
    89   1 H        0.926     0.036     2.503     2.474
    90   1 H        0.926     0.036     2.502     2.474
    91   1 H        0.926     0.035     2.522     2.484
    92   1 H        0.926     0.043     2.403     2.424
    93   1 H        0.926     0.035     2.516     2.480
    94   1 H        0.926     0.039     2.468     2.457
    95   1 H        0.926     0.038     2.470     2.458
    96   1 H        0.926     0.046     2.372     2.408
    97   1 H        0.923     0.045     2.388     2.417
    98   1 H        0.924     0.067     2.122     2.278
    99   1 H        0.926     0.035     2.515     2.480
   100   1 H        0.926     0.044     2.398     2.421
   101   1 H        0.925     0.037     2.495     2.470
   102   1 H        0.926     0.042     2.422     2.434
   103   1 H        0.926     0.040     2.454     2.450
   104   1 H        0.926     0.035     2.513     2.479
   105   1 H        0.926     0.033     2.544     2.494
   106   1 H        0.926     0.046     2.371     2.408
   107   1 H        0.926     0.044     2.394     2.420
   108   1 H        0.926     0.032     2.556     2.500
   109   1 H        0.926     0.032     2.553     2.499
   110   1 H        0.926     0.040     2.455     2.450
   111   1 H        0.926     0.039     2.462     2.454
   112   1 H        0.926     0.046     2.368     2.406
   113   1 H        0.924     0.067     2.120     2.277
   114   1 H        0.923     0.045     2.384     2.415
   115   1 H        0.926     0.032     2.552     2.498
   116   1 H        0.926     0.039     2.458     2.452
   117   1 H        0.925     0.039     2.467     2.456
   118   1 H        0.926     0.041     2.435     2.440
   119   1 H        0.926     0.041     2.435     2.440
   120   1 H        0.926     0.039     2.456     2.451
   121   1 H        0.926     0.035     2.517     2.481
   122   1 H        0.926     0.046     2.369     2.407
   123   1 H        0.926     0.045     2.388     2.416
   124   1 H        0.926     0.032     2.554     2.499
   125   1 H        0.926     0.042     2.427     2.436
   126   1 H        0.926     0.034     2.529     2.487
   127   1 H        0.926     0.043     2.414     2.430

molecular dipole:
                 x           y           z       tot (Debye)
 q only:       -1.398       0.067       1.449
   full:       -1.805       0.111       1.665       6.248

 projected vibrational frequencies (cm⁻¹)
eigval :       -0.00    -0.00    -0.00    -0.00    -0.00     0.00
eigval :        5.25     7.69     8.51    11.07    13.47    16.69
eigval :       17.86    20.01    23.12    23.92    26.12    28.88
eigval :       31.29    34.95    37.59    42.20    45.17    50.13
eigval :       53.73    57.86    64.58    72.78    79.81    83.21
eigval :       89.99    97.66   104.71   105.86   111.32   112.55
eigval :      114.21   118.11   123.15   126.10   127.99   136.61
eigval :      145.86   153.43   166.93   168.37   174.17   199.14
eigval :      203.90   204.88   214.55   230.99   241.40   243.43
eigval :      246.25   247.67   253.79   256.05   261.17   263.08
eigval :      270.61   289.20   295.98   297.76   300.84   308.39
eigval :      311.73   313.10   322.31   331.65   338.34   357.73
eigval :      368.65   371.57   372.02   372.60   391.08   397.03
eigval :      402.48   403.30   404.35   407.53   409.22   414.04
eigval :      416.78   418.85   430.46   436.39   437.92   440.40
eigval :      474.16   475.53   482.29   483.60   496.20   502.47
eigval :      504.55   507.80   526.64   528.52   529.05   529.63
eigval :      532.38   534.15   535.91   538.96   539.44   553.45
eigval :      567.24   572.82   576.18   583.99   584.88   590.54
eigval :      601.13   602.81   606.49   608.27   612.94   614.41
eigval :      618.05   620.66   621.24   644.93   647.74   650.49
eigval :      658.88   665.32   668.14   669.17   676.39   693.51
eigval :      696.90   698.27   699.74   705.08   707.15   710.19
eigval :      726.68   732.24   740.59   742.20   745.85   760.50
eigval :      765.07   768.35   770.81   772.05   773.25   774.82
eigval :      775.88   796.73   808.55   809.65   811.05   830.10
eigval :      839.47   841.58   842.22   849.61   853.12   853.91
eigval :      854.50   856.50   863.18   867.15   867.38   867.85
eigval :      868.40   873.79   883.00   887.72   888.09   889.36
eigval :      893.58   898.91   899.41   901.93   902.95   904.26
eigval :      905.98   912.44   913.66   914.56   915.16   918.07
eigval :      920.05   925.61   927.03   927.97   938.60   946.11
eigval :      969.28   984.69   986.31   990.48   999.86  1000.41
eigval :     1001.78  1002.20  1008.95  1011.98  1012.59  1016.52
eigval :     1016.90  1023.98  1033.03  1035.71  1036.06  1042.84
eigval :     1059.36  1063.33  1063.94  1074.71  1088.19  1101.97
eigval :     1110.94  1113.86  1115.40  1118.64  1127.00  1131.06
eigval :     1148.12  1148.40  1149.67  1156.82  1159.42  1170.97
eigval :     1171.76  1176.44  1186.49  1189.32  1192.24  1194.28
eigval :     1194.62  1195.77  1199.71  1200.18  1200.61  1202.79
eigval :     1207.49  1208.78  1213.54  1221.17  1224.24  1229.69
eigval :     1234.59  1241.58  1243.63  1245.08  1248.74  1251.46
eigval :     1252.51  1266.62  1270.92  1272.92  1273.60  1274.08
eigval :     1279.11  1282.91  1287.47  1291.66  1292.96  1295.88
eigval :     1298.02  1298.79  1302.13  1316.83  1319.99  1321.35
eigval :     1322.28  1331.97  1335.71  1336.53  1337.76  1338.19
eigval :     1338.84  1349.38  1355.99  1363.84  1366.62  1370.66
eigval :     1377.75  1396.13  1403.75  1405.40  1407.96  1408.78
eigval :     1409.71  1412.26  1413.86  1415.84  1416.97  1421.98
eigval :     1436.29  1445.57  1445.78  1448.11  1458.65  1462.86
eigval :     1465.56  1481.57  1482.63  1483.54  1489.44  1490.15
eigval :     1490.45  1492.28  1529.14  1544.73  1552.63  1554.08
eigval :     1558.50  1561.67  1564.80  1568.41  1570.47  1571.16
eigval :     1571.35  1574.02  1575.49  1579.00  1589.40  1591.06
eigval :     1595.09  1598.55  1599.69  1670.14  1673.04  1674.48
eigval :     2203.41  2885.72  2889.04  2889.66  2929.13  2930.02
eigval :     2930.42  3040.39  3040.57  3042.54  3065.14  3066.70
eigval :     3068.62  3069.11  3069.28  3077.09  3077.19  3077.27
eigval :     3078.28  3078.46  3082.30  3083.17  3083.76  3084.68
eigval :     3087.05  3087.19  3088.20  3088.26  3091.84  3092.33
eigval :     3093.50  3094.00  3096.90  3097.06  3097.21  3100.93
eigval :     3101.93  3103.52  3104.50  3104.66  3105.10  3105.39
eigval :     3106.67  3107.24  3107.69  3115.14  3116.64  3117.46
eigval :     3126.19  3126.52  3127.75

   temp. (K)  partition function   enthalpy   heat capacity  entropy
                                   cal/mol     cal/K/mol   cal/K/mol   J/K/mol
 298.15  VIB  0.178E+35            39581.580    237.513    252.301
         ROT  0.395E+09              888.752      2.981     42.320
         INT  0.702E+43            40470.333    240.494    294.620
         TR   0.304E+29             1481.254      4.968     46.546
         TOT                       41951.5868   245.4621   341.1661  1427.4391

       T/K    H(0)-H(T)+PV         H(T)/Eh          T*S/Eh         G(T)/Eh
   ------------------------------------------------------------------------
    298.15    0.668541E-01    0.103771E+01    0.162099E+00    0.875609E+00
   ------------------------------------------------------------------------

         :::::::::::::::::::::::::::::::::::::::::::::::::::::
         ::                  THERMODYNAMIC                  ::
         :::::::::::::::::::::::::::::::::::::::::::::::::::::
         :: total free energy        -198.406994570541 Eh   ::
         ::.................................................::
         :: total energy             -199.282603269735 Eh   ::
         :: zero point energy           0.970853624806 Eh   ::
         :: G(RRHO) w/o ZPVE           -0.095244925612 Eh   ::
         :: G(RRHO) contrib.            0.875608699194 Eh   ::
         :::::::::::::::::::::::::::::::::::::::::::::::::::::

           -------------------------------------------------
          | TOTAL ENERGY             -199.282603269735 Eh   |
          | TOTAL ENTHALPY           -198.244895535984 Eh   |
          | TOTAL FREE ENERGY        -198.406994570541 Eh   |
          | GRADIENT NORM               0.000091914759 Eh/α |
          | HOMO-LUMO GAP               0.325193801571 eV   |
           -------------------------------------------------

 * finished run on 2025/07/21 at 00:18:59.653
