   * xtb version 6.7.1 (edcfbbe) compiled by 'albert@albert-system' on 2024-07-22

   ID    Z sym.   atoms
    1    6 C      1-7, 9-20, 22-24, 26-33, 35-49, 51, 53-60, 62-77
    2    8 O      8, 34, 61
    3    7 N      21, 25, 50, 52
    4    1 H      78-127

          program call               : xtb data2507/toluene/DV-3CzCN/DV-3CzCN.xyz --gfn 2 --gbsa toluene --ohess vtight --parallel 40 --molden --ceasefiles --namespace data2507/toluene/DV-3CzCN/DV-3CzCN_toluene_S0_preOpt
      * Solvation model:               GBSA
        Solvent                        toluene
        Solvent mass                       9.2140E+01 g/mol
          :  Hamiltonian                  GFN2-xTB          :
 * total energy  :  -199.3330011 Eh     change       -0.4724711E-08 Eh
 * total energy  :  -199.3545830 Eh     change       -0.2158190E-01 Eh
 * total energy  :  -199.3599391 Eh     change       -0.5356166E-02 Eh
 * total energy  :  -199.3611987 Eh     change       -0.1259559E-02 Eh
 * total energy  :  -199.3624119 Eh     change       -0.1213240E-02 Eh
 * total energy  :  -199.3632498 Eh     change       -0.8378806E-03 Eh
 * total energy  :  -199.3640890 Eh     change       -0.8391654E-03 Eh
 * total energy  :  -199.3646919 Eh     change       -0.6029763E-03 Eh
 * total energy  :  -199.3652827 Eh     change       -0.5907900E-03 Eh
 * total energy  :  -199.3657857 Eh     change       -0.5029541E-03 Eh
 * total energy  :  -199.3713670 Eh     change       -0.9177959E-06 Eh
 * total energy  :  -199.3713676 Eh     change       -0.6218861E-06 Eh
 * total energy  :  -199.3713683 Eh     change       -0.6623000E-06 Eh
 * total energy  :  -199.3713690 Eh     change       -0.7292576E-06 Eh
 * total energy  :  -199.3713698 Eh     change       -0.7724786E-06 Eh
 * total energy  :  -199.3713705 Eh     change       -0.7448618E-06 Eh
 * total energy  :  -199.3713712 Eh     change       -0.6848052E-06 Eh
 * total energy  :  -199.3713717 Eh     change       -0.5377545E-06 Eh
 * total energy  :  -199.3713717 Eh     change       -0.3561496E-08 Eh
   *** GEOMETRY OPTIMIZATION CONVERGED AFTER 221 ITERATIONS ***

 final structure:
================
127
 xtb: 6.7.1 (edcfbbe)
C            9.76524085990994        5.16806495702019        5.50486426229120
C            8.88968511652629        5.42779939127435        4.54057334777546
C            8.84318237571307        4.82505240666139        3.21329976084032
C            9.75211974891880        3.85704492892817        2.78129641571124
C            9.65696560237277        3.30891789971402        1.51843777468280
C            8.65669265706039        3.71423981022288        0.64173099329385
C            8.56999870269721        3.11734562549777       -0.74201440965657
O            7.27492770652137        3.14797985262173       -1.30908675346103
C            6.29435050285838        2.38536430324487       -0.75378734727280
C            6.44014203941357        1.55986666624912        0.35208372077263
C            5.35831598552463        0.84166130759876        0.85238408708146
C            4.10736672351885        0.89137927045034        0.27042218732316
C            3.95950364451018        1.68814187328764       -0.85734795983714
C            5.03192103152024        2.45175005973571       -1.35815150899864
C            4.52558905835905        3.20709560378855       -2.46993074564161
C            5.10926602194498        4.10388836909692       -3.35517214105894
C            4.32671051873802        4.64851867100397       -4.35483960850947
C            2.98691993723967        4.29398613990824       -4.48762898856666
C            2.38775315712170        3.40203674920313       -3.61682490674346
C            3.15819270361974        2.87546251924409       -2.59186542716450
N            2.82543866742861        1.94958607466408       -1.61342072072517
C            1.57254388809164        1.38006584554903       -1.41228087805124
C            1.46100366523362        0.00876183628923       -1.18252130627494
C            0.22509086697934       -0.57026574054680       -0.93814198558608
N            0.13370137431930       -1.94428625604647       -0.71726143426542
C            0.63701613478995       -2.93178726036871       -1.54991602494216
C            1.30426638111423       -2.81336725456717       -2.75904737647421
C            1.67231831511488       -3.97862283029037       -3.40714431836021
C            1.37864334959643       -5.23076606127707       -2.87282774236788
C            0.69632862499925       -5.35413707518694       -1.67794067563527
C            0.31693890487198       -4.19690003503919       -1.00993131276207
C           -0.39930919492948       -3.95051519962336        0.21015037104680
C           -0.94329254291150       -4.79847791807466        1.18454006974712
O           -0.81609778943515       -6.13251580454415        0.96933102582492
C           -1.35378068902759       -7.03730002699426        1.92690719934676
C           -1.08219638566129       -8.42962252631649        1.42472238803406
C           -1.95500909216193       -9.03733911395586        0.52959048640156
C           -1.69799123490432      -10.30252055363779        0.04091586446427
C           -0.55477644841501      -11.00260270649063        0.43093997838894
C           -0.23787108537424      -12.34384910369055       -0.04707171937620
C           -0.98288464422977      -13.10306226954274       -0.84231663267236
C            0.32140278215778      -10.37886799836306        1.32172776586471
C            0.06387020369824       -9.11294255596239        1.81006373183598
C           -1.55492465133538       -4.21210972414511        2.28440310985810
C           -1.60968003284248       -2.82758813318334        2.42045320917059
C           -1.08032012673292       -1.97665365645867        1.47266741471476
C           -0.49638327048042       -2.55346557563948        0.35396244151453
C           -0.93445902480372        0.22819697997780       -0.94255970150533
C           -2.20837042335255       -0.36574878294626       -0.84938675049691
N           -3.24882692764258       -0.85183999951423       -0.84135757898455
C           -0.81873657643089        1.61376848983403       -1.16390812120700
N           -1.95603299258631        2.42280711495428       -1.14527271039265
C           -2.35624999187478        3.27326563473700       -2.16254132553057
C           -1.78894314340421        3.48657015633839       -3.40842093167435
C           -2.41255359816017        4.38201537341000       -4.25772445962849
C           -3.58055928904155        5.04140229760941       -3.88292251497875
C           -4.16669049286409        4.80997988253636       -2.65346515760730
C           -3.55497720233146        3.91615409423901       -1.78385920240824
C           -3.88176051050392        3.42851750254897       -0.47310436321693
C           -4.92716453151741        3.71092533726884        0.41594280580305
O           -5.85185803267521        4.61713505780690       -0.00229432511249
C           -6.91287441582516        4.96393395636228        0.86620185529390
C           -7.90934173070727        3.85526170852016        1.10370018076477
C           -8.67652019871659        3.83922844502324        2.26330043299599
C           -9.60374267844518        2.84060802815446        2.48099726561640
C           -9.78929043450253        1.81862951806818        1.54777947880651
C          -10.74779359566813        0.73479385084490        1.73176040851845
C          -11.62471877333833        0.60559542984725        2.72073261719962
C           -9.01130996764807        1.84319977489923        0.38885062067860
C           -8.09200404413503        2.84888875645950        0.16488746946061
C           -4.92825272526691        3.06157283338546        1.64231831361835
C           -3.90965073874254        2.17678066523765        1.98394932229413
C           -2.86782107621416        1.89053186964247        1.12602820654942
C           -2.87853689691052        2.50678710029873       -0.11666735203669
C            0.42685025280623        2.17592843231922       -1.40033486247639
C            7.75558277844482        4.68588637279252        1.05608994086693
C            7.84519646320066        5.22672342846925        2.32342322487320
H           10.56361030313923        4.45431140952256        5.39429862698306
H            9.71258107851410        5.67012598980797        6.45607574506198
H            8.11222021809766        6.16008838513914        4.72490562510401
H           10.53874900985714        3.52345847572901        3.43979313922218
H           10.36613464268830        2.55489649117161        1.20583992945663
H            9.17623276186055        3.71300989832641       -1.43536576417339
H            8.96305822259940        2.09157166091991       -0.74065071393160
H            7.38875203960971        1.48211720037749        0.85758762727778
H            5.50763504693836        0.22929218022396        1.72906473046640
H            3.28150848471542        0.34350214956563        0.69469252547279
H            6.15325115982389        4.35560923709642       -3.25610677531741
H            4.75927018919695        5.35058086060650       -5.05223808072847
H            2.40161367183257        4.72039064697861       -5.28895483814228
H            1.35495356470724        3.12149314986553       -3.74708255512493
H            2.34081868136524       -0.61430554529437       -1.19684727293752
H            1.52336064660248       -1.84816302839678       -3.19033194413751
H            2.19573960979271       -3.91385984064241       -4.34964360486239
H            1.68363206380886       -6.11767799643651       -3.40825318261582
H            0.45226322602962       -6.31995588293177       -1.26424378200631
H           -2.43467454451136       -6.87094378837087        2.02878297519546
H           -0.87106768604871       -6.87873091014132        2.90050244687200
H           -2.84334342235635       -8.50939829988588        0.21311989381092
H           -2.39304939139038      -10.74805583776383       -0.65347828940579
H            0.70916246299735      -12.73265198987092        0.30850443090193
H           -1.93621632545130      -12.78593302673311       -1.22897116012310
H           -0.65927616331776      -14.08680693693920       -1.13769727685620
H            1.21641434991408      -10.89791903769781        1.63507151876533
H            0.75747075611485       -8.64962396842186        2.49722790562797
H           -1.99177524409812       -4.82121812549981        3.05932377578609
H           -2.08020627431989       -2.41242124449690        3.29914348440351
H           -1.11904447737248       -0.90732153126566        1.60587102158764
H           -0.89901521858136        2.95881898131914       -3.71532335727169
H           -1.98731468512249        4.56869754176923       -5.23278474841975
H           -4.03884700935215        5.73503699437512       -4.57223157670106
H           -5.08165280998918        5.30199943287981       -2.36373529610779
H           -7.41048617958264        5.79738113618857        0.35533911015334
H           -6.51910269217311        5.33590663719757        1.82179656710750
H           -8.54233623515598        4.61755049067066        3.00180682231227
H          -10.18217936139095        2.85109435265421        3.39156697307818
H          -10.71719568748728       -0.02322287536321        0.95786607783615
H          -11.71741944378746        1.32320394825798        3.51795999795674
H          -12.29505545792833       -0.23599761481974        2.76545566076171
H           -9.13285734415620        1.06322429325007       -0.34964367066663
H           -7.50208141987103        2.85123113357010       -0.74065147306528
H           -5.72387059455006        3.22836703674831        2.34993726024091
H           -3.94090387675007        1.70320379797098        2.95371915920774
H           -2.08018480520170        1.21409036568523        1.41719057218385
H            0.50663247476452        3.24342095315584       -1.53220191410878
H            6.97643563498022        5.01174063574120        0.38170699185441
H            7.13017650394529        5.97684792301811        2.63114821399392

          :  Hamiltonian                  GFN2-xTB          :
         :: gradient norm              0.000081269322 Eh/a0 ::
         :: HOMO-LUMO gap              2.179359789259 eV    ::
         :: SCC energy              -202.950113325520 Eh    ::
         :: -> dispersion             -0.177471064058 Eh    ::
         :: -> Gsolv                  -0.086158309226 Eh    ::
         :: repulsion energy           3.578741589012 Eh    ::

    * Orbital Energies and Occupations

         #    Occupation            Energy/Eh            Energy/eV
      -------------------------------------------------------------
         1        2.0000           -0.7210930             -19.6219
       ...           ...                  ...                  ...
       172        2.0000           -0.4070452             -11.0763
       173        2.0000           -0.4016616             -10.9298
       174        2.0000           -0.4008384             -10.9074
       175        2.0000           -0.4002639             -10.8917
       176        2.0000           -0.3857292             -10.4962
       177        2.0000           -0.3850456             -10.4776
       178        2.0000           -0.3831516             -10.4261
       179        2.0000           -0.3799683             -10.3395
       180        2.0000           -0.3791921             -10.3183
       181        2.0000           -0.3782745             -10.2934
       182        2.0000           -0.3693938             -10.0517
       183        2.0000           -0.3690753             -10.0431
       184        2.0000           -0.3670938              -9.9891 (HOMO)
       185                         -0.2870037              -7.8098 (LUMO)
       186                         -0.2616449              -7.1197
       187                         -0.2551689              -6.9435
       188                         -0.2547503              -6.9321
       189                         -0.2525858              -6.8732
       190                         -0.2478576              -6.7445
       191                         -0.2467519              -6.7145
       192                         -0.2454756              -6.6797
       193                         -0.2264842              -6.1629
       194                         -0.2251230              -6.1259
       195                         -0.2249855              -6.1222
       ...                                ...                  ...
       358                          1.1545691              31.4174
      -------------------------------------------------------------
                  HL-Gap            0.0800900 Eh            2.1794 eV

     #   Z          covCN         q      C6AA      α(0)
     1   6 C        2.837    -0.086    30.142     8.997
     2   6 C        2.895    -0.031    28.774     8.795
     3   6 C        2.970     0.013    27.719     8.636
     4   6 C        2.923    -0.033    28.819     8.804
     5   6 C        2.921    -0.041    29.014     8.833
     6   6 C        2.968    -0.001    28.060     8.689
     7   6 C        3.698     0.076    19.462     6.310
     8   8 O        1.705    -0.279    18.629     5.827
     9   6 C        2.856     0.142    24.898     8.179
    10   6 C        2.917    -0.077    29.931     8.971
    11   6 C        2.925    -0.034    28.853     8.809
    12   6 C        2.909    -0.063    29.579     8.918
    13   6 C        3.066     0.044    26.943     8.512
    14   6 C        3.069    -0.037    28.846     8.807
    15   6 C        3.066    -0.008    28.140     8.698
    16   6 C        2.912    -0.033    28.824     8.804
    17   6 C        2.920    -0.039    28.972     8.827
    18   6 C        2.923    -0.034    28.842     8.807
    19   6 C        2.911    -0.051    29.255     8.869
    20   6 C        3.066     0.043    26.971     8.516
    21   7 N        2.804    -0.034    21.891     6.949
    22   6 C        2.908     0.076    26.303     8.410
    23   6 C        2.925    -0.065    29.621     8.925
    24   6 C        2.915     0.075    26.314     8.412
    25   7 N        2.806    -0.049    22.192     6.997
    26   6 C        3.070     0.045    26.925     8.508
    27   6 C        2.910    -0.053    29.304     8.876
    28   6 C        2.924    -0.034    28.851     8.809
    29   6 C        2.920    -0.040    28.985     8.829
    30   6 C        2.912    -0.032    28.809     8.801
    31   6 C        3.068    -0.008    28.153     8.700
    32   6 C        3.071    -0.038    28.863     8.809
    33   6 C        2.855     0.141    24.922     8.182
    34   8 O        1.705    -0.282    18.686     5.836
    35   6 C        3.696     0.081    19.396     6.300
    36   6 C        2.969     0.005    27.910     8.666
    37   6 C        2.921    -0.032    28.809     8.802
    38   6 C        2.923    -0.033    28.816     8.803
    39   6 C        2.970     0.015    27.664     8.627
    40   6 C        2.895    -0.031    28.767     8.794
    41   6 C        2.837    -0.085    30.123     8.994
    42   6 C        2.927    -0.035    28.860     8.810
    43   6 C        2.920    -0.033    28.834     8.806
    44   6 C        2.918    -0.081    30.016     8.984
    45   6 C        2.926    -0.034    28.849     8.808
    46   6 C        2.909    -0.061    29.507     8.907
    47   6 C        3.069     0.048    26.844     8.496
    48   6 C        2.974    -0.019    28.486     8.755
    49   6 C        1.909     0.133    27.859     8.524
    50   7 N        0.911    -0.279    27.204     7.544
    51   6 C        2.915     0.075    26.317     8.412
    52   7 N        2.805    -0.050    22.202     6.998
    53   6 C        3.072     0.045    26.918     8.507
    54   6 C        2.910    -0.051    29.273     8.872
    55   6 C        2.924    -0.034    28.851     8.808
    56   6 C        2.920    -0.040    28.995     8.830
    57   6 C        2.913    -0.033    28.829     8.804
    58   6 C        3.067    -0.009    28.166     8.702
    59   6 C        3.071    -0.038    28.878     8.811
    60   6 C        2.856     0.142    24.910     8.180
    61   8 O        1.705    -0.279    18.626     5.827
    62   6 C        3.698     0.076    19.467     6.311
    63   6 C        2.968    -0.002    28.068     8.690
    64   6 C        2.921    -0.041    29.023     8.834
    65   6 C        2.923    -0.033    28.825     8.804
    66   6 C        2.970     0.013    27.717     8.636
    67   6 C        2.895    -0.031    28.767     8.794
    68   6 C        2.837    -0.086    30.151     8.998
    69   6 C        2.928    -0.034    28.856     8.809
    70   6 C        2.920    -0.031    28.774     8.797
    71   6 C        2.918    -0.078    29.952     8.975
    72   6 C        2.926    -0.034    28.847     8.808
    73   6 C        2.909    -0.060    29.502     8.906
    74   6 C        3.070     0.048    26.844     8.495
    75   6 C        2.923    -0.064    29.584     8.920
    76   6 C        2.920    -0.032    28.788     8.799
    77   6 C        2.928    -0.035    28.869     8.811
    78   1 H        0.926     0.042     2.425     2.435
    79   1 H        0.926     0.039     2.459     2.452
    80   1 H        0.925     0.036     2.506     2.475
    81   1 H        0.926     0.042     2.419     2.432
    82   1 H        0.925     0.033     2.539     2.492
    83   1 H        0.924     0.063     2.169     2.303
    84   1 H        0.923     0.040     2.445     2.445
    85   1 H        0.926     0.038     2.469     2.457
    86   1 H        0.926     0.039     2.458     2.452
    87   1 H        0.926     0.035     2.517     2.481
    88   1 H        0.926     0.044     2.400     2.423
    89   1 H        0.926     0.034     2.535     2.490
    90   1 H        0.926     0.036     2.508     2.477
    91   1 H        0.926     0.031     2.569     2.507
    92   1 H        0.926     0.067     2.119     2.276
    93   1 H        0.926     0.031     2.576     2.510
    94   1 H        0.926     0.037     2.494     2.470
    95   1 H        0.926     0.035     2.521     2.483
    96   1 H        0.926     0.043     2.413     2.429
    97   1 H        0.923     0.036     2.497     2.471
    98   1 H        0.923     0.036     2.499     2.472
    99   1 H        0.926     0.038     2.478     2.461
   100   1 H        0.926     0.044     2.396     2.421
   101   1 H        0.925     0.038     2.476     2.461
   102   1 H        0.926     0.043     2.413     2.429
   103   1 H        0.926     0.041     2.439     2.442
   104   1 H        0.926     0.040     2.452     2.448
   105   1 H        0.926     0.037     2.483     2.464
   106   1 H        0.926     0.038     2.470     2.458
   107   1 H        0.926     0.040     2.452     2.449
   108   1 H        0.926     0.021     2.722     2.580
   109   1 H        0.926     0.027     2.626     2.534
   110   1 H        0.926     0.037     2.495     2.470
   111   1 H        0.926     0.035     2.520     2.483
   112   1 H        0.926     0.044     2.402     2.424
   113   1 H        0.924     0.063     2.160     2.298
   114   1 H        0.923     0.041     2.438     2.442
   115   1 H        0.925     0.034     2.535     2.490
   116   1 H        0.926     0.043     2.412     2.429
   117   1 H        0.925     0.036     2.503     2.474
   118   1 H        0.926     0.042     2.423     2.434
   119   1 H        0.926     0.039     2.457     2.451
   120   1 H        0.926     0.036     2.509     2.477
   121   1 H        0.926     0.035     2.520     2.483
   122   1 H        0.926     0.040     2.452     2.449
   123   1 H        0.926     0.039     2.461     2.453
   124   1 H        0.926     0.020     2.727     2.583
   125   1 H        0.926     0.066     2.128     2.281
   126   1 H        0.926     0.036     2.506     2.475
   127   1 H        0.926     0.035     2.512     2.478

molecular dipole:
                 x           y           z       tot (Debye)
 q only:        1.353       0.095       0.839
   full:        1.650       0.275       1.157       5.171

 projected vibrational frequencies (cm⁻¹)
eigval :       -0.00    -0.00    -0.00    -0.00     0.00     0.00
eigval :        3.92     5.22     6.36     9.15    10.77    13.55
eigval :       15.78    17.72    19.59    22.09    25.29    25.68
eigval :       28.09    29.92    31.06    40.93    48.27    49.56
eigval :       56.22    59.88    65.12    70.81    72.50    84.32
eigval :       88.52    95.97   100.02   100.92   105.77   111.92
eigval :      114.37   117.76   120.54   122.76   128.08   137.49
eigval :      149.34   155.04   169.02   171.13   179.07   201.39
eigval :      204.84   210.37   213.56   216.75   228.01   236.81
eigval :      243.11   248.49   249.85   257.64   261.92   269.31
eigval :      270.88   288.82   300.90   301.85   303.12   309.15
eigval :      311.74   320.34   331.89   338.63   348.30   351.63
eigval :      362.00   368.62   369.98   370.10   384.68   403.05
eigval :      403.91   406.71   411.00   411.60   415.82   418.31
eigval :      419.53   430.63   434.62   435.35   437.31   481.68
eigval :      482.78   488.10   490.49   499.69   503.40   508.40
eigval :      518.58   521.48   532.32   534.40   539.19   539.36
eigval :      540.61   541.34   541.86   547.19   556.39   563.92
eigval :      575.61   577.42   582.04   585.87   590.72   599.44
eigval :      606.28   608.66   610.40   612.77   615.28   618.61
eigval :      621.36   626.99   633.96   652.64   655.87   666.65
eigval :      668.66   669.78   672.41   676.99   691.74   696.34
eigval :      698.05   705.55   707.44   708.03   709.82   716.63
eigval :      730.52   738.12   742.37   743.83   763.10   768.32
eigval :      770.75   773.82   776.45   778.86   780.80   785.37
eigval :      788.64   803.65   808.54   811.61   818.28   842.73
eigval :      844.43   847.53   851.50   851.96   854.08   857.39
eigval :      861.75   863.79   864.73   866.26   867.78   871.42
eigval :      874.81   883.05   887.12   888.85   892.60   896.74
eigval :      898.70   902.24   904.97   906.20   909.14   909.33
eigval :      910.97   911.56   913.39   918.58   920.88   922.68
eigval :      923.04   924.08   925.98   927.02   945.52   956.64
eigval :      979.49   980.16   988.41   995.37  1002.78  1002.97
eigval :     1004.78  1009.86  1010.68  1012.89  1014.12  1015.30
eigval :     1018.81  1031.66  1034.17  1036.61  1040.91  1048.67
eigval :     1065.10  1069.15  1070.71  1082.76  1096.24  1110.35
eigval :     1118.36  1121.43  1123.00  1131.01  1137.07  1146.44
eigval :     1148.24  1148.71  1151.65  1168.01  1174.08  1176.55
eigval :     1179.37  1186.74  1187.05  1191.54  1194.38  1195.02
eigval :     1195.54  1197.00  1199.70  1201.00  1201.67  1204.33
eigval :     1209.68  1212.14  1213.46  1220.90  1226.92  1227.86
eigval :     1243.26  1246.55  1248.02  1252.47  1255.30  1255.79
eigval :     1262.53  1274.10  1274.19  1274.86  1285.55  1289.78
eigval :     1291.98  1293.91  1295.68  1298.79  1300.84  1308.49
eigval :     1308.66  1313.32  1319.01  1322.17  1323.38  1331.85
eigval :     1336.57  1336.92  1338.52  1339.98  1356.93  1357.62
eigval :     1358.76  1363.70  1366.68  1367.05  1392.01  1403.32
eigval :     1404.55  1409.25  1410.02  1410.06  1416.00  1417.07
eigval :     1417.15  1418.59  1419.65  1419.95  1438.88  1446.09
eigval :     1446.74  1447.77  1461.15  1470.12  1475.15  1476.02
eigval :     1477.88  1490.33  1490.63  1491.57  1491.80  1492.79
eigval :     1493.99  1517.90  1552.53  1571.61  1571.71  1573.35
eigval :     1574.70  1575.16  1575.82  1586.08  1588.37  1589.52
eigval :     1590.39  1591.48  1592.84  1599.17  1599.69  1599.85
eigval :     1605.65  1605.73  1607.30  1673.37  1673.56  1673.93
eigval :     2351.21  2882.46  2887.15  2887.38  2900.98  2925.49
eigval :     2927.36  3040.00  3041.28  3041.51  3065.83  3066.39
eigval :     3067.22  3068.52  3068.82  3073.36  3075.68  3075.91
eigval :     3076.40  3078.77  3081.36  3081.92  3082.42  3082.50
eigval :     3083.99  3084.33  3085.02  3086.07  3091.21  3091.98
eigval :     3096.81  3096.87  3097.02  3097.63  3097.80  3102.23
eigval :     3103.18  3106.18  3106.66  3106.80  3106.93  3107.24
eigval :     3107.78  3109.43  3112.98  3114.67  3116.29  3116.76
eigval :     3126.43  3126.87  3126.93

   temp. (K)  partition function   enthalpy   heat capacity  entropy
                                   cal/mol     cal/K/mol   cal/K/mol   J/K/mol
 298.15  VIB  0.217E+36            39401.349    235.295    253.546
         ROT  0.492E+09              888.752      2.981     42.755
         INT  0.107E+45            40290.101    238.275    296.302
         TR   0.304E+29             1481.254      4.968     46.546
         TOT                       41771.3553   243.2436   342.8477  1434.4749

       T/K    H(0)-H(T)+PV         H(T)/Eh          T*S/Eh         G(T)/Eh
   ------------------------------------------------------------------------
    298.15    0.665669E-01    0.104189E+01    0.162898E+00    0.878989E+00
   ------------------------------------------------------------------------

         :::::::::::::::::::::::::::::::::::::::::::::::::::::
         ::                  THERMODYNAMIC                  ::
         :::::::::::::::::::::::::::::::::::::::::::::::::::::
         :: total free energy        -198.492382940529 Eh   ::
         ::.................................................::
         :: total energy             -199.371371734194 Eh   ::
         :: zero point energy           0.975319919872 Eh   ::
         :: G(RRHO) w/o ZPVE           -0.096331126207 Eh   ::
         :: G(RRHO) contrib.            0.878988793665 Eh   ::
         :::::::::::::::::::::::::::::::::::::::::::::::::::::

           -------------------------------------------------
          | TOTAL ENERGY             -199.371371734194 Eh   |
          | TOTAL ENTHALPY           -198.329484922512 Eh   |
          | TOTAL FREE ENERGY        -198.492382940529 Eh   |
          | GRADIENT NORM               0.000081153810 Eh/α |
          | HOMO-LUMO GAP               2.179360116084 eV   |
           -------------------------------------------------

 * finished run on 2025/07/20 at 23:11:41.347
