   * xtb version 6.7.1 (edcfbbe) compiled by 'albert@albert-system' on 2024-07-22

   ID    Z sym.   atoms
    1    8 O      1, 14
    2    6 C      2-6, 8-13, 15-34, 36-40, 42-54
    3    7 N      7, 35, 41
    4    1 H      55-85

          program call               : xtb data2507/gas/mCP-BP-DMAC/mCP-BP-DMAC_gas_T1_crest.xyz --gfn 2 --spinpol --tblite --uhf 2 --ohess vtight --parallel 40 --molden --ceasefiles --namespace data2507/gas/mCP-BP-DMAC/mCP-BP-DMAC_gas_T1_finalOpt
 * total energy  :  -137.6462206 Eh     change       -0.2285694E-07 Eh
 * total energy  :  -137.6462808 Eh     change       -0.6015712E-04 Eh
 * total energy  :  -137.6463007 Eh     change       -0.1995442E-04 Eh
 * total energy  :  -137.6463031 Eh     change       -0.2399707E-05 Eh
 * total energy  :  -137.6463055 Eh     change       -0.2402946E-05 Eh
 * total energy  :  -137.6463079 Eh     change       -0.2373988E-05 Eh
 * total energy  :  -137.6463109 Eh     change       -0.2944376E-05 Eh
 * total energy  :  -137.6463132 Eh     change       -0.2374245E-05 Eh
 * total energy  :  -137.6463150 Eh     change       -0.1763124E-05 Eh
 * total energy  :  -137.6463164 Eh     change       -0.1447004E-05 Eh
 * total energy  :  -137.6463499 Eh     change       -0.9257392E-06 Eh
 * total energy  :  -137.6463507 Eh     change       -0.7877162E-06 Eh
 * total energy  :  -137.6463515 Eh     change       -0.7824186E-06 Eh
 * total energy  :  -137.6463529 Eh     change       -0.1410983E-05 Eh
 * total energy  :  -137.6463543 Eh     change       -0.1371893E-05 Eh
 * total energy  :  -137.6463558 Eh     change       -0.1492257E-05 Eh
 * total energy  :  -137.6463569 Eh     change       -0.1069622E-05 Eh
 * total energy  :  -137.6463576 Eh     change       -0.7647121E-06 Eh
 * total energy  :  -137.6463576 Eh     change       -0.1118812E-07 Eh
   *** GEOMETRY OPTIMIZATION CONVERGED AFTER 44 ITERATIONS ***

 final structure:
================
85
 xtb: 6.7.1 (edcfbbe)
O           -1.57747035874541        1.30890464034476       -3.48456902240015
C           -1.68446470990998        0.63475779076808       -2.41506330769335
C           -2.92633597276371        0.57539117084395       -1.70273827739810
C           -3.04607807823442        0.18094155872036       -0.35089201733926
C           -4.26539516781969        0.17911965070375        0.27576243373098
C           -5.41566352528801        0.58716386277788       -0.40886957236039
N           -6.67203201321009        0.57539031150229        0.24801887359648
C           -7.31626248729991        1.76311403433682        0.54985413861492
C           -6.75186628099486        3.00513126978117        0.26048989502526
C           -7.42666606827411        4.17141592479818        0.56779359382902
C           -8.67122366447175        4.12554744459808        1.17505532721241
C           -9.23818875325109        2.90224796781670        1.49126185965369
C           -8.56903615795264        1.72824576036350        1.18862224114395
O           -9.16930359760916        0.55366157014330        1.54531187815425
C           -8.51368583854574       -0.60951217017334        1.25619281012009
C           -9.12853113413062       -1.79473450402070        1.62380650255297
C           -8.52526068436899       -3.00785210956138        1.33711474724721
C           -7.31148352680116       -3.03242123065349        0.66944582735132
C           -6.68980474387359       -1.85478109524472        0.29971103106033
C           -7.27028771536575       -0.62263088383022        0.59876379756227
C           -5.31017459159383        1.03171161151161       -1.73336256634265
C           -4.09524913250971        1.03916303432339       -2.35982754088951
C           -0.50050363373519       -0.08111444906860       -1.92480182357057
C            0.76907517836911        0.45749975882972       -2.21112459795559
C            1.92862688481609       -0.15590447864707       -1.79807022489141
C            1.82522314994495       -1.34821623739851       -1.09112505178265
C            0.56225660229387       -1.94208615407118       -0.86181837941398
C           -0.59780790469667       -1.32080624405164       -1.28893428821250
C            0.81476153242800       -3.19192015486301       -0.19606046910148
C           -0.01023052573643       -4.19246710315582        0.29586601317319
C            0.56829845289465       -5.27904746072385        0.92384279981382
C            1.94944159351543       -5.36400177204889        1.07774648733341
C            2.79149119374961       -4.37871492545973        0.59690075478641
C            2.21808004533624       -3.29825361370909       -0.05805039515596
N            2.81700067179390       -2.17790471873166       -0.60166770083645
C            4.19240503414414       -1.92779653120614       -0.64054810316526
C            5.06780164756452       -2.90555214718556       -1.10935970798645
C            6.42796201860899       -2.65959317336590       -1.12510103904553
C            6.93015271720277       -1.44783388426543       -0.68728517619724
C            6.05969249918789       -0.46701463040853       -0.21626002388314
N            6.56702992772236        0.75065070427368        0.25375483233707
C            6.13803650178719        2.01158353790332       -0.11443316744677
C            5.17592952167444        2.38390216852354       -1.04127168629950
C            4.95699301697026        3.73321684892839       -1.24168359954977
C            5.68364666740067        4.69756803313980       -0.54737285312432
C            6.66178301664002        4.33440503610996        0.35689658626445
C            6.89732220617184        2.98368981687832        0.57594332612468
C            7.82430207987506        2.26508038615065        1.40506315112807
C            8.80059916052363        2.66050508853417        2.30951330487309
C            9.51856757378166        1.68728987638527        2.97563155604980
C            9.26147583501705        0.33525389473206        2.76094754933820
C            8.29508617741683       -0.08258393474512        1.86590529099365
C            7.58851705224219        0.89056459273512        1.17392891199729
C            4.69117167321240       -0.70858975941554       -0.19323694294523
H           -2.16360842001190       -0.08428925320714        0.21072008152959
H           -4.34770141112995       -0.11591411750799        1.31283975131858
H           -5.77863575210026        3.04475052876309       -0.20155521652798
H           -6.97315475339525        5.12149713010998        0.33267155451208
H           -9.19781136404246        5.03633349380756        1.41153123935310
H          -10.19791316662178        2.83396130213253        1.97766565943979
H          -10.07979940721453       -1.74302892340567        2.12848588241824
H           -9.00800245915879       -3.92729359036969        1.62753283747493
H           -6.84401281665350       -3.97480560824133        0.43035771117820
H           -5.75102917886556       -1.87651059838335       -0.22992261494752
H           -6.20111376908962        1.35519763833582       -2.25275642941847
H           -3.99437283509656        1.37751659117023       -3.37965010200620
H            0.81112055260734        1.38477084345905       -2.76124258392331
H            2.89042411352449        0.27309264421432       -2.03272725176339
H           -1.55293199271069       -1.80649133389963       -1.16277248363360
H           -1.08219509807960       -4.11683737126060        0.19194490779234
H           -0.05598079409376       -6.07041916926968        1.31123667177466
H            2.37306955481048       -6.21678554333720        1.58743272743415
H            3.85955574321191       -4.44661750416369        0.73834683547209
H            4.67471851877435       -3.84165658630233       -1.47464334187465
H            7.10367466932989       -3.41528127920695       -1.49663437013541
H            7.98986471841186       -1.24771487510114       -0.72186212919907
H            4.62308413330804        1.64632708064645       -1.60162424262802
H            4.20873312651781        4.04574478756762       -1.95467789436032
H            5.48243062775461        5.74261055671836       -0.72980050491746
H            7.23773872562902        5.08125837603653        0.88222011840821
H            8.98745363116080        3.70863018032008        2.48814989493208
H           10.28426927077903        1.97325331591879        3.68128350228606
H            9.82735890218774       -0.40361657321464        3.30903303255660
H            8.09117420845903       -1.13289437235301        1.72150447199176
H            4.01763610209500        0.03655636396458        0.20230525478385

 projected vibrational frequencies (cm⁻¹)
eigval :       -0.00    -0.00     0.00     0.00     0.00     0.00
eigval :        6.20     9.64    11.71    18.53    21.17    27.25
eigval :       36.16    40.79    52.39    54.61    61.77    63.56
eigval :       83.30   101.51   102.76   114.31   117.63   123.35
eigval :      129.33   143.09   153.74   156.17   181.43   194.96
eigval :      215.96   227.30   237.71   243.95   246.96   256.13
eigval :      268.05   271.29   277.16   278.91   287.53   309.94
eigval :      322.48   341.67   350.87   375.54   381.80   385.79
eigval :      393.73   397.85   402.11   413.25   421.61   422.53
eigval :      425.34   431.10   432.56   438.59   444.16   458.41
eigval :      466.45   490.69   499.67   504.47   516.23   520.92
eigval :      529.64   531.85   540.67   541.59   556.18   564.67
eigval :      573.98   583.36   588.86   594.04   596.76   602.77
eigval :      607.13   613.15   628.62   640.24   652.31   663.83
eigval :      667.70   668.88   671.88   673.56   675.07   687.82
eigval :      703.59   708.21   716.47   748.92   762.06   767.76
eigval :      773.63   776.90   778.83   779.40   790.91   794.77
eigval :      803.58   807.33   814.50   836.50   855.95   864.43
eigval :      865.79   867.75   868.67   871.65   873.74   880.76
eigval :      891.97   896.11   898.46   899.25   899.83   901.03
eigval :      902.57   903.07   905.76   907.61   908.98   910.97
eigval :      913.84   917.58   918.75   920.45   922.19   922.85
eigval :      923.31   932.61   947.77   994.90   996.48  1009.27
eigval :     1016.67  1023.22  1069.13  1072.19  1073.29  1083.37
eigval :     1084.91  1109.88  1113.85  1117.90  1120.57  1126.75
eigval :     1127.42  1140.98  1150.97  1153.74  1163.08  1167.45
eigval :     1172.38  1173.36  1176.82  1179.23  1180.98  1187.27
eigval :     1189.09  1199.11  1208.63  1215.29  1228.13  1232.36
eigval :     1235.28  1237.02  1243.23  1249.05  1253.39  1254.22
eigval :     1256.33  1272.30  1299.56  1299.79  1302.86  1304.75
eigval :     1310.20  1318.44  1319.04  1331.08  1340.25  1344.61
eigval :     1347.54  1358.03  1359.30  1361.35  1372.07  1409.60
eigval :     1413.82  1416.16  1417.66  1420.08  1421.09  1427.42
eigval :     1440.08  1441.22  1442.63  1453.08  1463.04  1464.70
eigval :     1471.98  1477.19  1478.10  1480.51  1488.37  1534.84
eigval :     1553.48  1555.61  1560.11  1567.15  1572.67  1574.51
eigval :     1575.30  1579.14  1585.43  1585.83  1589.47  1598.52
eigval :     1600.98  1613.41  3065.80  3070.95  3076.83  3076.87
eigval :     3079.82  3082.00  3082.36  3085.66  3086.27  3088.20
eigval :     3089.07  3089.64  3090.41  3093.37  3093.71  3095.95
eigval :     3096.44  3096.54  3097.46  3097.95  3099.23  3100.63
eigval :     3100.79  3105.20  3105.28  3105.50  3105.67  3114.34
eigval :     3114.94  3116.63  3116.97

   temp. (K)  partition function   enthalpy   heat capacity  entropy
                                   cal/mol     cal/K/mol   cal/K/mol   J/K/mol
 298.15  VIB  0.259E+20            24493.617    156.987    151.911
         ROT  0.160E+09              888.752      2.981     40.521
         INT  0.414E+28            25382.369    159.968    192.432
         TR   0.177E+29             1481.254      4.968     45.471
         TOT                       26863.6232   164.9359   237.9034   995.3876

       T/K    H(0)-H(T)+PV         H(T)/Eh          T*S/Eh         G(T)/Eh
   ------------------------------------------------------------------------
    298.15    0.428099E-01    0.683653E+00    0.113036E+00    0.570618E+00
   ------------------------------------------------------------------------

         :::::::::::::::::::::::::::::::::::::::::::::::::::::
         ::                  THERMODYNAMIC                  ::
         :::::::::::::::::::::::::::::::::::::::::::::::::::::
         :: total free energy        -137.075739997453 Eh   ::
         ::.................................................::
         :: total energy             -137.646357617276 Eh   ::
         :: zero point energy           0.640843271059 Eh   ::
         :: G(RRHO) w/o ZPVE           -0.070225651237 Eh   ::
         :: G(RRHO) contrib.            0.570617619822 Eh   ::
         :::::::::::::::::::::::::::::::::::::::::::::::::::::

           -------------------------------------------------
          | TOTAL ENERGY             -137.646357617276 Eh   |
          | TOTAL ENTHALPY           -136.962704437732 Eh   |
          | TOTAL FREE ENERGY        -137.075739997453 Eh   |
          | GRADIENT NORM               0.000059052168 Eh/α |
           -------------------------------------------------

 * finished run on 2025/08/21 at 18:02:36.764
