   * xtb version 6.7.1 (edcfbbe) compiled by 'albert@albert-system' on 2024-07-22

   ID    Z sym.   atoms
    1    8 O      1, 14
    2    6 C      2-6, 8-13, 15-34, 36-40, 42-54
    3    7 N      7, 35, 41
    4    1 H      55-85

          program call               : xtb data2507/gas/mCP-BP-DMAC/mCP-BP-DMAC_gas_S0_finalOpt.xtbopt.xyz --gfn 2 --spinpol --tblite --uhf 2 --ohess vtight --parallel 40 --molden --ceasefiles --namespace data2507/gas/mCP-BP-DMAC/mCP-BP-DMAC_gas_T1_preOpt
 * total energy  :  -137.6392005 Eh     change        0.7584117E-07 Eh
 * total energy  :  -137.6430327 Eh     change       -0.3832168E-02 Eh
 * total energy  :  -137.6441355 Eh     change       -0.1102835E-02 Eh
 * total energy  :  -137.6443300 Eh     change       -0.1945052E-03 Eh
 * total energy  :  -137.6445176 Eh     change       -0.1875432E-03 Eh
 * total energy  :  -137.6446599 Eh     change       -0.1423608E-03 Eh
 * total energy  :  -137.6447835 Eh     change       -0.1235371E-03 Eh
 * total energy  :  -137.6448511 Eh     change       -0.6765885E-04 Eh
 * total energy  :  -137.6448912 Eh     change       -0.4009898E-04 Eh
 * total energy  :  -137.6449339 Eh     change       -0.4262742E-04 Eh
 * total energy  :  -137.6463608 Eh     change       -0.1899675E-06 Eh
 * total energy  :  -137.6463610 Eh     change       -0.2021750E-06 Eh
 * total energy  :  -137.6463612 Eh     change       -0.2074400E-06 Eh
 * total energy  :  -137.6463614 Eh     change       -0.2277068E-06 Eh
 * total energy  :  -137.6463616 Eh     change       -0.1783660E-06 Eh
 * total energy  :  -137.6463617 Eh     change       -0.1277751E-06 Eh
 * total energy  :  -137.6463618 Eh     change       -0.1021137E-06 Eh
 * total energy  :  -137.6463619 Eh     change       -0.1122640E-06 Eh
 * total energy  :  -137.6463620 Eh     change       -0.3718176E-07 Eh
   *** GEOMETRY OPTIMIZATION CONVERGED AFTER 134 ITERATIONS ***

 final structure:
================
85
 xtb: 6.7.1 (edcfbbe)
O           -1.57305170621794        1.73346236616473       -3.25223936479355
C           -1.68495044086109        0.93529888272253       -2.27218707701654
C           -2.93222061492180        0.79233351068955       -1.58029736699871
C           -3.06087208766887        0.24615863942924       -0.28334661176318
C           -4.28623351584620        0.16259978528392        0.32587885803558
C           -5.43358607116783        0.63654607720441       -0.32004089540286
N           -6.69679781046773        0.53263335719844        0.31511571216828
C           -7.36310736821665        1.66829216822308        0.74308746007993
C           -6.81660907758004        2.94369384166300        0.60330616688248
C           -7.51347993415188        4.05692128243634        1.03362176307999
C           -8.76263461073549        3.92309763404837        1.61795302263928
C           -9.31212219809563        2.66315194238162        1.78680099607873
C           -8.62097957296839        1.54170021081692        1.35987792176637
O           -9.20520251609251        0.32512172067860        1.57408049684346
C           -8.53020126844224       -0.78715713545426        1.15739162130355
C           -9.13114461457393       -2.01545829513432        1.37666270525172
C           -8.50806011647887       -3.17830914351260        0.95557519387863
C           -7.28832115739690       -3.10799171366433        0.30222679297647
C           -6.68034221735598       -1.88687779688938        0.08025700866045
C           -7.28092130948168       -0.70628469924984        0.51626150810653
C           -5.31891989838985        1.23357593189532       -1.58229015352392
C           -4.09789912003306        1.32283262148328       -2.19051587837975
C           -0.50572610268037        0.16181884672639       -1.86789903494224
C            0.76690345896611        0.71889289585771       -2.10229869782173
C            1.92399528238268        0.05416070693987       -1.77021736308120
C            1.81566929360354       -1.20838043907444       -1.19894610971156
C            0.54911637562950       -1.81305303044367       -1.02428917851637
C           -0.60859748553760       -1.13968707057759       -1.37109325408788
C            0.79544418350758       -3.13083112160694       -0.50272996452691
C           -0.03468083213663       -4.17210453810106       -0.11509323643605
C            0.53901854974324       -5.32650077479316        0.38294311480365
C            1.92067819870424       -5.44037863369551        0.51137553826945
C            2.76784013642117       -4.41551039856016        0.13319174351998
C            2.19890114702976       -3.26421796920384       -0.39218810969854
N            2.80379130418939       -2.09595395610827       -0.81467969100612
C            4.18145563078703       -1.85835026948556       -0.84974333252878
C            5.03630253693403       -2.78836017906982       -1.43846897959493
C            6.39888672114940       -2.55636411336926       -1.45335540534403
C            6.92385408344943       -1.40457411380896       -0.89644525905985
C            6.07410088377464       -0.47192497826201       -0.30525467856334
N            6.60405463611408        0.68310765995051        0.28308252328835
C            6.18224892897930        1.97999609832679        0.06035246022261
C            5.20988016229325        2.45811633388135       -0.80518090473952
C            5.00090922880979        3.82285576740891       -0.85494539096825
C            5.74740768245859        4.70044327376001       -0.07222103411314
C            6.73610926595819        4.23376069804216        0.77103206516098
C            6.96203834289374        2.86544306147637        0.83876774622222
C            7.89505734777304        2.05367145488371        1.56931656386763
C            8.89016197858624        2.34081635979081        2.49387990536612
C            9.60934701693183        1.29534317098764        3.03806634210341
C            9.33531294357840       -0.02335306358754        2.68291681228000
C            8.35003184298984       -0.33392450086265        1.76510033706229
C            7.64171063059448        0.71417189408183        1.19515898598743
C            4.70331263150616       -0.70051566682085       -0.28200745988698
H           -2.18133348827961       -0.07370044641651        0.25386033342034
H           -4.37593423770510       -0.25031358376631        1.32126946595870
H           -5.83984061805706        3.05067684767143        0.15978795071836
H           -7.07368904320909        5.03447370858787        0.91285779833928
H           -9.30645180606395        4.79281468571797        1.95051515402430
H          -10.27494405754255        2.52510735833030        2.25181619979096
H          -10.08745827576162       -2.03609305841165        1.87396524239246
H           -8.98009668286261       -4.13185147602606        1.13073391970655
H           -6.80536880116475       -4.00931612434525       -0.04149869446521
H           -5.73684902240358       -1.83383800357480       -0.43864825180446
H           -6.20744770648688        1.60825989175564       -2.07044200704920
H           -3.99000459568325        1.77806142041469       -3.16303852272848
H            0.81290234961289        1.70098796472372       -2.54683231033975
H            2.88759375266921        0.49874951135727       -1.96480828159954
H           -1.56639326325698       -1.63003049424042       -1.29248239963422
H           -1.10682046639872       -4.07591654360547       -0.19823882407067
H           -0.08940673586894       -6.15014754589766        0.68752242695261
H            2.34064248997408       -6.34804009561340        0.91913188282150
H            3.83652634608093       -4.50802305136370        0.25468020166655
H            4.62512569089560       -3.67488596367521       -1.89591926203812
H            7.05834129346125       -3.27405819458072       -1.91781777187802
H            7.98513173552097       -1.21268741728315       -0.92968262281775
H            4.64187962650154        1.78984656500943       -1.43321484834490
H            4.24499539407131        4.21668334460057       -1.51782584528303
H            5.55333597733444        5.76063624413810       -0.13701964532689
H            7.32733723706067        4.91481769393053        1.36439854382714
H            9.09050902390268        3.36186990736861        2.78146293565491
H           10.38953601476222        1.49698411460560        3.75686114663569
H            9.90302563810688       -0.82176724927571        3.13765415613208
H            8.13342578456319       -1.36067707188679        1.51122925041720
H            4.04642005136972        0.00424820995449        0.20496710083737

 projected vibrational frequencies (cm⁻¹)
eigval :       -0.00    -0.00    -0.00     0.00     0.00     0.00
eigval :        6.11     9.55    11.44    18.49    20.94    27.28
eigval :       36.24    40.84    52.38    54.43    61.93    63.16
eigval :       83.10   101.33   102.65   114.37   117.47   123.10
eigval :      129.90   142.91   153.97   156.04   181.80   194.91
eigval :      216.12   227.36   237.86   243.90   246.74   256.43
eigval :      268.22   271.31   277.15   279.07   287.50   310.18
eigval :      322.77   341.65   350.88   375.58   381.59   385.90
eigval :      393.79   397.55   401.91   413.35   421.52   422.29
eigval :      425.33   430.97   432.67   438.41   443.94   458.25
eigval :      466.62   491.10   499.68   504.11   516.14   520.81
eigval :      529.62   531.79   540.65   541.73   556.17   564.58
eigval :      573.69   583.28   588.79   593.97   596.78   602.66
eigval :      607.17   613.20   628.49   640.29   652.50   664.02
eigval :      667.66   668.78   671.83   673.55   675.07   688.51
eigval :      703.52   708.20   716.32   748.25   761.93   767.74
eigval :      773.55   776.76   778.70   779.34   791.22   795.07
eigval :      803.45   806.75   814.02   836.69   856.01   864.42
eigval :      865.66   867.74   868.55   871.54   873.80   880.66
eigval :      891.90   896.03   898.38   899.21   899.74   900.90
eigval :      902.51   903.21   905.73   907.45   908.77   911.02
eigval :      913.90   917.48   918.70   920.36   922.72   922.82
eigval :      923.29   932.43   947.61   994.87   996.47  1009.00
eigval :     1016.43  1022.98  1068.99  1072.07  1073.00  1083.38
eigval :     1084.86  1109.83  1113.54  1117.54  1120.34  1126.61
eigval :     1127.60  1141.17  1150.90  1153.32  1162.72  1167.44
eigval :     1170.48  1173.28  1176.65  1179.01  1180.86  1187.16
eigval :     1188.89  1199.00  1208.26  1214.55  1227.79  1232.36
eigval :     1235.11  1236.78  1243.00  1248.95  1253.69  1254.19
eigval :     1256.28  1272.23  1299.45  1299.65  1302.67  1304.70
eigval :     1310.08  1318.42  1319.01  1331.10  1340.08  1344.45
eigval :     1348.12  1357.94  1359.17  1361.23  1371.85  1409.48
eigval :     1413.17  1415.73  1417.57  1419.64  1421.12  1426.93
eigval :     1439.97  1441.19  1442.48  1452.75  1462.85  1464.44
eigval :     1471.67  1477.00  1478.16  1480.39  1488.14  1534.39
eigval :     1553.45  1555.22  1560.10  1566.93  1573.08  1574.31
eigval :     1575.27  1578.82  1585.33  1585.73  1589.28  1598.26
eigval :     1600.80  1613.06  3065.91  3071.21  3076.89  3076.96
eigval :     3079.98  3082.02  3082.47  3085.86  3086.33  3088.82
eigval :     3089.16  3089.87  3090.38  3093.78  3093.92  3095.74
eigval :     3096.33  3096.58  3097.37  3098.02  3099.31  3100.65
eigval :     3100.99  3105.15  3105.22  3105.53  3105.58  3114.60
eigval :     3115.15  3116.46  3116.80

   temp. (K)  partition function   enthalpy   heat capacity  entropy
                                   cal/mol     cal/K/mol   cal/K/mol   J/K/mol
 298.15  VIB  0.275E+20            24495.867    156.993    151.977
         ROT  0.160E+09              888.752      2.981     40.519
         INT  0.440E+28            25384.619    159.974    192.496
         TR   0.177E+29             1481.254      4.968     45.471
         TOT                       26865.8728   164.9425   237.9673   995.6551

       T/K    H(0)-H(T)+PV         H(T)/Eh          T*S/Eh         G(T)/Eh
   ------------------------------------------------------------------------
    298.15    0.428135E-01    0.683619E+00    0.113066E+00    0.570553E+00
   ------------------------------------------------------------------------

         :::::::::::::::::::::::::::::::::::::::::::::::::::::
         ::                  THERMODYNAMIC                  ::
         :::::::::::::::::::::::::::::::::::::::::::::::::::::
         :: total free energy        -137.075809128773 Eh   ::
         ::.................................................::
         :: total energy             -137.646361969021 Eh   ::
         :: zero point energy           0.640805277292 Eh   ::
         :: G(RRHO) w/o ZPVE           -0.070252437044 Eh   ::
         :: G(RRHO) contrib.            0.570552840248 Eh   ::
         :::::::::::::::::::::::::::::::::::::::::::::::::::::

           -------------------------------------------------
          | TOTAL ENERGY             -137.646361969021 Eh   |
          | TOTAL ENTHALPY           -136.962743198195 Eh   |
          | TOTAL FREE ENERGY        -137.075809128773 Eh   |
          | GRADIENT NORM               0.000049499534 Eh/α |
           -------------------------------------------------

 * finished run on 2025/08/21 at 17:54:47.967
