   * xtb version 6.7.1 (edcfbbe) compiled by 'albert@albert-system' on 2024-07-22

   ID    Z sym.   atoms
    1    8 O      1, 14
    2    6 C      2-6, 8-13, 15-34, 36-40, 42-54
    3    7 N      7, 35, 41
    4    1 H      55-85

          program call               : xtb data2507/gas/mCP-BP-DMAC/mCP-BP-DMAC_gas_S0_crest.xyz --gfn 2 --ohess vtight --parallel 40 --molden --ceasefiles --namespace data2507/gas/mCP-BP-DMAC/mCP-BP-DMAC_gas_S0_finalOpt
          :  Hamiltonian                  GFN2-xTB          :
 * total energy  :  -137.7262610 Eh     change       -0.1591161E-08 Eh
 * total energy  :  -137.7262620 Eh     change       -0.9620611E-06 Eh
 * total energy  :  -137.7262628 Eh     change       -0.7928467E-06 Eh
 * total energy  :  -137.7262643 Eh     change       -0.1541941E-05 Eh
 * total energy  :  -137.7262657 Eh     change       -0.1445908E-05 Eh
 * total energy  :  -137.7262666 Eh     change       -0.8295281E-06 Eh
 * total energy  :  -137.7262670 Eh     change       -0.4698516E-06 Eh
 * total energy  :  -137.7262674 Eh     change       -0.3176596E-06 Eh
 * total energy  :  -137.7262676 Eh     change       -0.2509515E-06 Eh
 * total energy  :  -137.7262676 Eh     change       -0.1485748E-07 Eh
   *** GEOMETRY OPTIMIZATION CONVERGED AFTER 10 ITERATIONS ***

 final structure:
================
85
 xtb: 6.7.1 (edcfbbe)
O           -1.55534165448400        2.40260411829503       -2.93998186316056
C           -1.65640097008659        1.49673412845048       -2.13364820003220
C           -2.95014079787347        1.21244211641189       -1.45779266591713
C           -3.01720227626456        0.83281088091978       -0.11844438684560
C           -4.23948261830633        0.60044480936787        0.47911897082109
C           -5.41625350500878        0.73036836612911       -0.25540554185711
N           -6.66086062339762        0.46575600801990        0.35015601553622
C           -7.62350109803746        1.47261070037763        0.46736713664681
C           -7.38083961577639        2.78132710616904        0.06978606411539
C           -8.35724462139838        3.75672792606307        0.20388649382433
C           -9.58657150374564        3.44410596148906        0.74733780417393
C           -9.83287659685541        2.14936393959209        1.17962217731735
C           -8.86200190496587        1.17389560314686        1.05036396046653
O           -9.16804783901387       -0.07489558761269        1.53229979664349
C           -8.20722523383804       -1.04847837489818        1.42321677138255
C           -8.52921992167907       -2.30153223343529        1.91020974244049
C           -7.62436284253325       -3.34774509362387        1.80708643257368
C           -6.40549739963704       -3.13330709929212        1.19715973439075
C           -6.07683885198881       -1.87769811017895        0.70889445318476
C           -6.95829535563855       -0.81105405396362        0.83316754136280
C           -5.35425044547583        1.12739572715639       -1.58940549584254
C           -4.13201864573600        1.37949233000163       -2.17677486462444
C           -0.51468526542404        0.62374397554358       -1.78638351974535
C            0.78135616370904        1.12347208255181       -1.99118433795914
C            1.90221828932618        0.37387512352223       -1.71628756752880
C            1.72061981763898       -0.91486104753817       -1.22853220436078
C            0.41998164819922       -1.45085901313918       -1.06015721071411
C           -0.69621548629841       -0.68048546629397       -1.33685642602643
C            0.59274000992814       -2.80434856485288       -0.60964572781769
C           -0.29317233646845       -3.81471083818537       -0.26028776594397
C            0.22008883681978       -5.02328075180135        0.16614875349179
C            1.59523291380974       -5.22470673751465        0.26081001313376
C            2.49585431871695       -4.23326654199530       -0.07963965217094
C            1.98587629295125       -3.02496574204481       -0.53071989603219
N            2.65285086184694       -1.87283252617370       -0.90792708740836
C            4.04709856123199       -1.72327705288526       -0.96839868875050
C            4.81548110691451       -2.65615843355317       -1.65892797617901
C            6.19054431065149       -2.51433292381912       -1.70038244053938
C            6.80782175112780       -1.44991720405540       -1.07046643234815
C            6.04316431221562       -0.51518067134498       -0.37538634731007
N            6.66656909546018        0.54939397950689        0.28381619443922
C            6.32095120441357        1.88475483572508        0.18731905184509
C            5.34726785043600        2.49369370572659       -0.58974743328856
C            5.22677446644777        3.86832029437379       -0.51896629554600
C            6.06127411224002        4.62903357335155        0.29623170676979
C            7.05147330123031        4.03241151246165        1.05085974778396
C            7.18934675041687        2.65176585738914        0.99651636288417
C            8.09820970767161        1.72609942168122        1.61316698799856
C            9.14829991299757        1.87465661629685        2.50939651105206
C            9.82109226220957        0.74606029850524        2.93286492882332
C            9.44704266552670       -0.51934531334659        2.48699246585366
C            8.40564783783958       -0.69204136813734        1.59505623243894
C            7.74369557018096        0.44080683573438        1.14467745368068
C            4.66015786670518       -0.65589175643556       -0.32386289469190
H           -2.11123207851856        0.74780887497129        0.46343863751983
H           -4.29385943468466        0.32007472315807        1.52086793075118
H           -6.41871182106616        3.04433807248661       -0.34081260680848
H           -8.14241133378015        4.76385740027080       -0.11849259830209
H          -10.35108343636814        4.19794183445307        0.84948619651446
H          -10.77483829310046        1.87542607770468        1.62725345604884
H           -9.49843536107191       -2.43912024009698        2.36220966237366
H           -7.88363050443671       -4.32105969231597        2.19258456764575
H           -5.69820653736288       -3.94154950487839        1.09103131645682
H           -5.12765225604253       -1.72921148954864        0.21845252621646
H           -6.26774595500503        1.23246868862519       -2.15579150998272
H           -4.07131063035515        1.69217727172001       -3.20838621135952
H            0.87647074303123        2.12777620710601       -2.37555901239993
H            2.88993953302875        0.76900324827267       -1.89422210021419
H           -1.68514594097264       -1.10102897157565       -1.23579409183413
H           -1.35874099708651       -3.65224605620201       -0.31901521153575
H           -0.45015143039675       -5.82415432772071        0.43984425410234
H            1.96633234700952       -6.17618777519254        0.61146689152506
H            3.55932366943398       -4.39312209462604        0.01327434359797
H            4.33098571243271       -3.47439613992303       -2.16890541576448
H            6.78589765635001       -3.23334582017797       -2.24254759818904
H            7.87831204500279       -1.32662720514506       -1.12480331927600
H            4.71121798269044        1.91800775044554       -1.24391334583963
H            4.47182252655860        4.36276144558231       -1.11196531020192
H            5.93498659403976        5.70087286204358        0.32661947284475
H            7.71112791656521        4.62286106113119        1.66851117539199
H            9.42571130757986        2.85427174151844        2.86806681076537
H           10.64278242444304        0.83936934306640        3.62710124698743
H            9.98031675284794       -1.38601420596338        2.84886231932111
H            8.11263556032073       -1.67955949956545        1.27164588915701
H            4.06668080838083        0.04648904383714        0.24176002245426

          :  Hamiltonian                  GFN2-xTB          :
         :: gradient norm              0.000178519836 Eh/a0 ::
         :: HOMO-LUMO gap              1.619187905956 eV    ::
         :: SCC energy              -140.206587321034 Eh    ::
         :: -> dispersion             -0.120767201945 Eh    ::
         :: repulsion energy           2.480319690566 Eh    ::

    * Orbital Energies and Occupations

         #    Occupation            Energy/Eh            Energy/eV
      -------------------------------------------------------------
         1        2.0000           -0.7263717             -19.7656
       ...           ...                  ...                  ...
       115        2.0000           -0.4189461             -11.4001
       116        2.0000           -0.4169720             -11.3464
       117        2.0000           -0.4153462             -11.3021
       118        2.0000           -0.4144565             -11.2779
       119        2.0000           -0.4112674             -11.1912
       120        2.0000           -0.4085727             -11.1178
       121        2.0000           -0.3910480             -10.6410
       122        2.0000           -0.3888544             -10.5813
       123        2.0000           -0.3856632             -10.4944
       124        2.0000           -0.3819072             -10.3922
       125        2.0000           -0.3767297             -10.2513
       126        2.0000           -0.3677268             -10.0064
       127        2.0000           -0.3420961              -9.3089 (HOMO)
       128                         -0.2825923              -7.6897 (LUMO)
       129                         -0.2579630              -7.0195
       130                         -0.2523154              -6.8659
       131                         -0.2479299              -6.7465
       132                         -0.2444299              -6.6513
       133                         -0.2398799              -6.5275
       134                         -0.2385743              -6.4919
       135                         -0.2367748              -6.4430
       136                         -0.2282118              -6.2100
       137                         -0.2251403              -6.1264
       138                         -0.2185917              -5.9482
       ...                                ...                  ...
       247                          0.7427661              20.2117
      -------------------------------------------------------------
                  HL-Gap            0.0595038 Eh            1.6192 eV

     #   Z          covCN         q      C6AA      α(0)
     1   8 O        0.858    -0.379    21.257     6.181
     2   6 C        2.829     0.224    23.294     7.909
     3   6 C        2.972    -0.013    28.345     8.733
     4   6 C        2.920    -0.027    28.685     8.783
     5   6 C        2.920    -0.041    29.013     8.833
     6   6 C        2.921     0.069    26.447     8.433
     7   7 N        2.751    -0.070    22.603     7.061
     8   6 C        2.922     0.042    27.052     8.529
     9   6 C        2.924    -0.060    29.482     8.904
    10   6 C        2.919    -0.038    28.952     8.824
    11   6 C        2.919    -0.040    28.994     8.830
    12   6 C        2.920    -0.056    29.395     8.891
    13   6 C        2.884     0.124    25.268     8.241
    14   8 O        1.709    -0.255    18.228     5.764
    15   6 C        2.884     0.125    25.257     8.239
    16   6 C        2.920    -0.056    29.399     8.892
    17   6 C        2.919    -0.040    29.005     8.832
    18   6 C        2.919    -0.039    28.969     8.826
    19   6 C        2.924    -0.060    29.497     8.907
    20   6 C        2.922     0.042    27.048     8.529
    21   6 C        2.920    -0.040    29.000     8.831
    22   6 C        2.924    -0.019    28.484     8.752
    23   6 C        2.972    -0.024    28.607     8.773
    24   6 C        2.929    -0.023    28.571     8.766
    25   6 C        2.908    -0.048    29.196     8.860
    26   6 C        3.075     0.052    26.751     8.480
    27   6 C        3.068    -0.015    28.327     8.727
    28   6 C        2.914    -0.030    28.757     8.794
    29   6 C        3.067    -0.015    28.328     8.728
    30   6 C        2.912    -0.031    28.782     8.797
    31   6 C        2.920    -0.038    28.956     8.824
    32   6 C        2.924    -0.032    28.786     8.799
    33   6 C        2.910    -0.049    29.216     8.863
    34   6 C        3.078     0.047    26.860     8.497
    35   7 N        2.803    -0.038    21.966     6.961
    36   6 C        2.913     0.065    26.537     8.447
    37   6 C        2.922    -0.047    29.175     8.858
    38   6 C        2.919    -0.027    28.680     8.782
    39   6 C        2.922    -0.047    29.164     8.856
    40   6 C        2.912     0.069    26.467     8.436
    41   7 N        2.802    -0.044    22.093     6.981
    42   6 C        3.073     0.046    26.888     8.502
    43   6 C        2.910    -0.050    29.241     8.867
    44   6 C        2.924    -0.033    28.811     8.802
    45   6 C        2.920    -0.040    28.987     8.829
    46   6 C        2.913    -0.032    28.802     8.800
    47   6 C        3.068    -0.016    28.344     8.730
    48   6 C        3.068    -0.016    28.337     8.729
    49   6 C        2.913    -0.032    28.805     8.801
    50   6 C        2.920    -0.040    28.996     8.830
    51   6 C        2.924    -0.033    28.824     8.804
    52   6 C        2.910    -0.051    29.271     8.871
    53   6 C        3.074     0.046    26.888     8.502
    54   6 C        2.925    -0.057    29.409     8.893
    55   1 H        0.926     0.042     2.427     2.436
    56   1 H        0.926     0.044     2.396     2.421
    57   1 H        0.926     0.037     2.491     2.468
    58   1 H        0.926     0.037     2.486     2.466
    59   1 H        0.926     0.038     2.472     2.459
    60   1 H        0.926     0.050     2.317     2.380
    61   1 H        0.926     0.050     2.316     2.380
    62   1 H        0.926     0.038     2.480     2.463
    63   1 H        0.926     0.035     2.521     2.483
    64   1 H        0.926     0.032     2.553     2.499
    65   1 H        0.926     0.046     2.368     2.407
    66   1 H        0.926     0.057     2.229     2.335
    67   1 H        0.926     0.058     2.221     2.331
    68   1 H        0.926     0.033     2.539     2.492
    69   1 H        0.926     0.037     2.486     2.466
    70   1 H        0.926     0.033     2.540     2.492
    71   1 H        0.926     0.033     2.549     2.497
    72   1 H        0.926     0.034     2.535     2.490
    73   1 H        0.926     0.031     2.576     2.510
    74   1 H        0.926     0.046     2.373     2.409
    75   1 H        0.926     0.044     2.399     2.422
    76   1 H        0.926     0.048     2.349     2.397
    77   1 H        0.926     0.024     2.670     2.555
    78   1 H        0.926     0.033     2.550     2.497
    79   1 H        0.926     0.030     2.581     2.512
    80   1 H        0.926     0.032     2.552     2.498
    81   1 H        0.926     0.033     2.551     2.498
    82   1 H        0.926     0.030     2.593     2.518
    83   1 H        0.926     0.030     2.586     2.515
    84   1 H        0.926     0.027     2.635     2.538
    85   1 H        0.926     0.051     2.313     2.378

molecular dipole:
                 x           y           z       tot (Debye)
 q only:        1.086      -1.213       0.431
   full:        1.180      -1.379       0.453       4.755

 projected vibrational frequencies (cm⁻¹)
eigval :       -0.00    -0.00     0.00     0.00     0.00     0.00
eigval :        6.10     9.74    10.72    17.27    21.11    26.83
eigval :       31.51    41.53    49.80    54.05    55.83    65.02
eigval :       81.05    91.25   102.42   116.37   117.17   122.45
eigval :      130.89   143.05   153.23   160.60   181.18   195.48
eigval :      210.83   222.43   236.83   243.96   249.98   267.30
eigval :      270.80   272.37   274.59   283.94   286.36   297.19
eigval :      322.66   346.73   369.77   376.65   381.39   384.04
eigval :      393.82   398.74   412.25   417.78   421.68   425.29
eigval :      426.98   430.44   434.52   439.28   445.71   456.92
eigval :      472.76   510.15   512.94   516.47   519.77   523.15
eigval :      531.11   540.18   541.03   552.14   560.69   573.82
eigval :      583.45   588.28   591.03   598.19   603.75   607.65
eigval :      613.58   637.35   645.38   659.45   661.39   662.48
eigval :      668.20   671.95   674.86   688.02   694.44   708.27
eigval :      710.77   722.43   731.14   749.93   762.71   767.82
eigval :      776.05   777.97   779.57   779.78   796.77   805.11
eigval :      815.94   824.40   828.68   855.31   862.68   864.23
eigval :      866.18   870.86   873.86   875.71   883.70   889.33
eigval :      894.05   896.89   898.07   898.43   900.10   903.17
eigval :      904.18   906.67   909.37   913.56   914.97   915.07
eigval :      917.65   920.45   922.20   923.57   924.72   927.97
eigval :      933.90   935.90   966.17   997.66  1009.28  1016.89
eigval :     1020.28  1030.74  1069.62  1071.62  1073.90  1090.54
eigval :     1091.69  1108.50  1110.98  1119.89  1121.26  1127.31
eigval :     1132.30  1144.80  1152.47  1162.87  1167.05  1171.86
eigval :     1175.79  1177.11  1179.15  1180.91  1182.80  1187.40
eigval :     1190.33  1199.23  1201.74  1219.39  1229.90  1232.21
eigval :     1235.43  1243.17  1247.80  1251.01  1254.29  1262.03
eigval :     1263.01  1284.92  1299.81  1301.08  1306.33  1310.63
eigval :     1313.36  1315.78  1317.31  1339.13  1345.86  1356.01
eigval :     1356.13  1358.12  1360.49  1363.64  1374.72  1402.32
eigval :     1420.05  1421.75  1424.42  1425.50  1428.10  1443.05
eigval :     1464.74  1470.04  1474.95  1476.26  1479.60  1484.74
eigval :     1488.13  1488.88  1506.04  1556.79  1561.77  1567.78
eigval :     1571.60  1576.93  1580.87  1580.95  1583.12  1585.14
eigval :     1590.13  1591.18  1592.94  1600.29  1603.66  1611.42
eigval :     1615.49  1684.29  3077.31  3080.02  3080.36  3080.43
eigval :     3082.67  3084.66  3085.48  3086.86  3087.70  3088.11
eigval :     3089.79  3090.18  3090.29  3091.79  3092.26  3092.66
eigval :     3093.74  3097.13  3098.49  3098.59  3098.71  3099.21
eigval :     3099.39  3100.04  3101.19  3103.00  3105.52  3106.32
eigval :     3107.26  3112.84  3113.54

   temp. (K)  partition function   enthalpy   heat capacity  entropy
                                   cal/mol     cal/K/mol   cal/K/mol   J/K/mol
 298.15  VIB  0.367E+20            24351.014    155.471    151.470
         ROT  0.155E+09              888.752      2.981     40.454
         INT  0.568E+28            25239.767    158.452    191.925
         TR   0.177E+29             1481.254      4.968     45.471
         TOT                       26721.0206   163.4199   237.3960   993.2648

       T/K    H(0)-H(T)+PV         H(T)/Eh          T*S/Eh         G(T)/Eh
   ------------------------------------------------------------------------
    298.15    0.425827E-01    0.686557E+00    0.112794E+00    0.573762E+00
   ------------------------------------------------------------------------

         :::::::::::::::::::::::::::::::::::::::::::::::::::::
         ::                  THERMODYNAMIC                  ::
         :::::::::::::::::::::::::::::::::::::::::::::::::::::
         :: total free energy        -137.152505587799 Eh   ::
         ::.................................................::
         :: total energy             -137.726267630468 Eh   ::
         :: zero point energy           0.643973883876 Eh   ::
         :: G(RRHO) w/o ZPVE           -0.070211841207 Eh   ::
         :: G(RRHO) contrib.            0.573762042670 Eh   ::
         :::::::::::::::::::::::::::::::::::::::::::::::::::::

           -------------------------------------------------
          | TOTAL ENERGY             -137.726267630468 Eh   |
          | TOTAL ENTHALPY           -137.039711089836 Eh   |
          | TOTAL FREE ENERGY        -137.152505587799 Eh   |
          | GRADIENT NORM               0.000178598363 Eh/α |
          | HOMO-LUMO GAP               1.619181837700 eV   |
           -------------------------------------------------

 * finished run on 2025/08/21 at 17:54:23.563
