   * xtb version 6.7.1 (edcfbbe) compiled by 'albert@albert-system' on 2024-07-22

   ID    Z sym.   atoms
    1    8 O      1, 14
    2    6 C      2-6, 8-13, 15-34, 36-40, 42-54
    3    7 N      7, 35, 41
    4    1 H      55-85

          program call               : xtb data2507/gas/mCP-BP-DMAC/mCP-BP-DMAC.xyz --gfn 2 --ohess vtight --parallel 40 --molden --ceasefiles --namespace data2507/gas/mCP-BP-DMAC/mCP-BP-DMAC_gas_S0_preOpt
          :  Hamiltonian                  GFN2-xTB          :
 * total energy  :  -137.7017219 Eh     change       -0.2406210E-08 Eh
 * total energy  :  -137.7175071 Eh     change       -0.1578520E-01 Eh
 * total energy  :  -137.7216974 Eh     change       -0.4190302E-02 Eh
 * total energy  :  -137.7227332 Eh     change       -0.1035750E-02 Eh
 * total energy  :  -137.7235250 Eh     change       -0.7918359E-03 Eh
 * total energy  :  -137.7238474 Eh     change       -0.3223223E-03 Eh
 * total energy  :  -137.7240211 Eh     change       -0.1737639E-03 Eh
 * total energy  :  -137.7241438 Eh     change       -0.1226583E-03 Eh
 * total energy  :  -137.7242391 Eh     change       -0.9536449E-04 Eh
 * total energy  :  -137.7243165 Eh     change       -0.7734480E-04 Eh
 * total energy  :  -137.7260403 Eh     change       -0.5027295E-06 Eh
 * total energy  :  -137.7260407 Eh     change       -0.4493661E-06 Eh
 * total energy  :  -137.7260413 Eh     change       -0.5289573E-06 Eh
 * total energy  :  -137.7260416 Eh     change       -0.3521886E-06 Eh
 * total energy  :  -137.7260418 Eh     change       -0.2296191E-06 Eh
 * total energy  :  -137.7260421 Eh     change       -0.2241142E-06 Eh
 * total energy  :  -137.7260423 Eh     change       -0.2824758E-06 Eh
 * total energy  :  -137.7260426 Eh     change       -0.2334097E-06 Eh
 * total energy  :  -137.7260426 Eh     change       -0.7100709E-08 Eh
   *** GEOMETRY OPTIMIZATION CONVERGED AFTER 94 ITERATIONS ***

 final structure:
================
85
 xtb: 6.7.1 (edcfbbe)
O           -2.74565714343253        4.42902302333469        0.11234343081566
C           -2.59508788346439        3.23030287317397       -0.03390369685406
C           -3.74810644720412        2.29583494720918        0.05341116376937
C           -3.63273091828976        1.03216627194974        0.63016610247313
C           -4.73412001454034        0.20556471838010        0.72241434937545
C           -5.96844296213515        0.62234954300743        0.22839766210304
N           -7.08543412722415       -0.23321440968591        0.30385750191133
C           -8.21290545639638        0.13196803914836        1.04532709693443
C           -8.26440266208361        1.30339122847154        1.79021245002276
C           -9.39833711142001        1.63363116108267        2.51679235771861
C          -10.49383653783112        0.79452408580281        2.52125430824443
C          -10.44546555121101       -0.39532608617181        1.81006662715875
C           -9.31664605268221       -0.73014693144364        1.08585266134245
O           -9.33175708304733       -1.93976537682938        0.43633643226442
C           -8.21266343392726       -2.28959644815526       -0.27645025543130
C           -8.24299732916988       -3.50774383243135       -0.92928355918846
C           -7.16410270984281       -3.91810886104675       -1.69840874461093
C           -6.06594670443953       -3.09213233323542       -1.82284736728125
C           -6.02962831393637       -1.87024700443288       -1.16809619421830
C           -7.08766321482943       -1.45868537313879       -0.36733117438905
C           -6.09134674383213        1.89092845672094       -0.33460535922981
C           -4.99289971898113        2.72184457606382       -0.40618850485813
C           -1.26962832558769        2.63418025048605       -0.30747312022375
C           -0.13269211787665        3.32204014464719        0.14534307895715
C            1.14155131818505        2.85379012468136       -0.08318344570794
C            1.27944866912322        1.67767523165396       -0.81168282075650
C            0.14330384810146        0.97129482621319       -1.27767161743937
C           -1.13060477044497        1.45200117972331       -1.02758031159441
C            0.63866032690972       -0.19597312142666       -1.95390019533045
C            0.02226360334770       -1.24596298076012       -2.62123736772847
C            0.81575718927475       -2.22224213253400       -3.18978979566193
C            2.20472411928800       -2.15362535280393       -3.10973254890900
C            2.84035937996455       -1.11934773457121       -2.44911969713074
C            2.04742090767689       -0.14737660171970       -1.85748906989379
N            2.41764714577528        0.99209992214979       -1.16547969423426
C            3.73328206203726        1.39212686010304       -0.88741459718527
C            4.15606881054716        2.67825240696721       -1.21077741588627
C            5.45481787314739        3.06229633519534       -0.93024989972132
C            6.33760649267051        2.18070068276915       -0.33466662136098
C            5.92119873792950        0.88945670097372       -0.01825855146169
N            6.80607766065356       -0.00942915594388        0.58587906798823
C            6.55194206490999       -0.75777169627506        1.72062904552161
C            5.42701939912688       -0.78155584514107        2.53203195843966
C            5.44633856315196       -1.61041314229243        3.63775501762283
C            6.55762006439729       -2.39318526700503        3.94133427556271
C            7.68933234248473       -2.35471120022375        3.15173644396954
C            7.69346061836648       -1.52962459825126        2.03492224036671
C            8.67834077841714       -1.23156447244575        1.03263504643148
C            9.97038744147926       -1.68397033950140        0.80030327861179
C           10.65376947774146       -1.19864986200296       -0.29664676650901
C           10.05846032849373       -0.28662718885688       -1.16496417075219
C            8.77408658397043        0.17810361018704       -0.95447717510463
C            8.09229469774871       -0.28607677904023        0.16093392153914
C            4.61598177362731        0.49745435644896       -0.29552564516517
H           -2.68477882396975        0.70886778815863        1.03437720568062
H           -4.64949382454171       -0.76794710846101        1.18274905801584
H           -7.40938133218008        1.96061654515237        1.81070443086918
H           -9.41186967332426        2.55308304322862        3.08143220846525
H          -11.38009609749127        1.04915949732485        3.08060555667239
H          -11.27522602141719       -1.08393944678833        1.80857460652178
H           -9.12545275942514       -4.11886402447265       -0.82717998822185
H           -7.19591205469287       -4.87150346387592       -2.20160192874142
H           -5.22684318800314       -3.38750212035091       -2.43392177196725
H           -5.17219124384749       -1.22703616322350       -1.28908086048792
H           -7.04966537641454        2.21359214418465       -0.71383246675966
H           -5.07635401129207        3.70908678970829       -0.83524021071279
H           -0.28647643873451        4.23792933477468        0.69574916546607
H            2.00320109771276        3.38152244833217        0.29630136929648
H           -1.99438379107791        0.92879149176190       -1.40879684732755
H           -1.05372800806807       -1.29009693133284       -2.69580070016822
H            0.35796546128278       -3.04819214402323       -3.71302507306412
H            2.79930660048102       -2.92432213277413       -3.57708563666769
H            3.91771927877252       -1.06742867900243       -2.40778829782661
H            3.47213167217660        3.36097596585608       -1.69069491364992
H            5.78151927888210        4.06110626203321       -1.17708189405096
H            7.34380243704001        2.48895772946987       -0.09669259528071
H            4.56701565644226       -0.16425391970128        2.31996997852865
H            4.58102728897000       -1.64832412430530        4.28287387175040
H            6.53237652033220       -3.02969405903707        4.81315179973178
H            8.55770116505439       -2.94765926029999        3.39583281710361
H           10.42476230422862       -2.40367536163288        1.46425587126448
H           11.66060607358405       -1.53503977833994       -0.49404778649176
H           10.61133963402025        0.06288106477498       -2.02436843624449
H            8.31608384425702        0.87080098361335       -1.64451149806530
H            4.28917838657080       -0.50181979996019       -0.05132916892469

          :  Hamiltonian                  GFN2-xTB          :
         :: gradient norm              0.000053754138 Eh/a0 ::
         :: HOMO-LUMO gap              1.623538321309 eV    ::
         :: SCC energy              -140.205841465223 Eh    ::
         :: -> dispersion             -0.119741579046 Eh    ::
         :: repulsion energy           2.479798885749 Eh    ::

    * Orbital Energies and Occupations

         #    Occupation            Energy/Eh            Energy/eV
      -------------------------------------------------------------
         1        2.0000           -0.7266086             -19.7720
       ...           ...                  ...                  ...
       115        2.0000           -0.4191645             -11.4060
       116        2.0000           -0.4167469             -11.3403
       117        2.0000           -0.4156385             -11.3101
       118        2.0000           -0.4146642             -11.2836
       119        2.0000           -0.4114736             -11.1968
       120        2.0000           -0.4093057             -11.1378
       121        2.0000           -0.3908149             -10.6346
       122        2.0000           -0.3890523             -10.5867
       123        2.0000           -0.3858002             -10.4982
       124        2.0000           -0.3827029             -10.4139
       125        2.0000           -0.3762828             -10.2392
       126        2.0000           -0.3685578             -10.0290
       127        2.0000           -0.3423545              -9.3159 (HOMO)
       128                         -0.2826905              -7.6924 (LUMO)
       129                         -0.2578703              -7.0170
       130                         -0.2526295              -6.8744
       131                         -0.2477635              -6.7420
       132                         -0.2447884              -6.6610
       133                         -0.2398068              -6.5255
       134                         -0.2386159              -6.4931
       135                         -0.2369945              -6.4489
       136                         -0.2284189              -6.2156
       137                         -0.2259220              -6.1476
       138                         -0.2182921              -5.9400
       ...                                ...                  ...
       247                          0.7417903              20.1851
      -------------------------------------------------------------
                  HL-Gap            0.0596640 Eh            1.6235 eV

     #   Z          covCN         q      C6AA      α(0)
     1   8 O        0.858    -0.379    21.256     6.181
     2   6 C        2.829     0.224    23.294     7.909
     3   6 C        2.972    -0.014    28.353     8.734
     4   6 C        2.920    -0.027    28.687     8.783
     5   6 C        2.920    -0.041    29.013     8.833
     6   6 C        2.921     0.070    26.443     8.433
     7   7 N        2.751    -0.070    22.600     7.061
     8   6 C        2.922     0.042    27.052     8.529
     9   6 C        2.924    -0.060    29.482     8.904
    10   6 C        2.919    -0.038    28.952     8.824
    11   6 C        2.919    -0.040    28.993     8.830
    12   6 C        2.920    -0.056    29.394     8.891
    13   6 C        2.884     0.124    25.267     8.241
    14   8 O        1.709    -0.255    18.226     5.764
    15   6 C        2.884     0.125    25.257     8.239
    16   6 C        2.920    -0.056    29.398     8.891
    17   6 C        2.919    -0.040    29.003     8.831
    18   6 C        2.919    -0.039    28.969     8.826
    19   6 C        2.924    -0.060    29.496     8.906
    20   6 C        2.922     0.042    27.049     8.529
    21   6 C        2.920    -0.040    29.001     8.831
    22   6 C        2.924    -0.019    28.481     8.752
    23   6 C        2.972    -0.024    28.598     8.772
    24   6 C        2.929    -0.023    28.580     8.767
    25   6 C        2.908    -0.050    29.231     8.865
    26   6 C        3.075     0.052    26.759     8.481
    27   6 C        3.067    -0.015    28.324     8.727
    28   6 C        2.914    -0.030    28.759     8.794
    29   6 C        3.067    -0.016    28.330     8.728
    30   6 C        2.912    -0.031    28.783     8.797
    31   6 C        2.920    -0.038    28.954     8.824
    32   6 C        2.924    -0.031    28.781     8.798
    33   6 C        2.910    -0.049    29.212     8.863
    34   6 C        3.076     0.047    26.861     8.497
    35   7 N        2.804    -0.038    21.971     6.962
    36   6 C        2.913     0.065    26.541     8.448
    37   6 C        2.921    -0.048    29.181     8.859
    38   6 C        2.919    -0.027    28.677     8.782
    39   6 C        2.922    -0.047    29.165     8.856
    40   6 C        2.912     0.068    26.477     8.438
    41   7 N        2.803    -0.044    22.092     6.981
    42   6 C        3.073     0.046    26.887     8.502
    43   6 C        2.910    -0.051    29.264     8.870
    44   6 C        2.924    -0.033    28.818     8.803
    45   6 C        2.920    -0.040    28.993     8.830
    46   6 C        2.913    -0.032    28.804     8.801
    47   6 C        3.068    -0.016    28.340     8.729
    48   6 C        3.067    -0.016    28.341     8.729
    49   6 C        2.913    -0.032    28.805     8.801
    50   6 C        2.920    -0.040    28.995     8.830
    51   6 C        2.924    -0.033    28.822     8.804
    52   6 C        2.910    -0.051    29.271     8.871
    53   6 C        3.073     0.046    26.886     8.502
    54   6 C        2.926    -0.058    29.432     8.897
    55   1 H        0.926     0.042     2.427     2.436
    56   1 H        0.926     0.044     2.396     2.421
    57   1 H        0.926     0.037     2.491     2.468
    58   1 H        0.926     0.037     2.486     2.466
    59   1 H        0.926     0.038     2.472     2.459
    60   1 H        0.926     0.050     2.316     2.380
    61   1 H        0.926     0.050     2.315     2.379
    62   1 H        0.926     0.038     2.479     2.462
    63   1 H        0.926     0.035     2.518     2.482
    64   1 H        0.926     0.033     2.550     2.497
    65   1 H        0.926     0.046     2.367     2.406
    66   1 H        0.926     0.058     2.222     2.331
    67   1 H        0.926     0.056     2.241     2.341
    68   1 H        0.926     0.036     2.503     2.474
    69   1 H        0.926     0.037     2.487     2.466
    70   1 H        0.926     0.033     2.540     2.492
    71   1 H        0.926     0.033     2.548     2.496
    72   1 H        0.926     0.034     2.533     2.489
    73   1 H        0.926     0.031     2.578     2.511
    74   1 H        0.926     0.047     2.362     2.404
    75   1 H        0.926     0.044     2.391     2.418
    76   1 H        0.926     0.047     2.352     2.398
    77   1 H        0.926     0.026     2.643     2.542
    78   1 H        0.926     0.030     2.583     2.513
    79   1 H        0.926     0.030     2.590     2.517
    80   1 H        0.926     0.033     2.551     2.497
    81   1 H        0.926     0.032     2.552     2.498
    82   1 H        0.926     0.030     2.592     2.517
    83   1 H        0.926     0.030     2.582     2.513
    84   1 H        0.926     0.027     2.630     2.536
    85   1 H        0.926     0.051     2.304     2.374

molecular dipole:
                 x           y           z       tot (Debye)
 q only:        1.217      -0.633      -0.323
   full:        1.317      -0.652      -0.371       3.852

 projected vibrational frequencies (cm⁻¹)
eigval :       -0.00    -0.00    -0.00    -0.00    -0.00     0.00
eigval :        6.15     9.22    10.95    17.74    20.17    25.74
eigval :       31.72    41.19    52.56    53.32    59.57    67.69
eigval :       80.08    90.36    98.50   112.35   117.39   121.58
eigval :      130.89   143.03   154.24   162.50   181.89   200.58
eigval :      214.48   224.99   236.00   241.33   249.25   263.93
eigval :      271.69   274.03   275.76   285.66   288.65   295.71
eigval :      319.27   350.93   362.60   376.89   381.66   384.43
eigval :      395.47   399.10   416.47   417.62   417.98   423.63
eigval :      428.55   431.05   436.24   440.72   445.79   458.93
eigval :      472.28   509.19   510.40   517.47   521.42   523.91
eigval :      534.98   537.79   541.18   543.50   557.52   576.02
eigval :      584.92   588.19   592.13   599.29   603.80   608.54
eigval :      616.47   639.18   643.13   659.40   661.43   663.05
eigval :      667.26   672.82   676.56   688.32   693.24   708.52
eigval :      710.83   720.64   731.54   750.43   762.49   769.67
eigval :      776.14   778.08   779.54   781.16   796.67   804.99
eigval :      816.85   825.54   833.16   855.47   862.88   866.21
eigval :      867.82   872.33   873.88   876.45   886.03   888.39
eigval :      894.78   896.98   898.31   898.42   900.48   904.30
eigval :      906.30   907.75   910.79   913.66   914.95   916.00
eigval :      917.72   920.60   923.38   923.54   925.91   928.27
eigval :      933.95   935.94   965.39   997.55  1009.49  1016.66
eigval :     1021.12  1031.86  1070.98  1071.96  1074.54  1090.55
eigval :     1091.80  1108.44  1113.23  1119.75  1121.30  1126.90
eigval :     1132.39  1149.38  1152.87  1163.85  1167.37  1172.04
eigval :     1175.75  1178.25  1179.32  1181.26  1182.85  1187.99
eigval :     1190.44  1198.94  1201.86  1219.36  1231.25  1233.92
eigval :     1236.62  1243.21  1248.64  1251.58  1253.97  1262.09
eigval :     1263.04  1283.73  1299.19  1302.66  1308.04  1310.72
eigval :     1313.23  1316.20  1318.13  1339.17  1347.02  1355.62
eigval :     1356.00  1357.72  1360.01  1363.22  1375.36  1402.56
eigval :     1417.92  1422.92  1424.47  1426.40  1428.98  1443.17
eigval :     1462.40  1472.35  1475.16  1476.26  1479.48  1484.87
eigval :     1488.04  1488.74  1506.03  1556.70  1561.78  1567.86
eigval :     1571.42  1576.94  1580.92  1581.03  1582.88  1585.88
eigval :     1589.84  1591.18  1592.06  1599.84  1603.68  1611.34
eigval :     1615.09  1684.31  3077.31  3077.66  3080.60  3080.68
eigval :     3082.16  3083.20  3084.82  3086.93  3087.44  3087.90
eigval :     3088.69  3089.16  3089.75  3090.19  3090.62  3091.96
eigval :     3092.65  3096.55  3098.16  3098.49  3098.67  3099.40
eigval :     3099.48  3100.74  3101.25  3101.77  3105.46  3106.67
eigval :     3107.28  3112.86  3113.48

   temp. (K)  partition function   enthalpy   heat capacity  entropy
                                   cal/mol     cal/K/mol   cal/K/mol   J/K/mol
 298.15  VIB  0.364E+20            24336.764    155.485    151.474
         ROT  0.155E+09              888.752      2.981     40.455
         INT  0.563E+28            25225.516    158.466    191.929
         TR   0.177E+29             1481.254      4.968     45.471
         TOT                       26706.7700   163.4341   237.4003   993.2828

       T/K    H(0)-H(T)+PV         H(T)/Eh          T*S/Eh         G(T)/Eh
   ------------------------------------------------------------------------
    298.15    0.425599E-01    0.686643E+00    0.112797E+00    0.573846E+00
   ------------------------------------------------------------------------

         :::::::::::::::::::::::::::::::::::::::::::::::::::::
         ::                  THERMODYNAMIC                  ::
         :::::::::::::::::::::::::::::::::::::::::::::::::::::
         :: total free energy        -137.152196317773 Eh   ::
         ::.................................................::
         :: total energy             -137.726042579473 Eh   ::
         :: zero point energy           0.644082850452 Eh   ::
         :: G(RRHO) w/o ZPVE           -0.070236588752 Eh   ::
         :: G(RRHO) contrib.            0.573846261701 Eh   ::
         :::::::::::::::::::::::::::::::::::::::::::::::::::::

           -------------------------------------------------
          | TOTAL ENERGY             -137.726042579473 Eh   |
          | TOTAL ENTHALPY           -137.039399782008 Eh   |
          | TOTAL FREE ENERGY        -137.152196317773 Eh   |
          | GRADIENT NORM               0.000053759228 Eh/α |
          | HOMO-LUMO GAP               1.623539618312 eV   |
           -------------------------------------------------

 * finished run on 2025/08/21 at 17:49:04.803
