   * xtb version 6.7.1 (edcfbbe) compiled by 'albert@albert-system' on 2024-07-22

   ID    Z sym.   atoms
    1    8 O      1, 3, 15, 34
    2   16 S      2
    3    6 C      4-7, 9-14, 16-26, 28-33, 35-43
    4    7 N      8, 27
    5    1 H      44-65

          program call               : xtb data2507/gas/DBTO-PTZ/DBTO-PTZ.xyz --gfn 2 --ohess vtight --parallel 40 --molden --ceasefiles --namespace data2507/gas/DBTO-PTZ/DBTO-PTZ_gas_S0_preOpt
          :  Hamiltonian                  GFN2-xTB          :
 * total energy  :  -113.6799765 Eh     change       -0.2755343E-08 Eh
 * total energy  :  -113.6917283 Eh     change       -0.1175175E-01 Eh
 * total energy  :  -113.6963348 Eh     change       -0.4606522E-02 Eh
 * total energy  :  -113.6976488 Eh     change       -0.1313975E-02 Eh
 * total energy  :  -113.6984053 Eh     change       -0.7565425E-03 Eh
 * total energy  :  -113.6986452 Eh     change       -0.2398376E-03 Eh
 * total energy  :  -113.6987241 Eh     change       -0.7895733E-04 Eh
 * total energy  :  -113.6987564 Eh     change       -0.3230354E-04 Eh
 * total energy  :  -113.6987734 Eh     change       -0.1699746E-04 Eh
 * total energy  :  -113.6987791 Eh     change       -0.5647631E-05 Eh
 * total energy  :  -113.7018164 Eh     change       -0.8147824E-06 Eh
 * total energy  :  -113.7018172 Eh     change       -0.8070672E-06 Eh
 * total energy  :  -113.7018180 Eh     change       -0.8007772E-06 Eh
 * total energy  :  -113.7018188 Eh     change       -0.7940624E-06 Eh
 * total energy  :  -113.7018196 Eh     change       -0.7887774E-06 Eh
 * total energy  :  -113.7018204 Eh     change       -0.7826523E-06 Eh
 * total energy  :  -113.7018211 Eh     change       -0.7776944E-06 Eh
 * total energy  :  -113.7018219 Eh     change       -0.7719537E-06 Eh
 * total energy  :  -113.7018219 Eh     change       -0.7414286E-08 Eh
   *** GEOMETRY OPTIMIZATION CONVERGED AFTER 221 ITERATIONS ***

 final structure:
================
65
 xtb: 6.7.1 (edcfbbe)
O            0.11862671729346       -1.19701507696779       -5.22742440512088
S           -0.00103441931552        0.02224274555141       -4.47672767846952
O           -0.12103150427800        1.24884114027534       -5.21531526910666
C           -1.29281422193810       -0.10952215504099       -3.23710041533232
C           -2.64798317760899       -0.24214753908418       -3.43083889773978
C           -3.47527675737532       -0.31014431131711       -2.32055181005471
C           -2.93469615289799       -0.25169272139972       -1.03547034313256
N           -3.78146985694476       -0.30683511158358        0.08630295090646
C           -4.59604353154783       -1.42311674984734        0.31104697918004
C           -4.52915380471818       -2.56122619870368       -0.48213366018572
C           -5.34358749437683       -3.65392071427338       -0.22574177886423
C           -6.22853862245286       -3.63154905705664        0.83309899891355
C           -6.28315242022581       -2.51565541834661        1.65446242950947
C           -5.47102122389955       -1.42461400820151        1.40481623098692
O           -5.55666602078626       -0.37314312840063        2.28183598716624
C           -4.75199142050786        0.71332803007624        2.05050664801748
C           -4.86185878792211        1.77100891484662        2.93463254672476
C           -4.10714306793324        2.91960634152966        2.75056682121515
C           -3.25744393490464        3.00750119351942        1.66681602295935
C           -3.14215589730641        1.94900662223002        0.77815646521984
C           -3.86733777121246        0.77938701373056        0.96602130212459
C           -1.55709014296660       -0.13187610054501       -0.85369925846575
C           -0.72898332541634       -0.05546600585393       -1.96387089806745
C            0.72803752360800        0.07520412658260       -1.96355383283223
C            1.55664499611276        0.14062625512861       -0.85305478128355
C            2.93418292094397        0.26210754171938       -1.03424984372361
N            3.78145483803803        0.30606136247082        0.08763699951825
C            4.59640547702644        1.41988732254457        0.32296247964021
C            4.52944177667505        2.56574894237157       -0.45897165357984
C            5.34427052282664        3.65566980143507       -0.19223862936462
C            6.22970215459099        3.62268242090004        0.86592299075722
C            6.28439926052777        2.49876892403038        1.67627092941472
C            5.47187203702365        1.41043633851580        1.41630084613551
O            5.55763136396274        0.35040022553559        2.28293575321251
C            4.75265086395971       -0.73358894607419        2.04126630964551
C            4.86270561829996       -1.79994748898624        2.91488390428511
C            4.10770132986620       -2.94654093518203        2.71984123887941
C            3.25752722543080       -3.02360690229571        1.63563870847973
C            3.14205082715769       -1.95638935924731        0.75749937092369
C            3.86751552048725       -0.78879913878665        0.95656790071569
C            3.47419135208044        0.33318066176104       -2.31893698200796
C            2.64639380679385        0.27620792760903       -3.42946842595276
C            1.29130154224501        0.14177222867390       -3.23644157999323
H           -3.05027502762816       -0.27921138430804       -4.43054463257743
H           -4.54426426582497       -0.39954061973940       -2.44011435876168
H           -3.82981680507256       -2.59984088256215       -1.30265544338998
H           -5.27396527366711       -4.52274728408428       -0.86160632857346
H           -6.86769527269077       -4.47657711034002        1.03371992867478
H           -6.94826687775681       -2.47280855367210        2.50193095621872
H           -5.55129081593924        1.67693048287230        3.75817160495260
H           -4.19835139090411        3.73858249947921        3.44612566345336
H           -2.67870218969544        3.90213371272148        1.49686892669128
H           -2.49001732586945        2.04311417667222       -0.07600737326819
H           -1.15533207089981       -0.10350198433341        0.14753837723433
H            1.15532992534146        0.10242010607600        0.14803348073089
H            3.82973600270209        2.61259808978841       -1.27874946862991
H            5.27458436061619        4.53071154114008       -0.81951547505134
H            6.86917634826909        4.46553415876577        1.07452783438142
H            6.94988526277922        2.44743792744509        2.52297597364062
H            5.55250928451020       -1.71410701913337        3.73901138862526
H            4.19905343663302       -3.77234263376452        3.40726341793469
H            2.67855105607863       -3.91641925538854        1.45713370485197
H            2.48953440314514       -2.04197178934335       -0.09727195652304
H            4.54313430126818        0.42364001442302       -2.43809688389736
H            3.04824281615214        0.32308979346489       -4.42894000794635

          :  Hamiltonian                  GFN2-xTB          :
         :: gradient norm              0.000069941317 Eh/a0 ::
         :: HOMO-LUMO gap              1.549258566872 eV    ::
         :: SCC energy              -115.550584796214 Eh    ::
         :: -> dispersion             -0.094270489251 Eh    ::
         :: repulsion energy           1.848762874906 Eh    ::

    * Orbital Energies and Occupations

         #    Occupation            Energy/Eh            Energy/eV
      -------------------------------------------------------------
         1        2.0000           -0.7770599             -21.1449
       ...           ...                  ...                  ...
        91        2.0000           -0.4356267             -11.8540
        92        2.0000           -0.4331161             -11.7857
        93        2.0000           -0.4323458             -11.7647
        94        2.0000           -0.4229715             -11.5096
        95        2.0000           -0.4229676             -11.5095
        96        2.0000           -0.4221544             -11.4874
        97        2.0000           -0.4205284             -11.4432
        98        2.0000           -0.4188411             -11.3972
        99        2.0000           -0.4128624             -11.2346
       100        2.0000           -0.3978562             -10.8262
       101        2.0000           -0.3976614             -10.8209
       102        2.0000           -0.3525719              -9.5940
       103        2.0000           -0.3520343              -9.5793 (HOMO)
       104                         -0.2951001              -8.0301 (LUMO)
       105                         -0.2707115              -7.3664
       106                         -0.2632892              -7.1645
       107                         -0.2455855              -6.6827
       108                         -0.2455642              -6.6821
       109                         -0.2371764              -6.4539
       110                         -0.2369249              -6.4471
       111                         -0.2316754              -6.3042
       112                         -0.2224476              -6.0531
       113                         -0.2202685              -5.9938
       114                         -0.2038338              -5.5466
       ...                                ...                  ...
       199                          1.2202740              33.2053
      -------------------------------------------------------------
                  HL-Gap            0.0569342 Eh            1.5493 eV

     #   Z          covCN         q      C6AA      α(0)
     1   8 O        0.860    -0.531    24.486     6.634
     2  16 S        3.927     0.968   107.584    17.457
     3   8 O        0.860    -0.531    24.486     6.634
     4   6 C        2.990    -0.082    30.051     8.992
     5   6 C        2.925    -0.017    28.434     8.745
     6   6 C        2.926    -0.037    28.931     8.821
     7   6 C        2.920     0.073    26.359     8.419
     8   7 N        2.752    -0.069    22.586     7.058
     9   6 C        2.921     0.041    27.089     8.535
    10   6 C        2.924    -0.060    29.490     8.905
    11   6 C        2.919    -0.038    28.940     8.822
    12   6 C        2.919    -0.039    28.962     8.825
    13   6 C        2.920    -0.055    29.373     8.888
    14   6 C        2.884     0.126    25.241     8.237
    15   8 O        1.709    -0.252    18.170     5.755
    16   6 C        2.884     0.126    25.237     8.236
    17   6 C        2.920    -0.055    29.374     8.888
    18   6 C        2.919    -0.039    28.965     8.826
    19   6 C        2.919    -0.038    28.948     8.823
    20   6 C        2.924    -0.061    29.507     8.908
    21   6 C        2.921     0.041    27.084     8.534
    22   6 C        2.922    -0.040    29.006     8.832
    23   6 C        3.108     0.004    27.792     8.637
    24   6 C        3.108     0.004    27.792     8.637
    25   6 C        2.922    -0.040    29.006     8.832
    26   6 C        2.920     0.073    26.359     8.419
    27   7 N        2.752    -0.069    22.586     7.058
    28   6 C        2.921     0.041    27.089     8.535
    29   6 C        2.924    -0.060    29.490     8.905
    30   6 C        2.919    -0.038    28.940     8.822
    31   6 C        2.919    -0.039    28.962     8.825
    32   6 C        2.920    -0.055    29.373     8.888
    33   6 C        2.884     0.126    25.241     8.237
    34   8 O        1.709    -0.252    18.170     5.755
    35   6 C        2.884     0.126    25.237     8.236
    36   6 C        2.920    -0.055    29.374     8.888
    37   6 C        2.919    -0.039    28.965     8.826
    38   6 C        2.919    -0.038    28.948     8.823
    39   6 C        2.924    -0.061    29.507     8.908
    40   6 C        2.921     0.041    27.084     8.534
    41   6 C        2.926    -0.037    28.931     8.821
    42   6 C        2.925    -0.017    28.434     8.745
    43   6 C        2.990    -0.082    30.051     8.992
    44   1 H        0.926     0.063     2.166     2.302
    45   1 H        0.926     0.062     2.177     2.307
    46   1 H        0.926     0.034     2.525     2.485
    47   1 H        0.926     0.040     2.452     2.449
    48   1 H        0.926     0.042     2.426     2.436
    49   1 H        0.926     0.054     2.276     2.359
    50   1 H        0.926     0.054     2.274     2.358
    51   1 H        0.926     0.042     2.429     2.437
    52   1 H        0.926     0.039     2.466     2.456
    53   1 H        0.926     0.033     2.541     2.493
    54   1 H        0.926     0.059     2.215     2.327
    55   1 H        0.926     0.059     2.215     2.327
    56   1 H        0.926     0.034     2.525     2.485
    57   1 H        0.926     0.040     2.452     2.449
    58   1 H        0.926     0.042     2.426     2.436
    59   1 H        0.926     0.054     2.276     2.359
    60   1 H        0.926     0.054     2.274     2.358
    61   1 H        0.926     0.042     2.429     2.437
    62   1 H        0.926     0.039     2.466     2.456
    63   1 H        0.926     0.033     2.541     2.493
    64   1 H        0.926     0.062     2.177     2.307
    65   1 H        0.926     0.063     2.166     2.302

molecular dipole:
                 x           y           z       tot (Debye)
 q only:        0.001      -0.009       1.847
   full:        0.001      -0.008       1.604       4.077

 projected vibrational frequencies (cm⁻¹)
eigval :       -0.00    -0.00    -0.00    -0.00     0.00     0.00
eigval :       12.43    12.81    16.48    27.49    30.92    33.75
eigval :       40.17    50.54    82.44    87.91    97.75   101.13
eigval :      114.23   119.91   146.39   154.33   170.49   175.04
eigval :      213.86   223.87   235.53   248.90   250.25   253.14
eigval :      266.63   270.31   281.96   300.26   345.38   357.66
eigval :      361.77   383.84   388.16   397.04   401.86   404.57
eigval :      422.45   427.20   428.60   431.17   431.59   442.76
eigval :      446.12   451.37   503.27   509.43   509.83   515.10
eigval :      518.14   518.54   522.59   525.20   528.10   567.42
eigval :      581.41   596.20   597.38   604.38   609.67   650.52
eigval :      656.84   658.18   661.19   661.21   662.79   663.55
eigval :      686.96   698.61   701.99   725.31   764.83   779.14
eigval :      779.53   779.92   780.01   805.88   823.82   828.31
eigval :      830.28   856.00   856.03   863.77   864.27   868.17
eigval :      868.32   881.08   887.01   898.85   899.05   900.47
eigval :      901.06   914.53   914.59   916.21   916.23   917.14
eigval :      917.22   920.62   921.27   921.63   991.77  1012.89
eigval :     1029.54  1090.50  1090.60  1090.78  1091.69  1097.13
eigval :     1108.87  1108.89  1116.27  1121.24  1123.67  1152.47
eigval :     1155.27  1165.33  1172.24  1175.40  1175.44  1184.67
eigval :     1187.34  1201.66  1202.12  1205.39  1216.61  1220.78
eigval :     1226.72  1244.08  1244.28  1248.41  1253.72  1262.48
eigval :     1262.61  1304.94  1308.74  1309.13  1311.92  1312.37
eigval :     1329.29  1336.05  1345.80  1353.29  1354.66  1389.37
eigval :     1420.44  1423.70  1424.77  1440.82  1444.13  1449.71
eigval :     1454.55  1487.40  1488.45  1502.89  1503.52  1563.82
eigval :     1565.15  1567.56  1568.59  1570.48  1578.60  1580.69
eigval :     1581.29  1590.92  1591.05  1602.52  1602.60  3090.97
eigval :     3091.00  3091.74  3091.76  3095.27  3096.79  3096.79
eigval :     3099.60  3099.92  3100.00  3100.05  3100.82  3106.32
eigval :     3106.43  3107.01  3107.02  3109.28  3109.40  3114.80
eigval :     3114.81  3115.27  3115.37

   temp. (K)  partition function   enthalpy   heat capacity  entropy
                                   cal/mol     cal/K/mol   cal/K/mol   J/K/mol
 298.15  VIB  0.512E+15            19227.518    123.149    117.653
         ROT  0.322E+08              888.752      2.981     37.337
         INT  0.165E+23            20116.270    126.130    154.991
         TR   0.135E+29             1481.254      4.968     44.930
         TOT                       21597.5239   131.0984   199.9210   836.4693

       T/K    H(0)-H(T)+PV         H(T)/Eh          T*S/Eh         G(T)/Eh
   ------------------------------------------------------------------------
    298.15    0.344178E-01    0.508960E+00    0.949889E-01    0.413971E+00
   ------------------------------------------------------------------------

         :::::::::::::::::::::::::::::::::::::::::::::::::::::
         ::                  THERMODYNAMIC                  ::
         :::::::::::::::::::::::::::::::::::::::::::::::::::::
         :: total free energy        -113.287850780538 Eh   ::
         ::.................................................::
         :: total energy             -113.701821921308 Eh   ::
         :: zero point energy           0.474542192732 Eh   ::
         :: G(RRHO) w/o ZPVE           -0.060571051962 Eh   ::
         :: G(RRHO) contrib.            0.413971140770 Eh   ::
         :::::::::::::::::::::::::::::::::::::::::::::::::::::

           -------------------------------------------------
          | TOTAL ENERGY             -113.701821921308 Eh   |
          | TOTAL ENTHALPY           -113.192861883461 Eh   |
          | TOTAL FREE ENERGY        -113.287850780538 Eh   |
          | GRADIENT NORM               0.000069942169 Eh/α |
          | HOMO-LUMO GAP               1.549258506712 eV   |
           -------------------------------------------------

 * finished run on 2025/08/24 at 07:11:48.626
