   * xtb version 6.7.1 (edcfbbe) compiled by 'albert@albert-system' on 2024-07-22

   ID    Z sym.   atoms
    1    8 O      1, 3, 15, 34
    2   16 S      2
    3    6 C      4-7, 9-14, 16-26, 28-33, 35-43
    4    7 N      8, 27
    5    1 H      44-65

          program call               : xtb data2507/gas/DBTO-PTZ/DBTO-PTZ_gas_T1_crest.xyz --gfn 2 --spinpol --tblite --uhf 2 --ohess vtight --parallel 40 --molden --ceasefiles --namespace data2507/gas/DBTO-PTZ/DBTO-PTZ_gas_T1_finalOpt
 * total energy  :  -113.6255154 Eh     change        0.8555475E-08 Eh
 * total energy  :  -113.6255326 Eh     change       -0.1723719E-04 Eh
 * total energy  :  -113.6255444 Eh     change       -0.1176688E-04 Eh
 * total energy  :  -113.6255462 Eh     change       -0.1783179E-05 Eh
 * total energy  :  -113.6255483 Eh     change       -0.2112259E-05 Eh
 * total energy  :  -113.6255505 Eh     change       -0.2218957E-05 Eh
 * total energy  :  -113.6255519 Eh     change       -0.1380049E-05 Eh
 * total energy  :  -113.6255528 Eh     change       -0.9114270E-06 Eh
 * total energy  :  -113.6255534 Eh     change       -0.5830572E-06 Eh
 * total energy  :  -113.6255540 Eh     change       -0.5635012E-06 Eh
 * total energy  :  -113.6255543 Eh     change       -0.3738145E-06 Eh
 * total energy  :  -113.6255545 Eh     change       -0.2188449E-06 Eh
 * total energy  :  -113.6255547 Eh     change       -0.1639537E-06 Eh
 * total energy  :  -113.6255548 Eh     change       -0.4973526E-07 Eh
   *** GEOMETRY OPTIMIZATION CONVERGED AFTER 14 ITERATIONS ***

 final structure:
================
65
 xtb: 6.7.1 (edcfbbe)
O           -0.00178236355833        4.28986718396007       -2.62678623246904
S           -0.00103465288773        3.93136462551331       -1.22796820480747
O           -0.00079088715048        5.02835685953630       -0.28910250724490
C           -1.29556931192416        2.76130676899689       -0.85940423119142
C           -2.64670234491940        2.94777585464023       -0.92959465043993
C           -3.50084826760176        1.90010955278214       -0.59313809785982
C           -2.94014063282846        0.67038557556284       -0.19243536212462
N           -3.82233164842125       -0.39593367455392        0.13418626716504
C           -3.90094233182493       -1.51713241448676       -0.67153876680314
C           -3.13522169761218       -1.65868042169308       -1.82912906371493
C           -3.23880090800451       -2.79632550320104       -2.60488848583351
C           -4.11091114337010       -3.81663575181085       -2.24896104530745
C           -4.89658565239653       -3.68587174440354       -1.11782224110845
C           -4.80355173568203       -2.54667807323396       -0.33428735584571
O           -5.62275183351315       -2.46415061610415        0.75377705420517
C           -5.54123444460686       -1.34591741821783        1.53173783196541
C           -6.37556764020504       -1.27288880734524        2.63613510008706
C           -6.32084772623207       -0.17373772806564        3.47465601433054
C           -5.41647802621993        0.84753473822921        3.21723682410274
C           -4.58020615132921        0.78470615344328        2.11948353871358
C           -4.63967791640415       -0.30128164654638        1.24597001560049
C           -1.58071017321547        0.47284883537893       -0.12309688596475
C           -0.70744687307549        1.52618179611261       -0.46087739963228
C            0.70714173456442        1.52661786117910       -0.46111227610287
C            1.58115300262313        0.47418341306744       -0.12255586717516
C            2.94045504265518        0.67252947007842       -0.19224282959870
N            3.82342725082559       -0.39249433876077        0.13619980439070
C            4.64168872121689       -0.29439673791022        1.24701689467967
C            4.58256982297031        0.79393759577768        2.11770740790895
C            5.41979198682012        0.86011211961154        3.21447868208590
C            6.32486964117809       -0.16016932488334        3.47393141511305
C            6.37919801734755       -1.26160361745490        2.63847259220918
C            5.54389989050964       -1.33802625604257        1.53498017924568
O            5.62496762290101       -2.45839853595480        0.76021082801268
C            4.80421089099630       -2.54480249531622       -0.32627035351520
C            4.89616067407721       -3.68673099230638       -1.10599648550711
C            4.10891217653501       -3.82148664699909       -2.23550799836789
C            3.23629189476493       -2.80230497261975       -2.59386765772448
C            3.13378979124781       -1.66197941441490       -1.82200525136171
C            3.90097205722671       -1.51638024829307       -0.66582884099641
C            3.50028449706599        1.90223711130198       -0.59451754674202
C            2.64537302840181        2.94915670567493       -0.93135156140025
C            1.29437827311449        2.76197362782742       -0.86041672098363
H           -3.04330911128781        3.90059851681503       -1.24386111831891
H           -4.57164521314515        2.00736247786250       -0.65174446084970
H           -2.46558988789618       -0.86348573159994       -2.11493001521466
H           -2.63755633634506       -2.88541927223528       -3.49594577004779
H           -4.18683825769538       -4.70553059569092       -2.85447794615009
H           -5.59533487010034       -4.45265036980162       -0.82422382628906
H           -7.05568168182602       -2.08922109497387        2.81879509098537
H           -6.97447662029302       -0.12022783514075        4.33053777316610
H           -5.35868314565941        1.69808067815854        3.87787650262860
H           -3.87234602234835        1.57479472801832        1.92780481981712
H           -1.19093927617245       -0.48323995153121        0.19411576390246
H            1.19203571774930       -0.48171218597053        0.19603917026190
H            3.87418349209823        1.58321516720031        1.92462594672215
H            5.36222855024969        1.71241048885895        3.87286956478357
H            6.97920285921252       -0.10401559166036        4.32909601701110
H            7.05970050762209       -2.07722612121778        2.82281589183717
H            5.59535996657849       -4.45244444097495       -0.81068335591796
H            4.18388117251040       -4.71252971524489       -2.83796975944296
H            2.63381818771370       -2.89457711193745       -3.48376738287514
H            2.46385448727775       -0.86775863858313       -2.10977678180922
H            4.57098446885531        2.01004317632407       -0.65379589584995
H            3.04129810784261        3.90200188066924       -1.24640179884283

 projected vibrational frequencies (cm⁻¹)
eigval :       -0.00    -0.00    -0.00    -0.00     0.00     0.00
eigval :        9.98    10.92    18.45    28.75    30.98    32.78
eigval :       49.41    62.86    73.73    93.16    95.43   105.65
eigval :      109.28   112.59   139.60   152.64   155.37   175.23
eigval :      213.59   225.89   233.27   243.40   244.02   251.23
eigval :      268.27   268.77   286.93   306.68   344.84   345.79
eigval :      358.28   373.17   377.71   391.43   392.34   398.74
eigval :      417.24   425.22   425.32   427.17   427.31   430.11
eigval :      450.88   466.03   489.56   493.41   496.25   500.20
eigval :      504.35   514.44   523.69   530.24   532.10   547.05
eigval :      558.18   572.83   587.66   594.21   596.16   614.38
eigval :      636.70   641.97   654.15   654.68   660.52   662.86
eigval :      666.58   667.31   667.81   693.54   747.29   750.28
eigval :      754.01   773.25   774.52   775.10   775.99   782.67
eigval :      821.69   823.08   832.10   835.54   855.05   855.12
eigval :      865.91   865.97   868.77   869.06   882.39   884.07
eigval :      899.98   900.05   900.97   901.23   910.06   911.55
eigval :      913.57   913.90   914.02   914.11   926.96   974.06
eigval :      990.75   997.26  1059.45  1078.86  1079.99  1080.15
eigval :     1086.91  1091.60  1109.89  1115.35  1115.99  1118.51
eigval :     1135.21  1143.67  1150.74  1171.86  1172.10  1176.18
eigval :     1178.81  1184.70  1187.65  1205.73  1208.02  1208.57
eigval :     1217.06  1223.40  1237.30  1238.89  1242.18  1243.57
eigval :     1258.72  1281.63  1283.58  1298.89  1311.04  1314.22
eigval :     1323.12  1323.44  1335.58  1344.07  1344.86  1350.17
eigval :     1356.31  1371.72  1383.08  1386.43  1416.61  1416.68
eigval :     1434.94  1435.45  1439.09  1439.21  1467.18  1469.51
eigval :     1480.13  1500.20  1514.41  1534.90  1536.49  1538.11
eigval :     1538.94  1544.99  1545.67  1558.13  1578.46  3074.84
eigval :     3080.62  3093.81  3094.00  3097.38  3097.54  3098.55
eigval :     3098.61  3104.74  3105.24  3105.34  3105.83  3106.13
eigval :     3106.16  3113.20  3113.41  3114.78  3114.84  3116.32
eigval :     3116.42  3117.19  3117.40

   temp. (K)  partition function   enthalpy   heat capacity  entropy
                                   cal/mol     cal/K/mol   cal/K/mol   J/K/mol
 298.15  VIB  0.710E+15            19556.704    126.123    119.820
         ROT  0.650E+08              888.752      2.981     38.732
         INT  0.461E+23            20445.457    129.104    158.553
         TR   0.135E+29             1481.254      4.968     44.930
         TOT                       21926.7107   134.0721   203.4829   851.3725

       T/K    H(0)-H(T)+PV         H(T)/Eh          T*S/Eh         G(T)/Eh
   ------------------------------------------------------------------------
    298.15    0.349424E-01    0.503065E+00    0.966813E-01    0.406384E+00
   ------------------------------------------------------------------------

         :::::::::::::::::::::::::::::::::::::::::::::::::::::
         ::                  THERMODYNAMIC                  ::
         :::::::::::::::::::::::::::::::::::::::::::::::::::::
         :: total free energy        -113.219170765082 Eh   ::
         ::.................................................::
         :: total energy             -113.625554881617 Eh   ::
         :: zero point energy           0.468122980167 Eh   ::
         :: G(RRHO) w/o ZPVE           -0.061738863632 Eh   ::
         :: G(RRHO) contrib.            0.406384116535 Eh   ::
         :::::::::::::::::::::::::::::::::::::::::::::::::::::

           -------------------------------------------------
          | TOTAL ENERGY             -113.625554881617 Eh   |
          | TOTAL ENTHALPY           -113.122489463750 Eh   |
          | TOTAL FREE ENERGY        -113.219170765082 Eh   |
          | GRADIENT NORM               0.000137073083 Eh/α |
           -------------------------------------------------

 * finished run on 2025/08/24 at 07:20:05.829
