   * xtb version 6.7.1 (edcfbbe) compiled by 'albert@albert-system' on 2024-07-22

   ID    Z sym.   atoms
    1    8 O      1, 3, 15, 34
    2   16 S      2
    3    6 C      4-7, 9-14, 16-26, 28-33, 35-43
    4    7 N      8, 27
    5    1 H      44-65

          program call               : xtb data2507/gas/DBTO-PTZ/DBTO-PTZ_gas_S0_crest.xyz --gfn 2 --ohess vtight --parallel 40 --molden --ceasefiles --namespace data2507/gas/DBTO-PTZ/DBTO-PTZ_gas_S0_finalOpt
          :  Hamiltonian                  GFN2-xTB          :
 * total energy  :  -113.7021721 Eh     change       -0.2152575E-08 Eh
 * total energy  :  -113.7021741 Eh     change       -0.2011073E-05 Eh
 * total energy  :  -113.7021762 Eh     change       -0.2139503E-05 Eh
 * total energy  :  -113.7021799 Eh     change       -0.3660732E-05 Eh
 * total energy  :  -113.7021828 Eh     change       -0.2865559E-05 Eh
 * total energy  :  -113.7021845 Eh     change       -0.1701345E-05 Eh
 * total energy  :  -113.7021860 Eh     change       -0.1541706E-05 Eh
 * total energy  :  -113.7021878 Eh     change       -0.1775863E-05 Eh
 * total energy  :  -113.7021893 Eh     change       -0.1458866E-05 Eh
 * total energy  :  -113.7021902 Eh     change       -0.9162779E-06 Eh
 * total energy  :  -113.7021914 Eh     change       -0.6337065E-06 Eh
 * total energy  :  -113.7021922 Eh     change       -0.7626824E-06 Eh
 * total energy  :  -113.7021931 Eh     change       -0.9120964E-06 Eh
 * total energy  :  -113.7021941 Eh     change       -0.9491676E-06 Eh
 * total energy  :  -113.7021949 Eh     change       -0.7902386E-06 Eh
 * total energy  :  -113.7021954 Eh     change       -0.5357071E-06 Eh
 * total energy  :  -113.7021957 Eh     change       -0.2709743E-06 Eh
 * total energy  :  -113.7021958 Eh     change       -0.1262263E-06 Eh
 * total energy  :  -113.7021959 Eh     change       -0.5733406E-07 Eh
   *** GEOMETRY OPTIMIZATION CONVERGED AFTER 20 ITERATIONS ***

 final structure:
================
65
 xtb: 6.7.1 (edcfbbe)
O            0.00355989158138        5.07606545383480        0.25656089998968
S            0.00461932486176        3.99845900775648        1.20714996432602
O            0.00699776855348        4.34308965549508        2.60214483848489
C           -1.29486224859727        2.81567009514364        0.83928339392922
C           -2.65668029478838        2.99176428660096        0.91855604863699
C           -3.48550963370979        1.92664226593979        0.60186826613743
C           -2.94200815154692        0.70648070960754        0.19653724288772
N           -3.78806051113176       -0.37003066331162       -0.12006179902006
C           -4.73982307510232       -0.25321687887131       -1.14151767835068
C           -4.83187737887067        0.87558442088883       -1.94575656938442
C           -5.78440380229507        0.95684881992631       -2.95012500077699
C           -6.65171810639296       -0.09266145564819       -3.17637922294902
C           -6.54715677099228       -1.24192904918436       -2.40799749107231
C           -5.59655049718162       -1.32895585401615       -1.40725406501498
O           -5.52948173481232       -2.51288258614131       -0.71785404660503
C           -4.57796580052879       -2.62245610651223        0.26347611756729
C           -4.52147898228709       -3.82479209840579        0.94471613965971
C           -3.61335583347471       -4.00371706038098        1.97689632165118
C           -2.77995013817196       -2.96374838754238        2.33493349196375
C           -2.83125550137581       -1.75700551404254        1.65366413063156
C           -3.70844489843013       -1.57400088496685        0.59201413760335
C           -1.55895609862438        0.54604702542388        0.10973972679126
C           -0.72877857543063        1.60567278673904        0.44292655778093
C            0.73365495482987        1.60504092103003        0.44073362460966
C            1.56194567078633        0.54459516356680        0.10542740812804
C            2.94536269430304        0.70383180141991        0.18832104506009
N            3.78939249473032       -0.37387584249331       -0.12969200381248
C            3.71125488592304       -1.57642303171352        0.58495329591457
C            2.83728820182058       -1.75675536277246        1.64969740375728
C            2.78737587274824       -2.96210035524577        2.33354642415708
C            3.61896975244361       -4.00329890710537        1.97491356272678
C            4.52390375642694       -3.82703835747696        0.93945903732992
C            4.57902091038268       -2.62609875043010        0.25565918471886
O            5.52738639458521       -2.51905638403269       -0.72897981668048
C            5.59475468570541       -1.33557208560914       -1.41913822079802
C            6.54397671934743       -1.25013032528142       -2.42131574812287
C            6.64858547415632       -0.10143158437812       -3.19056123061680
C            5.78264411426945        0.94906981636699       -2.96373820542698
C            4.83152802570428        0.86942077101344       -1.95788869546611
C            4.73958392018782       -0.25873939294850       -1.15275557732657
C            3.49113063006658        1.92363829449515        0.59165783964859
C            2.66415728453393        2.98956945617784        0.91043383998434
C            1.30196029190201        2.81460020371621        0.83520466051040
H           -3.06200003307952        3.93938260416056        1.23539319991284
H           -4.55750656325333        2.02939323752733        0.67414917123831
H           -4.14900864516620        1.69681756302874       -1.79478839761553
H           -5.83639153038207        1.84900105816556       -3.55457848044794
H           -7.39867863583246       -0.03184642354202       -3.95171861429997
H           -7.19250455544343       -2.08975014187056       -2.57273143101478
H           -5.20458206188932       -4.60673350687359        0.65433688837415
H           -3.57412202720101       -4.94587662701319        2.49994687070935
H           -2.08387457157593       -3.07730728153909        3.15146602628303
H           -2.18946231534067       -0.94744431663786        1.96382222500602
H           -1.15422612429565       -0.39885497949911       -0.21883427634542
H            1.15546155349488       -0.40010816647743       -0.22155048187473
H            2.19695673423322       -0.94617668742559        1.96023559775029
H            2.09386979984662       -3.07352015059952        3.15255958677318
H            3.58085764173299       -4.94438968228366        2.49997355360001
H            5.20552159795360       -4.61005017756430        0.64849467985841
H            7.18822408336211       -2.09869009061311       -2.58650901911697
H            7.39450583498045       -0.04185891464091       -3.96700042554654
H            5.83464475327665        1.84079690105657       -3.56882654669008
H            4.14967136765181        1.69140208105170       -1.80645640859539
H            4.56342221432950        2.02537646657321        0.66092757698317
H            3.07118180789321        3.93690435138457        1.22592332709612

          :  Hamiltonian                  GFN2-xTB          :
         :: gradient norm              0.000050439314 Eh/a0 ::
         :: HOMO-LUMO gap              1.594731687958 eV    ::
         :: SCC energy              -115.550848619976 Eh    ::
         :: -> dispersion             -0.094805202220 Eh    ::
         :: repulsion energy           1.848652765787 Eh    ::

    * Orbital Energies and Occupations

         #    Occupation            Energy/Eh            Energy/eV
      -------------------------------------------------------------
         1        2.0000           -0.7761713             -21.1207
       ...           ...                  ...                  ...
        91        2.0000           -0.4350699             -11.8389
        92        2.0000           -0.4333738             -11.7927
        93        2.0000           -0.4319076             -11.7528
        94        2.0000           -0.4233484             -11.5199
        95        2.0000           -0.4233385             -11.5196
        96        2.0000           -0.4218737             -11.4798
        97        2.0000           -0.4204607             -11.4413
        98        2.0000           -0.4190366             -11.4026
        99        2.0000           -0.4118694             -11.2075
       100        2.0000           -0.3979960             -10.8300
       101        2.0000           -0.3979863             -10.8298
       102        2.0000           -0.3527478              -9.5988
       103        2.0000           -0.3526991              -9.5974 (HOMO)
       104                         -0.2940937              -8.0027 (LUMO)
       105                         -0.2698538              -7.3431
       106                         -0.2624868              -7.1426
       107                         -0.2460112              -6.6943
       108                         -0.2459940              -6.6938
       109                         -0.2374995              -6.4627
       110                         -0.2372789              -6.4567
       111                         -0.2311693              -6.2904
       112                         -0.2227438              -6.0612
       113                         -0.2201814              -5.9914
       114                         -0.2041599              -5.5555
       ...                                ...                  ...
       199                          1.2206515              33.2156
      -------------------------------------------------------------
                  HL-Gap            0.0586054 Eh            1.5947 eV

     #   Z          covCN         q      C6AA      α(0)
     1   8 O        0.860    -0.532    24.496     6.636
     2  16 S        3.928     0.967   107.602    17.459
     3   8 O        0.860    -0.532    24.494     6.636
     4   6 C        2.990    -0.083    30.061     8.994
     5   6 C        2.925    -0.017    28.439     8.745
     6   6 C        2.925    -0.038    28.949     8.824
     7   6 C        2.919     0.073    26.373     8.421
     8   7 N        2.751    -0.068    22.560     7.054
     9   6 C        2.921     0.041    27.092     8.536
    10   6 C        2.924    -0.060    29.487     8.905
    11   6 C        2.919    -0.038    28.938     8.822
    12   6 C        2.919    -0.038    28.956     8.824
    13   6 C        2.920    -0.055    29.371     8.887
    14   6 C        2.885     0.126    25.239     8.236
    15   8 O        1.709    -0.251    18.164     5.754
    16   6 C        2.885     0.126    25.233     8.235
    17   6 C        2.920    -0.055    29.373     8.888
    18   6 C        2.919    -0.039    28.962     8.825
    19   6 C        2.919    -0.038    28.948     8.823
    20   6 C        2.924    -0.060    29.504     8.908
    21   6 C        2.921     0.041    27.088     8.535
    22   6 C        2.922    -0.041    29.025     8.835
    23   6 C        3.109     0.004    27.797     8.638
    24   6 C        3.109     0.004    27.797     8.638
    25   6 C        2.922    -0.041    29.025     8.835
    26   6 C        2.919     0.073    26.373     8.421
    27   7 N        2.751    -0.068    22.560     7.054
    28   6 C        2.921     0.041    27.088     8.535
    29   6 C        2.924    -0.060    29.504     8.908
    30   6 C        2.919    -0.038    28.947     8.823
    31   6 C        2.919    -0.039    28.962     8.825
    32   6 C        2.920    -0.055    29.373     8.888
    33   6 C        2.885     0.126    25.233     8.235
    34   8 O        1.709    -0.251    18.164     5.754
    35   6 C        2.884     0.126    25.239     8.236
    36   6 C        2.920    -0.055    29.371     8.887
    37   6 C        2.919    -0.038    28.956     8.824
    38   6 C        2.919    -0.038    28.938     8.822
    39   6 C        2.924    -0.060    29.487     8.905
    40   6 C        2.921     0.041    27.092     8.536
    41   6 C        2.925    -0.038    28.949     8.824
    42   6 C        2.925    -0.017    28.439     8.745
    43   6 C        2.990    -0.083    30.061     8.994
    44   1 H        0.926     0.062     2.172     2.305
    45   1 H        0.926     0.062     2.179     2.309
    46   1 H        0.926     0.035     2.510     2.478
    47   1 H        0.926     0.040     2.448     2.447
    48   1 H        0.926     0.042     2.423     2.434
    49   1 H        0.926     0.054     2.274     2.358
    50   1 H        0.926     0.054     2.273     2.358
    51   1 H        0.926     0.042     2.427     2.436
    52   1 H        0.926     0.038     2.469     2.457
    53   1 H        0.926     0.034     2.531     2.488
    54   1 H        0.926     0.058     2.221     2.330
    55   1 H        0.926     0.058     2.221     2.330
    56   1 H        0.926     0.034     2.531     2.488
    57   1 H        0.926     0.038     2.469     2.457
    58   1 H        0.926     0.042     2.427     2.436
    59   1 H        0.926     0.054     2.273     2.358
    60   1 H        0.926     0.054     2.274     2.358
    61   1 H        0.926     0.042     2.423     2.434
    62   1 H        0.926     0.040     2.448     2.447
    63   1 H        0.926     0.035     2.510     2.478
    64   1 H        0.926     0.062     2.180     2.309
    65   1 H        0.926     0.062     2.172     2.305

molecular dipole:
                 x           y           z       tot (Debye)
 q only:       -0.002      -1.799      -0.614
   full:       -0.001      -1.576      -0.541       4.235

 projected vibrational frequencies (cm⁻¹)
eigval :       -0.00    -0.00     0.00     0.00     0.00     0.00
eigval :       12.37    13.03    16.53    27.51    32.32    34.34
eigval :       40.90    52.39    83.80    89.65    97.60   101.58
eigval :      114.42   124.88   142.69   161.60   172.18   176.74
eigval :      214.83   227.53   234.86   249.10   249.28   256.69
eigval :      267.06   269.36   283.77   302.27   345.73   354.66
eigval :      367.10   383.54   388.09   396.80   397.28   408.74
eigval :      423.11   425.54   430.32   430.54   435.20   442.06
eigval :      449.29   451.75   505.03   509.33   509.76   510.86
eigval :      518.26   519.93   522.82   524.99   532.12   567.53
eigval :      579.57   597.33   598.01   604.24   609.42   650.31
eigval :      656.66   658.07   661.53   661.53   663.01   663.77
eigval :      686.21   698.61   701.71   725.04   765.02   778.58
eigval :      779.97   780.05   780.23   806.00   823.87   829.92
eigval :      831.01   856.34   856.52   863.28   864.54   869.29
eigval :      869.33   883.02   888.76   899.40   899.59   901.20
eigval :      902.98   914.52   914.67   915.75   916.44   916.86
eigval :      917.80   920.48   923.19   923.67   992.17  1012.68
eigval :     1029.67  1090.78  1091.05  1091.20  1092.14  1098.19
eigval :     1108.88  1109.12  1116.78  1121.20  1123.80  1153.08
eigval :     1155.85  1165.62  1171.92  1174.96  1175.56  1185.78
eigval :     1187.38  1202.18  1202.63  1205.97  1217.11  1222.05
eigval :     1226.95  1244.33  1244.40  1247.85  1254.17  1262.17
eigval :     1262.55  1304.76  1308.71  1308.94  1312.65  1312.87
eigval :     1328.84  1334.47  1345.86  1352.69  1354.80  1389.83
eigval :     1420.43  1423.50  1424.85  1440.69  1444.28  1450.49
eigval :     1454.84  1486.17  1488.23  1502.45  1503.28  1564.29
eigval :     1565.45  1567.37  1568.60  1570.33  1578.16  1580.71
eigval :     1581.14  1590.82  1590.96  1602.35  1602.52  3090.92
eigval :     3091.35  3092.21  3092.25  3095.36  3096.88  3096.90
eigval :     3100.04  3100.30  3100.76  3100.79  3101.19  3106.61
eigval :     3107.03  3107.64  3107.67  3109.19  3109.32  3114.91
eigval :     3114.97  3115.42  3115.53

   temp. (K)  partition function   enthalpy   heat capacity  entropy
                                   cal/mol     cal/K/mol   cal/K/mol   J/K/mol
 298.15  VIB  0.404E+15            19186.628    123.165    117.281
         ROT  0.639E+08              888.752      2.981     38.699
         INT  0.258E+23            20075.380    126.146    155.980
         TR   0.135E+29             1481.254      4.968     44.930
         TOT                       21556.6341   131.1137   200.9101   840.6080

       T/K    H(0)-H(T)+PV         H(T)/Eh          T*S/Eh         G(T)/Eh
   ------------------------------------------------------------------------
    298.15    0.343527E-01    0.509056E+00    0.954589E-01    0.413597E+00
   ------------------------------------------------------------------------

         :::::::::::::::::::::::::::::::::::::::::::::::::::::
         ::                  THERMODYNAMIC                  ::
         :::::::::::::::::::::::::::::::::::::::::::::::::::::
         :: total free energy        -113.288598627630 Eh   ::
         ::.................................................::
         :: total energy             -113.702195854190 Eh   ::
         :: zero point energy           0.474703432642 Eh   ::
         :: G(RRHO) w/o ZPVE           -0.061106206082 Eh   ::
         :: G(RRHO) contrib.            0.413597226560 Eh   ::
         :::::::::::::::::::::::::::::::::::::::::::::::::::::

           -------------------------------------------------
          | TOTAL ENERGY             -113.702195854190 Eh   |
          | TOTAL ENTHALPY           -113.193139738389 Eh   |
          | TOTAL FREE ENERGY        -113.288598627630 Eh   |
          | GRADIENT NORM               0.000050399445 Eh/α |
          | HOMO-LUMO GAP               1.594734328672 eV   |
           -------------------------------------------------

 * finished run on 2025/08/24 at 07:14:46.023
