   * xtb version 6.7.1 (edcfbbe) compiled by 'albert@albert-system' on 2024-07-22

   ID    Z sym.   atoms
    1    8 O      1, 3, 15, 34
    2   16 S      2
    3    6 C      4-7, 9-14, 16-26, 28-33, 35-43
    4    7 N      8, 27
    5    1 H      44-65

          program call               : xtb data2507/gas/DBTO-PTZ/DBTO-PTZ_gas_S0_finalOpt.xtbopt.xyz --gfn 2 --spinpol --tblite --uhf 2 --ohess vtight --parallel 40 --molden --ceasefiles --namespace data2507/gas/DBTO-PTZ/DBTO-PTZ_gas_T1_preOpt
 * total energy  :  -113.6190818 Eh     change        0.6898958E-08 Eh
 * total energy  :  -113.6234390 Eh     change       -0.4357190E-02 Eh
 * total energy  :  -113.6248554 Eh     change       -0.1416407E-02 Eh
 * total energy  :  -113.6249946 Eh     change       -0.1392083E-03 Eh
 * total energy  :  -113.6250984 Eh     change       -0.1038034E-03 Eh
 * total energy  :  -113.6251320 Eh     change       -0.3358931E-04 Eh
 * total energy  :  -113.6251668 Eh     change       -0.3479590E-04 Eh
 * total energy  :  -113.6251864 Eh     change       -0.1961186E-04 Eh
 * total energy  :  -113.6252022 Eh     change       -0.1579802E-04 Eh
 * total energy  :  -113.6252198 Eh     change       -0.1762610E-04 Eh
 * total energy  :  -113.6254865 Eh     change       -0.6784027E-06 Eh
 * total energy  :  -113.6254871 Eh     change       -0.6284238E-06 Eh
 * total energy  :  -113.6254877 Eh     change       -0.6172279E-06 Eh
 * total energy  :  -113.6254883 Eh     change       -0.5740881E-06 Eh
 * total energy  :  -113.6254889 Eh     change       -0.5993425E-06 Eh
 * total energy  :  -113.6254895 Eh     change       -0.6332144E-06 Eh
 * total energy  :  -113.6254895 Eh     change        0.3987728E-07 Eh
 * total energy  :  -113.6254895 Eh     change        0.1653494E-07 Eh
 * total energy  :  -113.6254895 Eh     change       -0.6536952E-07 Eh
   *** GEOMETRY OPTIMIZATION CONVERGED AFTER 124 ITERATIONS ***

 final structure:
================
65
 xtb: 6.7.1 (edcfbbe)
O            0.00446598101526        5.02207959501688        0.37426558672950
S            0.00470622693105        3.90742139357322        1.29216712692542
O            0.00608757805387        4.23961322110499        2.69741528454289
C           -1.29109482330326        2.74580914789053        0.90238719598876
C           -2.64179703210324        2.92187191294889        1.00197672883725
C           -3.49644517818344        1.88001611368462        0.64958372596927
C           -2.93717413710552        0.66644625063604        0.19681951013936
N           -3.81869494892614       -0.39612776734175       -0.13930697840445
C           -4.69697748290899       -0.25930272203366       -1.19997043604630
C           -4.69564863918443        0.86645432845617       -2.02388642670387
C           -5.59465950724825        0.97264621887070       -3.06752333013103
C           -6.50476939206525       -0.04403406152892       -3.32110269089318
C           -6.50039191263708       -1.18320909578629       -2.53585113505397
C           -5.60268244065848       -1.29968234518791       -1.48631835040130
O           -5.62744558865846       -2.45703382606383       -0.76362084400692
C           -4.74544973748498       -2.58360236990802        0.26968521687303
C           -4.77941391239736       -3.76459382299889        0.99389834695406
C           -3.93087844238763       -3.94315198405983        2.07178568691847
C           -3.05697920096799       -2.92775525824202        2.43586603545703
C           -3.01240253068314       -1.74857138733110        1.71857289460702
C           -3.83937500759288       -1.55887401830209        0.61097816758253
C           -1.57813848294518        0.48091803542721        0.09483413060040
C           -0.70404053377777        1.52535694477715        0.45707409298425
C            0.70971397059862        1.52467167535519        0.45583202254564
C            1.58215194474484        0.47942070759106        0.09197408664439
C            2.94157292743672        0.66371049318024        0.19137326851453
N            3.82147080361683       -0.39953358712139       -0.14663233649546
C            3.84268100908013       -1.56241571523607        0.60339534922196
C            3.01789645274486       -1.75150190770921        1.71275291401257
C            3.06297915950251       -2.93083605307489        2.42977692227192
C            3.93520274659218       -3.94698216090391        2.06366810453053
C            4.78158572390074       -3.76907504291772        0.98398059992495
C            4.74710893298206       -2.58793182667459        0.25999347864280
O            5.62695133412748       -2.46200086992128       -0.77519099842197
C            5.60165928088576       -1.30456589287341       -1.49768584112331
C            6.49713575571552       -1.18880764634776       -2.54923943822538
C            6.50078817422427       -0.04952064642909       -3.33433291416774
C            5.59219906505598        0.96800386793425       -3.07857229981156
C            4.69541587162630        0.86253641729219       -2.03294337901636
C            4.69755029447763       -0.26336583556846       -1.20918246139153
C            3.50278862623745        1.87674162517558        0.64316803087551
C            2.64977638676933        2.91935114869794        0.99724091235578
C            1.29871430723802        2.74455823853500        0.90011822576970
H           -3.03787768933213        3.86164819491771        1.35398907620558
H           -4.56614938967504        1.97757466834157        0.73755405003754
H           -3.98338687138924        1.65371800081841       -1.83715379718641
H           -5.58125144359707        1.85401762311057       -3.68898821464696
H           -7.20793462465860        0.04346272576363       -4.13382113409152
H           -7.18203298937518       -1.99817855130050       -2.71893067880771
H           -5.48312062759057       -4.52564910260885        0.69727445033271
H           -3.96016251421051       -4.86481604853608        2.63052856448163
H           -2.40742042808495       -3.05300472587390        3.28782742857991
H           -2.34129242787435       -0.95820359154743        2.01386000386357
H           -1.18842434096180       -0.46062356284740       -0.26341734881395
H            1.19091373121311       -0.46173956747390       -0.26560389046743
H            2.34813512516515       -0.96058977490104        2.00958345875764
H            2.41516002373080       -3.05564473946023        3.28313420594008
H            3.96485181523948       -4.86874667475537        2.62224689185202
H            5.48394831955072       -4.53073160772298        0.68575933229759
H            7.17759413289717       -2.00437315911053       -2.73398028945092
H            7.20218611054507        0.03743270095768       -4.14864946752838
H            5.57823146755566        1.84946325589316       -3.69991279573832
H            3.98431995605234        1.65043089373338       -1.84453752408187
H            4.57276169795799        1.97329070173601        0.72916236385585
H            3.04737719539190        3.85874105082198        1.34858013667051

 projected vibrational frequencies (cm⁻¹)
eigval :       -0.00    -0.00    -0.00    -0.00     0.00     0.00
eigval :       10.08    11.93    18.45    30.40    31.22    32.79
eigval :       49.73    63.54    75.73    94.63    96.21   105.06
eigval :      110.93   114.90   140.24   155.36   156.74   176.34
eigval :      213.73   227.86   233.03   243.61   244.68   253.68
eigval :      268.42   268.88   287.28   306.89   344.44   346.51
eigval :      359.18   373.68   376.07   391.43   395.58   399.12
eigval :      417.37   425.20   425.77   427.71   428.59   430.92
eigval :      452.04   466.09   493.65   494.11   500.44   501.01
eigval :      506.90   515.10   523.73   530.66   532.63   557.40
eigval :      569.99   575.49   587.53   594.04   596.10   613.95
eigval :      641.09   648.69   653.61   654.55   661.53   663.57
eigval :      667.91   668.13   671.02   692.76   746.04   750.62
eigval :      752.74   773.95   775.17   776.05   776.54   790.63
eigval :      823.11   826.16   834.11   852.14   855.38   855.81
eigval :      866.24   866.32   869.28   870.20   882.22   884.66
eigval :      900.28   900.29   901.35   901.67   909.64   911.77
eigval :      914.13   914.47   914.55   914.93   933.47   971.94
eigval :      986.64   996.07  1059.53  1078.79  1080.59  1080.71
eigval :     1089.87  1091.01  1109.24  1115.00  1115.78  1118.32
eigval :     1132.46  1144.11  1149.94  1171.94  1172.14  1175.36
eigval :     1178.84  1183.53  1187.85  1205.29  1208.27  1208.99
eigval :     1216.76  1223.62  1236.16  1239.01  1241.25  1244.45
eigval :     1258.19  1280.22  1285.13  1298.21  1309.57  1313.21
eigval :     1322.44  1322.79  1335.35  1342.99  1344.81  1349.75
eigval :     1355.40  1373.10  1381.10  1382.42  1416.28  1416.32
eigval :     1435.64  1436.12  1439.12  1439.33  1466.85  1469.90
eigval :     1480.37  1501.19  1514.00  1537.80  1538.58  1540.32
eigval :     1540.68  1546.71  1546.95  1555.49  1577.63  3074.67
eigval :     3080.54  3093.64  3093.85  3097.33  3097.59  3098.70
eigval :     3098.74  3104.89  3105.50  3105.54  3105.77  3106.18
eigval :     3106.25  3113.92  3114.12  3114.96  3115.38  3116.24
eigval :     3116.83  3117.24  3117.72

   temp. (K)  partition function   enthalpy   heat capacity  entropy
                                   cal/mol     cal/K/mol   cal/K/mol   J/K/mol
 298.15  VIB  0.526E+15            19498.814    125.978    119.283
         ROT  0.648E+08              888.752      2.981     38.724
         INT  0.341E+23            20387.566    128.959    158.007
         TR   0.135E+29             1481.254      4.968     44.930
         TOT                       21868.8203   133.9269   202.9377   849.0915

       T/K    H(0)-H(T)+PV         H(T)/Eh          T*S/Eh         G(T)/Eh
   ------------------------------------------------------------------------
    298.15    0.348502E-01    0.503252E+00    0.964223E-01    0.406830E+00
   ------------------------------------------------------------------------

         :::::::::::::::::::::::::::::::::::::::::::::::::::::
         ::                  THERMODYNAMIC                  ::
         :::::::::::::::::::::::::::::::::::::::::::::::::::::
         :: total free energy        -113.218659881991 Eh   ::
         ::.................................................::
         :: total energy             -113.625489558869 Eh   ::
         :: zero point energy           0.468401758722 Eh   ::
         :: G(RRHO) w/o ZPVE           -0.061572081844 Eh   ::
         :: G(RRHO) contrib.            0.406829676878 Eh   ::
         :::::::::::::::::::::::::::::::::::::::::::::::::::::

           -------------------------------------------------
          | TOTAL ENERGY             -113.625489558869 Eh   |
          | TOTAL ENTHALPY           -113.122237616748 Eh   |
          | TOTAL FREE ENERGY        -113.218659881991 Eh   |
          | GRADIENT NORM               0.000096345133 Eh/α |
           -------------------------------------------------

 * finished run on 2025/08/24 at 07:15:01.836
