   * xtb version 6.7.1 (edcfbbe) compiled by 'albert@albert-system' on 2024-07-22

   ID    Z sym.   atoms
    1    6 C      1-5, 7-25, 28-37, 39-62
    2    7 N      6, 38
    3   15 P      26
    4    8 O      27
    5    1 H      63-105

          program call               : xtb data2507/toluene/CzA-PPO/CzA-PPO_toluene_S0_crest.xyz --gfn 2 --gbsa toluene --ohess vtight --parallel 40 --molden --ceasefiles --namespace data2507/toluene/CzA-PPO/CzA-PPO_toluene_S0_finalOpt
      * Solvation model:               GBSA
        Solvent                        toluene
        Solvent mass                       9.2140E+01 g/mol
          :  Hamiltonian                  GFN2-xTB          :
 * total energy  :  -158.7273542 Eh     change       -0.1375611E-08 Eh
 * total energy  :  -158.7274596 Eh     change       -0.1053786E-03 Eh
 * total energy  :  -158.7275054 Eh     change       -0.4574032E-04 Eh
 * total energy  :  -158.7275208 Eh     change       -0.1544539E-04 Eh
 * total energy  :  -158.7275356 Eh     change       -0.1483377E-04 Eh
 * total energy  :  -158.7275521 Eh     change       -0.1646126E-04 Eh
 * total energy  :  -158.7275597 Eh     change       -0.7619593E-05 Eh
 * total energy  :  -158.7275667 Eh     change       -0.7022079E-05 Eh
 * total energy  :  -158.7275708 Eh     change       -0.4099603E-05 Eh
 * total energy  :  -158.7275745 Eh     change       -0.3647481E-05 Eh
 * total energy  :  -158.7276372 Eh     change       -0.5689420E-06 Eh
 * total energy  :  -158.7276375 Eh     change       -0.2990727E-06 Eh
 * total energy  :  -158.7276380 Eh     change       -0.4724500E-06 Eh
 * total energy  :  -158.7276384 Eh     change       -0.4096098E-06 Eh
 * total energy  :  -158.7276390 Eh     change       -0.5990101E-06 Eh
 * total energy  :  -158.7276395 Eh     change       -0.5010799E-06 Eh
 * total energy  :  -158.7276395 Eh     change        0.7073723E-07 Eh
 * total energy  :  -158.7276399 Eh     change       -0.3989664E-06 Eh
 * total energy  :  -158.7276399 Eh     change       -0.7578706E-08 Eh
   *** GEOMETRY OPTIMIZATION CONVERGED AFTER 68 ITERATIONS ***

 final structure:
================
105
 xtb: 6.7.1 (edcfbbe)
C           -9.82402834917812        0.12684169754384        4.35817689218723
C           -8.90034269536118        0.29008574971309        3.18867259324430
C           -7.52654533382960        0.39968625614109        3.35963032274929
C           -6.68150106305496        0.56985932243710        2.28004213250528
C           -7.19220814447581        0.62615435843422        0.98393291821427
N           -6.32528948353247        0.77611137456551       -0.10092496215070
C           -6.70273016873251        1.44028120975005       -1.27030932490784
C           -6.15367854270893        1.05652527535315       -2.49447729705633
C           -6.49926942514173        1.71893564293556       -3.65460405311640
C           -7.40408856631978        2.77501799569053       -3.64068571089974
C           -7.78606368373291        3.47039727458363       -4.91276209785720
C           -7.94695746260590        3.15365276979115       -2.41910880887834
C           -7.60163695683585        2.50679860245148       -1.24865327116176
C           -5.02270453510331        0.24006322874403       -0.01225823703877
C           -4.84989231283847       -1.14277143884316        0.18124556893018
C           -5.94680651381173       -2.04065689947054        0.23565409161595
C           -5.76115555978609       -3.37297894568000        0.44659834314755
C           -4.46366456878590       -3.88967584556528        0.62916977939745
C           -3.38217603679956       -3.06676245015423        0.55249389076034
C           -3.52899477326052       -1.67729369864217        0.29828630977362
C           -2.41770231907184       -0.83252474286066        0.16704962452264
C           -1.05242926423893       -1.39438809215801        0.26104177982289
C           -0.25699754852620       -1.13039663128379        1.37481632381024
C            1.01873977603617       -1.65132450728751        1.45604665882641
C            1.52210763625846       -2.43719862420622        0.42560232549592
P            3.21733379361694       -3.06432404549609        0.66370860266211
O            3.38827888581672       -3.78431407768302        1.94086447042990
C            3.62101281700859       -4.08291693669756       -0.78930417829654
C            3.84901440158940       -3.53399902555371       -2.04565136233212
C            4.15240187420204       -4.36348194898810       -3.11020192389628
C            4.22905860587890       -5.73570453758867       -2.92459660039717
C            4.00558765455193       -6.28296573053848       -1.67129872284170
C            3.70368173767401       -5.45611562435860       -0.60332045724050
C            4.26464853622194       -1.58019097955165        0.54033894421924
C            5.44883082466705       -1.56752502704028        1.26574388483918
C            6.28564321217053       -0.47049227270756        1.21963088037468
C            5.94592687358369        0.62902745231303        0.43224031399529
N            6.78582118395560        1.74636058174122        0.38156595425714
C            8.14912988550462        1.72645689211300        0.14912643283487
C            8.98160550245462        0.65476335223158       -0.14086765912902
C           10.31940817714554        0.91882467741903       -0.36734695715623
C           10.82334979678531        2.21686859825758       -0.31827625591502
C            9.99534239767369        3.28991448854975       -0.05383940268246
C            8.64709168830599        3.04919928022521        0.17811283509453
C            7.52506354066134        3.90320785174540        0.45528823194926
C            7.38987770213738        5.27467682722207        0.62978916174992
C            6.14038709438731        5.78465533756072        0.92245855693242
C            5.03746874234743        4.94382243322364        1.05584739913347
C            5.14734107820075        3.57632251528942        0.88648340944212
C            6.39580469125628        3.06038584769605        0.56874811323855
C            4.75841233455357        0.61347683877961       -0.29901024000717
C            3.92150687168048       -0.48287043104301       -0.24030035971472
C            0.73479410477801       -2.71109317906022       -0.68291073294381
C           -0.54566031993547       -2.19291818027737       -0.76064945311398
C           -2.59155437484515        0.54151984688674       -0.05268740383124
C           -1.48455120068923        1.41599300636667       -0.21622302473742
C           -1.65844302188559        2.75594478238842       -0.37967903330883
C           -2.95482754671561        3.30637028754396       -0.37894200969063
C           -4.04417692842093        2.49863941745157       -0.25693863223334
C           -3.90896690954151        1.09317686928049       -0.11790351924762
C           -8.57122572733144        0.50124550605482        0.80473839399448
C           -9.40445506089955        0.34343016107320        1.89283310168210
H          -10.38276400380264        1.04779432742076        4.52911072706735
H           -9.26803710379924       -0.10884358716446        5.26228317174745
H          -10.54377838909171       -0.66843532637583        4.17052342269414
H           -7.10640408597348        0.35868971320134        4.35485909219565
H           -5.61589141635121        0.65827203710690        2.43573276835607
H           -5.45244639112151        0.23512374976788       -2.52715972418967
H           -6.06245696239207        1.40539860160730       -4.59239761636160
H           -8.30789345398391        4.40146881209329       -4.70521166061320
H           -8.44355122699516        2.83437231815439       -5.50679896296935
H           -6.90327407962066        3.68740246824163       -5.51185746581875
H           -8.64480979639371        3.97831745874549       -2.37725354022986
H           -8.01870742244484        2.83648034847463       -0.30794292279780
H           -6.94490196148646       -1.65435457632253        0.10052308042238
H           -6.60880777366917       -4.04160676910648        0.47955353390159
H           -4.33431825299927       -4.94448423429644        0.82333906073495
H           -2.38663281247512       -3.46312082187808        0.68767482227708
H           -0.64843799508344       -0.51852623078605        2.17473249276528
H            1.64330208082994       -1.46194543372214        2.31965406868670
H            3.79240804905131       -2.46406920463243       -2.18338977586019
H            4.33153729052784       -3.93956676480188       -4.08749930000279
H            4.46703955669198       -6.37927817776159       -3.75869526777429
H            4.06844686112593       -7.35140867282766       -1.52545314875137
H            3.53383873397183       -5.85647584354249        0.38672381902293
H            5.68878308973674       -2.42276079100352        1.88231671077605
H            7.19313113388197       -0.44939884990578        1.80409190614885
H            8.59940592019968       -0.35330514260912       -0.19868418966499
H           10.98796072603716        0.10027839020441       -0.59121629701407
H           11.87535316141230        2.38215513531750       -0.49903904756287
H           10.38284797406491        4.29748713617987       -0.03154804151007
H            8.24804742115539        5.92421620706174        0.54341948232216
H            6.01340531551371        6.84835022282376        1.06077814473678
H            4.07530752360109        5.36922285690296        1.30164469693676
H            4.28937641925942        2.93343585719629        1.01288299634104
H            4.50461983871880        1.46020779306638       -0.91916726510894
H            2.99563403188743       -0.48751040582167       -0.79769842174595
H            1.12195141025126       -3.32763591225041       -1.48176837687490
H           -1.16174939836841       -2.40241200164508       -1.62332051706807
H           -0.49101247829352        0.99326500165238       -0.20813673639419
H           -0.80543856487212        3.40736082292222       -0.50251242039259
H           -3.07906998545396        4.37464596485889       -0.47902078284262
H           -5.03275436649751        2.93027822089898       -0.25915141597393
H           -8.98391261505708        0.51483404254758       -0.19387776999773
H          -10.46935594760470        0.24742626055159        1.73288016835278

          :  Hamiltonian                  GFN2-xTB          :
         :: gradient norm              0.000061113939 Eh/a0 ::
         :: HOMO-LUMO gap              1.633544828172 eV    ::
         :: SCC energy              -161.670317308361 Eh    ::
         :: -> dispersion             -0.153052861274 Eh    ::
         :: -> Gsolv                  -0.068736259619 Eh    ::
         :: repulsion energy           2.942677450058 Eh    ::

    * Orbital Energies and Occupations

         #    Occupation            Energy/Eh            Energy/eV
      -------------------------------------------------------------
         1        2.0000           -0.6996258             -19.0378
       ...           ...                  ...                  ...
       136        2.0000           -0.4097832             -11.1508
       137        2.0000           -0.4086851             -11.1209
       138        2.0000           -0.4075454             -11.0899
       139        2.0000           -0.4052656             -11.0278
       140        2.0000           -0.4043072             -11.0018
       141        2.0000           -0.4027010             -10.9581
       142        2.0000           -0.4011315             -10.9153
       143        2.0000           -0.3999648             -10.8836
       144        2.0000           -0.3901967             -10.6178
       145        2.0000           -0.3809152             -10.3652
       146        2.0000           -0.3673440              -9.9959
       147        2.0000           -0.3663860              -9.9699
       148        2.0000           -0.3429592              -9.3324 (HOMO)
       149                         -0.2829275              -7.6989 (LUMO)
       150                         -0.2604270              -7.0866
       151                         -0.2500759              -6.8049
       152                         -0.2466672              -6.7122
       153                         -0.2435497              -6.6273
       154                         -0.2417387              -6.5780
       155                         -0.2370177              -6.4496
       156                         -0.2359313              -6.4200
       157                         -0.2339640              -6.3665
       158                         -0.2242138              -6.1012
       159                         -0.2242069              -6.1010
       ...                                ...                  ...
       296                          1.1706645              31.8554
      -------------------------------------------------------------
                  HL-Gap            0.0600316 Eh            1.6335 eV

     #   Z          covCN         q      C6AA      α(0)
     1   6 C        3.757    -0.108    22.625     6.782
     2   6 C        2.965     0.007    27.859     8.658
     3   6 C        2.924    -0.040    29.006     8.832
     4   6 C        2.922    -0.052    29.297     8.876
     5   6 C        2.921     0.063    26.592     8.456
     6   7 N        2.751    -0.081    22.809     7.093
     7   6 C        2.921     0.063    26.591     8.456
     8   6 C        2.922    -0.052    29.291     8.875
     9   6 C        2.925    -0.041    29.014     8.833
    10   6 C        2.965     0.007    27.858     8.657
    11   6 C        3.757    -0.109    22.627     6.782
    12   6 C        2.924    -0.041    29.025     8.835
    13   6 C        2.920    -0.053    29.310     8.878
    14   6 C        2.924     0.051    26.858     8.499
    15   6 C        2.981    -0.003    28.088     8.693
    16   6 C        2.917    -0.034    28.835     8.806
    17   6 C        2.915    -0.031    28.764     8.795
    18   6 C        2.914    -0.029    28.734     8.790
    19   6 C        2.918    -0.035    28.872     8.811
    20   6 C        2.984     0.006    27.878     8.661
    21   6 C        2.977    -0.011    28.294     8.725
    22   6 C        2.977     0.024    27.465     8.596
    23   6 C        2.923    -0.029    28.736     8.791
    24   6 C        3.036    -0.019    28.451     8.749
    25   6 C        2.920     0.009    27.821     8.650
    26  15 P        4.075     0.057   157.714    22.559
    27   8 O        0.808    -0.399    21.688     6.243
    28   6 C        2.920     0.012    27.756     8.640
    29   6 C        2.977    -0.026    28.651     8.780
    30   6 C        2.919    -0.026    28.663     8.780
    31   6 C        2.920    -0.023    28.587     8.768
    32   6 C        2.918    -0.026    28.656     8.778
    33   6 C        3.022    -0.019    28.453     8.750
    34   6 C        2.919     0.006    27.886     8.660
    35   6 C        3.019    -0.018    28.442     8.748
    36   6 C        2.921    -0.041    29.007     8.832
    37   6 C        2.913     0.071    26.418     8.428
    38   7 N        2.801    -0.042    22.060     6.976
    39   6 C        3.072     0.047    26.881     8.501
    40   6 C        2.910    -0.051    29.269     8.871
    41   6 C        2.924    -0.034    28.847     8.808
    42   6 C        2.920    -0.041    29.028     8.835
    43   6 C        2.912    -0.034    28.847     8.807
    44   6 C        3.066    -0.017    28.362     8.733
    45   6 C        3.066    -0.017    28.361     8.733
    46   6 C        2.912    -0.034    28.845     8.807
    47   6 C        2.920    -0.041    29.029     8.835
    48   6 C        2.924    -0.034    28.847     8.808
    49   6 C        2.910    -0.051    29.272     8.872
    50   6 C        3.072     0.047    26.881     8.501
    51   6 C        2.922    -0.041    29.026     8.835
    52   6 C        2.975    -0.024    28.601     8.772
    53   6 C        2.964    -0.026    28.653     8.780
    54   6 C        2.924    -0.030    28.748     8.793
    55   6 C        2.983     0.006    27.881     8.661
    56   6 C        2.918    -0.035    28.878     8.812
    57   6 C        2.914    -0.030    28.738     8.791
    58   6 C        2.915    -0.031    28.770     8.796
    59   6 C        2.917    -0.033    28.832     8.805
    60   6 C        2.981    -0.003    28.090     8.694
    61   6 C        2.920    -0.053    29.305     8.877
    62   6 C        2.925    -0.042    29.033     8.836
    63   1 H        0.924     0.047     2.356     2.400
    64   1 H        0.925     0.042     2.428     2.437
    65   1 H        0.925     0.045     2.379     2.412
    66   1 H        0.926     0.029     2.598     2.521
    67   1 H        0.926     0.024     2.679     2.559
    68   1 H        0.926     0.024     2.669     2.555
    69   1 H        0.926     0.031     2.575     2.509
    70   1 H        0.925     0.042     2.419     2.432
    71   1 H        0.924     0.047     2.357     2.401
    72   1 H        0.925     0.045     2.384     2.415
    73   1 H        0.926     0.031     2.579     2.511
    74   1 H        0.926     0.029     2.598     2.521
    75   1 H        0.926     0.034     2.524     2.484
    76   1 H        0.926     0.032     2.553     2.499
    77   1 H        0.926     0.032     2.555     2.499
    78   1 H        0.926     0.031     2.574     2.509
    79   1 H        0.926     0.042     2.416     2.431
    80   1 H        0.925     0.041     2.436     2.441
    81   1 H        0.926     0.047     2.357     2.401
    82   1 H        0.926     0.047     2.362     2.403
    83   1 H        0.926     0.047     2.357     2.401
    84   1 H        0.926     0.044     2.393     2.419
    85   1 H        0.925     0.049     2.336     2.390
    86   1 H        0.925     0.052     2.292     2.368
    87   1 H        0.926     0.051     2.301     2.372
    88   1 H        0.926     0.030     2.590     2.517
    89   1 H        0.926     0.032     2.563     2.504
    90   1 H        0.926     0.030     2.586     2.515
    91   1 H        0.926     0.033     2.547     2.496
    92   1 H        0.926     0.033     2.549     2.497
    93   1 H        0.926     0.030     2.585     2.514
    94   1 H        0.926     0.032     2.557     2.501
    95   1 H        0.926     0.030     2.580     2.512
    96   1 H        0.926     0.054     2.268     2.355
    97   1 H        0.926     0.049     2.338     2.391
    98   1 H        0.926     0.042     2.423     2.434
    99   1 H        0.926     0.044     2.394     2.420
   100   1 H        0.926     0.032     2.559     2.501
   101   1 H        0.926     0.033     2.540     2.492
   102   1 H        0.926     0.032     2.553     2.499
   103   1 H        0.926     0.034     2.529     2.487
   104   1 H        0.926     0.030     2.591     2.517
   105   1 H        0.926     0.032     2.562     2.503

molecular dipole:
                 x           y           z       tot (Debye)
 q only:       -0.766       0.739      -1.753
   full:       -0.774       0.694      -1.819       5.324

 projected vibrational frequencies (cm⁻¹)
eigval :       -0.00    -0.00    -0.00     0.00     0.00     0.00
eigval :      -42.22     3.91     7.38    10.01    14.22    19.13
eigval :       21.08    29.09    31.56    33.28    34.80    40.54
eigval :       42.37    45.56    47.18    49.37    57.43    61.94
eigval :       74.87    77.43    90.06   105.18   112.10   120.09
eigval :      120.82   130.42   138.21   143.17   146.44   151.40
eigval :      157.13   161.32   191.15   192.70   206.26   214.52
eigval :      217.63   222.77   240.10   253.31   260.79   265.49
eigval :      272.70   285.86   292.16   303.40   324.28   327.66
eigval :      347.29   352.48   359.19   364.36   369.54   374.78
eigval :      375.98   377.57   381.06   390.28   393.67   400.31
eigval :      400.52   401.79   413.08   422.95   430.39   435.15
eigval :      437.16   445.06   448.14   459.86   480.72   484.94
eigval :      489.41   495.67   508.45   517.74   522.34   535.12
eigval :      538.97   541.77   576.69   579.60   580.78   584.84
eigval :      585.99   593.25   597.94   606.09   611.07   611.65
eigval :      612.75   629.75   635.51   655.30   659.09   660.97
eigval :      663.28   671.77   674.25   677.84   689.34   692.19
eigval :      702.30   709.23   732.63   733.82   741.60   748.57
eigval :      759.73   768.67   769.87   771.62   781.12   792.36
eigval :      795.12   800.51   802.42   812.96   813.60   859.29
eigval :      867.24   868.56   869.68   870.92   873.26   874.92
eigval :      877.19   878.65   882.97   894.96   897.35   902.21
eigval :      902.72   903.85   911.26   913.81   914.97   916.05
eigval :      918.24   918.61   920.18   921.97   924.95   925.26
eigval :      925.73   926.27   926.63   927.22   928.27   930.91
eigval :      933.25   934.19   936.95   944.22   973.77  1007.25
eigval :     1008.53  1008.90  1009.45  1011.04  1012.41  1027.79
eigval :     1032.14  1033.47  1069.66  1073.48  1076.78  1083.90
eigval :     1084.61  1098.04  1111.93  1114.03  1119.46  1125.36
eigval :     1127.00  1128.07  1129.06  1133.11  1145.04  1148.11
eigval :     1152.16  1171.84  1174.98  1175.57  1178.71  1180.08
eigval :     1182.27  1184.69  1187.60  1189.94  1198.78  1199.93
eigval :     1203.12  1215.95  1220.12  1229.93  1230.70  1234.26
eigval :     1236.07  1243.73  1256.88  1258.34  1258.57  1262.53
eigval :     1269.28  1274.67  1277.31  1284.73  1298.29  1299.31
eigval :     1310.92  1319.84  1320.25  1320.88  1323.78  1327.27
eigval :     1334.64  1347.28  1354.70  1358.79  1360.35  1364.08
eigval :     1383.57  1386.30  1396.00  1401.98  1403.20  1412.21
eigval :     1412.57  1421.06  1422.46  1423.73  1426.26  1426.40
eigval :     1436.90  1450.65  1463.07  1473.56  1476.96  1477.82
eigval :     1479.13  1481.48  1483.27  1485.80  1486.32  1492.03
eigval :     1493.91  1523.63  1525.82  1537.54  1559.16  1560.82
eigval :     1567.57  1572.99  1574.12  1580.37  1581.22  1584.10
eigval :     1585.01  1587.78  1597.12  1605.75  1606.32  1609.04
eigval :     1611.98  1619.52  2991.58  2992.46  3018.48  3021.03
eigval :     3039.31  3040.23  3052.05  3065.73  3066.12  3068.28
eigval :     3069.11  3069.49  3070.74  3071.44  3072.26  3072.48
eigval :     3072.71  3072.90  3073.36  3075.25  3078.50  3079.02
eigval :     3079.26  3079.69  3080.15  3080.47  3080.86  3081.36
eigval :     3082.96  3083.68  3084.94  3085.18  3085.85  3086.59
eigval :     3090.39  3091.92  3092.19  3092.53  3092.99  3094.09
eigval :     3094.90  3104.58  3106.76

   temp. (K)  partition function   enthalpy   heat capacity  entropy
                                   cal/mol     cal/K/mol   cal/K/mol   J/K/mol
 298.15  VIB  0.209E+27            30992.021    189.083    196.630
         ROT  0.238E+09              888.752      2.981     41.309
         INT  0.496E+35            31880.773    192.064    237.939
         TR   0.225E+29             1481.254      4.968     45.951
         TOT                       33362.0269   197.0322   283.8893  1187.7928

       T/K    H(0)-H(T)+PV         H(T)/Eh          T*S/Eh         G(T)/Eh
   ------------------------------------------------------------------------
    298.15    0.531658E-01    0.868040E+00    0.134885E+00    0.733155E+00
   ------------------------------------------------------------------------

         :::::::::::::::::::::::::::::::::::::::::::::::::::::
         ::                  THERMODYNAMIC                  ::
         :::::::::::::::::::::::::::::::::::::::::::::::::::::
         :: total free energy        -157.994484496924 Eh   ::
         ::.................................................::
         :: total energy             -158.727639857733 Eh   ::
         :: zero point energy           0.814874552007 Eh   ::
         :: G(RRHO) w/o ZPVE           -0.081719191197 Eh   ::
         :: G(RRHO) contrib.            0.733155360810 Eh   ::
         :::::::::::::::::::::::::::::::::::::::::::::::::::::

           -------------------------------------------------
          | TOTAL ENERGY             -158.727639857733 Eh   |
          | TOTAL ENTHALPY           -157.859599531703 Eh   |
          | TOTAL FREE ENERGY        -157.994484496924 Eh   |
          | GRADIENT NORM               0.000061198033 Eh/α |
          | HOMO-LUMO GAP               1.633543895642 eV   |
           -------------------------------------------------

 * finished run on 2025/09/08 at 14:20:54.865
