   * xtb version 6.7.1 (edcfbbe) compiled by 'albert@albert-system' on 2024-07-22

   ID    Z sym.   atoms
    1    6 C      1-5, 7-25, 28-37, 39-62
    2    7 N      6, 38
    3   15 P      26
    4    8 O      27
    5    1 H      63-105

          program call               : xtb data2507/toluene/CzA-PPO/CzA-PPO_toluene_S0_finalOpt.xtbopt.xyz --gfn 2 --uhf 2 --gbsa toluene --ohess vtight --parallel 40 --molden --ceasefiles --namespace data2507/toluene/CzA-PPO/CzA-PPO_toluene_T1_preOpt
      * Solvation model:               GBSA
        Solvent                        toluene
        Solvent mass                       9.2140E+01 g/mol
          :  Hamiltonian                  GFN2-xTB          :
 * total energy  :  -158.6591000 Eh     change       -0.4187314E-08 Eh
 * total energy  :  -158.6636444 Eh     change       -0.4544313E-02 Eh
 * total energy  :  -158.6647389 Eh     change       -0.1094584E-02 Eh
 * total energy  :  -158.6648386 Eh     change       -0.9961323E-04 Eh
 * total energy  :  -158.6649185 Eh     change       -0.7998157E-04 Eh
 * total energy  :  -158.6649611 Eh     change       -0.4259564E-04 Eh
 * total energy  :  -158.6650244 Eh     change       -0.6325125E-04 Eh
 * total energy  :  -158.6650897 Eh     change       -0.6534873E-04 Eh
 * total energy  :  -158.6651435 Eh     change       -0.5373050E-04 Eh
 * total energy  :  -158.6651802 Eh     change       -0.3675695E-04 Eh
 * total energy  :  -158.6656286 Eh     change       -0.8576338E-06 Eh
 * total energy  :  -158.6656295 Eh     change       -0.9081717E-06 Eh
 * total energy  :  -158.6656303 Eh     change       -0.8360538E-06 Eh
 * total energy  :  -158.6656310 Eh     change       -0.6376100E-06 Eh
 * total energy  :  -158.6656314 Eh     change       -0.4368540E-06 Eh
 * total energy  :  -158.6656318 Eh     change       -0.3598675E-06 Eh
 * total energy  :  -158.6656321 Eh     change       -0.2899127E-06 Eh
 * total energy  :  -158.6656324 Eh     change       -0.3322896E-06 Eh
 * total energy  :  -158.6656324 Eh     change       -0.3560586E-08 Eh
   *** GEOMETRY OPTIMIZATION CONVERGED AFTER 68 ITERATIONS ***

 final structure:
================
105
 xtb: 6.7.1 (edcfbbe)
C          -10.01288097069844       -0.07987488096889        4.17186948419288
C           -9.04511604801746        0.12896817979827        3.04890899165688
C           -7.67846264885072        0.24054551853415        3.28101537783005
C           -6.79234749661611        0.45066824872128        2.24465268939130
C           -7.25383073092540        0.55280918849534        0.93030965154345
N           -6.34370223792718        0.75760128194737       -0.10464646356804
C           -6.69295105013106        1.47516705527469       -1.24714577424661
C           -6.10250377624858        1.15055811943736       -2.47173550671783
C           -6.42479976854057        1.85796677683193       -3.60973501518591
C           -7.34167945782605        2.90552433378668       -3.57306909174768
C           -7.69777383380719        3.65079827057979       -4.82159377358472
C           -7.92441302505823        3.22590431482835       -2.35105464380483
C           -7.60698789596569        2.53109372762073       -1.20198761580881
C           -5.04968468792169        0.23567917633956        0.00552542342410
C           -4.87358667916401       -1.16340528265137        0.24164989292992
C           -5.94848361205751       -2.05686388471238        0.27905033445217
C           -5.76186315657205       -3.40696258812745        0.55134000239010
C           -4.49271753049555       -3.89091262125388        0.79951432697199
C           -3.40022687412503       -3.03809577571695        0.70756997097785
C           -3.55217916414805       -1.68364499898401        0.38394892609663
C           -2.42790575764541       -0.82215529603410        0.21428520132695
C           -1.07518265067264       -1.36798762800278        0.31247417594531
C           -0.16431378962395       -0.86459570511537        1.25035202143751
C            1.11202773992581       -1.37528736013786        1.33381812993524
C            1.52265359583927       -2.39087436079133        0.47441341548279
P            3.21304498765244       -3.01957376962077        0.70935650565411
O            3.39501886248453       -3.72012380645484        1.99718318587695
C            3.60462291679430       -4.06341105293320       -0.72807409348118
C            3.61659421296401       -3.56401358291077       -2.02518246956249
C            3.92547621419944       -4.40359425152607       -3.07951289826863
C            4.22508686494350       -5.73712847603184       -2.84305468587467
C            4.21851356786528       -6.23423293339514       -1.54983677893053
C            3.90928219122900       -5.39658079184726       -0.49212211116665
C            4.27864225066963       -1.55028794098842        0.55597558769502
C            5.44475237798070       -1.52577577157580        1.30979379710180
C            6.29562432245668       -0.44023548694012        1.24911596951450
C            5.98900901754816        0.63552971179844        0.41709940032497
N            6.84205904610967        1.74247557131629        0.35144994351669
C            8.20951253201495        1.70180418913883        0.14922923482013
C            9.03733416406403        0.61280049898091       -0.08415883189032
C           10.38226493419834        0.85621242769341       -0.29035174076999
C           10.89806889841239        2.15049994194203       -0.27565871773954
C           10.07524849113544        3.23986177976766       -0.06809353673794
C            8.71978179452627        3.02021526167870        0.14169266897325
C            7.60019761735130        3.89391157899892        0.36100871562544
C            7.47314080876758        5.27257784327207        0.47513560028390
C            6.22188766702480        5.80403501874037        0.71762570785638
C            5.10890158631936        4.97821628226640        0.86094250951890
C            5.21046200380071        3.60400059985403        0.75094624794809
C            6.46079121606008        3.06571980913349        0.48113275141440
C            4.82101892497520        0.60746501634922       -0.34455733821719
C            3.96970472210208       -0.47660451362038       -0.27051068729308
C            0.62779539935516       -2.90784038263981       -0.45332610895988
C           -0.65507946719411       -2.40403912771600       -0.52917929726913
C           -2.60895561584151        0.56757992301139       -0.05369662412643
C           -1.52298656242599        1.42478084026085       -0.27331793620703
C           -1.69865010087516        2.78958586849906       -0.46195824498065
C           -2.96901048661973        3.32852861781428       -0.41723070218005
C           -4.06966429181623        2.49651422860797       -0.25057738922690
C           -3.92657877385190        1.11148205859518       -0.12099834782680
C           -8.62561359742801        0.42806153386066        0.68870253402807
C           -9.49916330578672        0.22432512975037        1.73512902947006
H          -10.60401979055372        0.82256743610470        4.33085911836790
H           -9.49213916489638       -0.31666285505525        5.09610965273143
H          -10.70194398813200       -0.88979307072161        3.93784461220220
H           -7.30058914256987        0.17075758640490        4.29088209655522
H           -5.73465370924152        0.54832193761603        2.44082956808237
H           -5.39804573696840        0.33294939786364       -2.51594708146249
H           -5.96223329530689        1.58930437662535       -4.54858139028182
H           -8.17773243848270        4.59768414981755       -4.58721977624433
H           -8.38693716826383        3.05906922012120       -5.42558256355874
H           -6.81038842392687        3.84176139854348       -5.42197334644265
H           -8.62947450942091        4.04281730960266       -2.29449480911906
H           -8.04581525542270        2.81809340778332       -0.25744291513669
H           -6.95067085529502       -1.70083844588681        0.09939483528500
H           -6.61745764818231       -4.06540228400089        0.58664683196031
H           -4.33989979483869       -4.92972965372335        1.05332899183891
H           -2.41145308913802       -3.43087562152132        0.88963856975023
H           -0.48075597829846       -0.08402321620239        1.92745531951220
H            1.81294386714402       -0.99886218133477        2.06892502083935
H            3.38261535100727       -2.52471929777462       -2.20223641992598
H            3.93329806435924       -4.01854372445443       -4.08880508051660
H            4.46573923309526       -6.38935441811927       -3.66967021550711
H            4.45376420924678       -7.27223905611519       -1.36512928235330
H            3.89798973448768       -5.75754732966543        0.52718844303898
H            5.65837002944893       -2.36215445429653        1.96096267858701
H            7.18751353512897       -0.40915012202984        1.85674744490483
H            8.64574272307545       -0.39287512008143       -0.11514765038085
H           11.04732626788097        0.02419769851712       -0.47070061878624
H           11.95540482854755        2.29949646429815       -0.43849520068321
H           10.47238728329487        4.24390425157585       -0.07276013347070
H            8.33868329585747        5.91123100568886        0.38166108360334
H            6.10099083521536        6.87354151546453        0.80816177353450
H            4.14533732727992        5.42085304111907        1.06772490446588
H            4.34423913274473        2.97337600210530        0.88307239375780
H            4.59276328875002        1.43558341655270       -0.99885190793967
H            3.05662735140918       -0.48684939906672       -0.84830643287472
H            0.94150378427660       -3.70100790738390       -1.11820304054303
H           -1.34270373944339       -2.79484171881553       -1.26556402794286
H           -0.52405506510350        1.01715554075964       -0.29310060066042
H           -0.83918885830937        3.42178560441251       -0.63089969643578
H           -3.11916233758188        4.39233462254244       -0.52927990802937
H           -5.05244687769472        2.94037331622353       -0.22781788407926
H           -8.99501588502127        0.46856634454264       -0.32567350083436
H          -10.55569118035660        0.12573258086714        1.53088398304613

          :  Hamiltonian                  GFN2-xTB          :
         :: gradient norm              0.000044132241 Eh/a0 ::
         :: HOMO-LUMO gap              0.632955596526 eV    ::
         :: SCC energy              -161.593373765103 Eh    ::
         :: -> dispersion             -0.153432458023 Eh    ::
         :: -> Gsolv                  -0.069871732868 Eh    ::
         :: repulsion energy           2.927741376873 Eh    ::

    * Orbital Energies and Occupations

         #    Occupation            Energy/Eh            Energy/eV
      -------------------------------------------------------------
         1        2.0000           -0.6973011             -18.9745
       ...           ...                  ...                  ...
       137        2.0000           -0.4084661             -11.1149
       138        2.0000           -0.4077469             -11.0954
       139        2.0000           -0.4061697             -11.0524
       140        2.0000           -0.4035074             -10.9800
       141        2.0000           -0.4010407             -10.9129
       142        2.0000           -0.3997447             -10.8776
       143        2.0000           -0.3972357             -10.8093
       144        2.0000           -0.3930196             -10.6946
       145        2.0000           -0.3805082             -10.3542
       146        2.0000           -0.3658662              -9.9557
       147        2.0000           -0.3646304              -9.9221
       148        1.0000           -0.3421502              -9.3104
       149        1.0000           -0.2835683              -7.7163 (HOMO)
       150        0.0000           -0.2603076              -7.0833 (LUMO)
       151                         -0.2476829              -6.7398
       152                         -0.2432614              -6.6195
       153                         -0.2415164              -6.5720
       154                         -0.2400250              -6.5314
       155                         -0.2350732              -6.3967
       156                         -0.2329390              -6.3386
       157                         -0.2303532              -6.2682
       158                         -0.2288280              -6.2267
       159                         -0.2252103              -6.1283
       160                         -0.2238531              -6.0914
       ...                                ...                  ...
       296                          1.1862926              32.2807
      -------------------------------------------------------------
                  HL-Gap            0.0232607 Eh            0.6330 eV

     #   Z          covCN         q      C6AA      α(0)
     1   6 C        3.757    -0.112    22.689     6.791
     2   6 C        2.965     0.018    27.615     8.620
     3   6 C        2.923    -0.037    28.921     8.819
     4   6 C        2.921    -0.043    29.076     8.843
     5   6 C        2.925     0.062    26.602     8.458
     6   7 N        2.751    -0.034    21.896     6.950
     7   6 C        2.925     0.062    26.601     8.458
     8   6 C        2.921    -0.043    29.074     8.842
     9   6 C        2.924    -0.037    28.930     8.820
    10   6 C        2.965     0.018    27.613     8.619
    11   6 C        3.757    -0.112    22.690     6.791
    12   6 C        2.923    -0.038    28.953     8.824
    13   6 C        2.919    -0.046    29.147     8.853
    14   6 C        2.922     0.021    27.547     8.607
    15   6 C        2.975     0.001    27.997     8.679
    16   6 C        2.920    -0.047    29.163     8.856
    17   6 C        2.915    -0.034    28.855     8.808
    18   6 C        2.913    -0.037    28.917     8.818
    19   6 C        2.921    -0.043    29.076     8.843
    20   6 C        2.978     0.004    27.920     8.667
    21   6 C        2.972    -0.018    28.465     8.752
    22   6 C        2.974     0.020    27.560     8.611
    23   6 C        2.922    -0.032    28.796     8.800
    24   6 C        3.027    -0.022    28.519     8.760
    25   6 C        2.920     0.005    27.901     8.662
    26  15 P        4.071     0.049   158.070    22.585
    27   8 O        0.808    -0.400    21.710     6.246
    28   6 C        2.921     0.012    27.745     8.638
    29   6 C        2.979    -0.026    28.635     8.778
    30   6 C        2.919    -0.027    28.670     8.780
    31   6 C        2.920    -0.024    28.596     8.769
    32   6 C        2.919    -0.027    28.668     8.780
    33   6 C        3.020    -0.019    28.464     8.751
    34   6 C        2.919     0.007    27.868     8.657
    35   6 C        3.021    -0.019    28.452     8.750
    36   6 C        2.921    -0.041    29.017     8.834
    37   6 C        2.913     0.070    26.425     8.429
    38   7 N        2.802    -0.043    22.068     6.977
    39   6 C        3.072     0.047    26.878     8.500
    40   6 C        2.910    -0.051    29.268     8.871
    41   6 C        2.924    -0.034    28.847     8.808
    42   6 C        2.920    -0.041    29.031     8.836
    43   6 C        2.912    -0.034    28.848     8.807
    44   6 C        3.067    -0.017    28.364     8.733
    45   6 C        3.066    -0.017    28.363     8.733
    46   6 C        2.912    -0.034    28.847     8.807
    47   6 C        2.920    -0.042    29.031     8.836
    48   6 C        2.924    -0.034    28.848     8.808
    49   6 C        2.910    -0.051    29.269     8.871
    50   6 C        3.072     0.047    26.878     8.500
    51   6 C        2.922    -0.041    29.027     8.835
    52   6 C        2.973    -0.023    28.583     8.770
    53   6 C        2.966    -0.027    28.671     8.783
    54   6 C        2.924    -0.032    28.810     8.802
    55   6 C        2.978     0.004    27.920     8.667
    56   6 C        2.921    -0.044    29.091     8.845
    57   6 C        2.913    -0.037    28.925     8.819
    58   6 C        2.915    -0.035    28.859     8.809
    59   6 C        2.920    -0.047    29.164     8.856
    60   6 C        2.975     0.001    27.997     8.679
    61   6 C        2.919    -0.046    29.148     8.853
    62   6 C        2.924    -0.039    28.961     8.825
    63   1 H        0.924     0.055     2.264     2.353
    64   1 H        0.925     0.046     2.365     2.405
    65   1 H        0.925     0.052     2.296     2.369
    66   1 H        0.926     0.038     2.472     2.459
    67   1 H        0.926     0.035     2.523     2.484
    68   1 H        0.926     0.035     2.515     2.480
    69   1 H        0.926     0.040     2.452     2.449
    70   1 H        0.925     0.048     2.344     2.394
    71   1 H        0.924     0.055     2.261     2.351
    72   1 H        0.925     0.050     2.316     2.380
    73   1 H        0.926     0.040     2.445     2.445
    74   1 H        0.926     0.039     2.468     2.457
    75   1 H        0.926     0.025     2.665     2.553
    76   1 H        0.926     0.025     2.663     2.552
    77   1 H        0.926     0.023     2.693     2.566
    78   1 H        0.926     0.024     2.676     2.558
    79   1 H        0.926     0.039     2.458     2.452
    80   1 H        0.925     0.033     2.544     2.494
    81   1 H        0.926     0.046     2.365     2.405
    82   1 H        0.926     0.046     2.366     2.405
    83   1 H        0.926     0.047     2.360     2.403
    84   1 H        0.926     0.044     2.399     2.422
    85   1 H        0.925     0.049     2.334     2.389
    86   1 H        0.925     0.052     2.292     2.368
    87   1 H        0.926     0.051     2.307     2.375
    88   1 H        0.926     0.029     2.597     2.520
    89   1 H        0.926     0.032     2.564     2.504
    90   1 H        0.926     0.030     2.583     2.513
    91   1 H        0.926     0.033     2.545     2.495
    92   1 H        0.926     0.033     2.546     2.495
    93   1 H        0.926     0.030     2.583     2.513
    94   1 H        0.926     0.032     2.561     2.502
    95   1 H        0.926     0.030     2.591     2.517
    96   1 H        0.926     0.054     2.276     2.359
    97   1 H        0.926     0.048     2.350     2.397
    98   1 H        0.925     0.035     2.520     2.482
    99   1 H        0.926     0.040     2.444     2.445
   100   1 H        0.926     0.025     2.657     2.549
   101   1 H        0.926     0.024     2.679     2.560
   102   1 H        0.926     0.025     2.665     2.553
   103   1 H        0.926     0.024     2.673     2.557
   104   1 H        0.926     0.039     2.461     2.453
   105   1 H        0.926     0.042     2.429     2.437

molecular dipole:
                 x           y           z       tot (Debye)
 q only:       -2.784       1.493      -1.922
   full:       -2.726       1.410      -1.982       9.285

 projected vibrational frequencies (cm⁻¹)
eigval :       -0.00    -0.00     0.00     0.00     0.00     0.00
eigval :        3.43     6.98     9.81    13.59    21.38    25.94
eigval :       28.57    31.58    38.17    41.31    42.66    47.27
eigval :       47.83    52.85    59.16    60.71    62.48    67.72
eigval :       74.26    84.37    91.32   104.25   114.41   122.56
eigval :      128.09   132.35   141.95   142.81   145.49   150.95
eigval :      157.28   162.55   189.97   195.65   207.64   217.23
eigval :      222.27   231.48   240.63   257.58   260.89   265.49
eigval :      272.32   285.89   292.71   305.07   323.89   325.21
eigval :      350.04   353.79   354.62   363.85   369.78   371.59
eigval :      374.70   378.61   378.74   390.77   394.38   394.97
eigval :      397.81   400.73   404.55   421.04   425.51   431.07
eigval :      437.35   439.97   442.37   476.04   481.45   487.21
eigval :      492.87   496.55   510.79   517.36   521.47   534.94
eigval :      537.03   541.56   566.81   575.60   578.99   580.70
eigval :      583.52   586.61   593.10   598.69   609.11   610.59
eigval :      611.82   614.21   630.32   654.44   657.33   662.67
eigval :      667.04   670.34   674.79   676.55   678.34   683.14
eigval :      702.59   707.21   709.02   733.49   741.09   745.78
eigval :      748.74   753.32   759.66   769.01   780.21   788.85
eigval :      793.21   802.16   804.76   813.07   815.74   834.81
eigval :      835.54   857.03   864.14   866.97   872.85   874.06
eigval :      874.22   879.29   882.23   882.62   885.53   890.66
eigval :      897.35   900.80   901.70   902.17   903.13   904.39
eigval :      912.44   916.21   919.29   919.62   921.25   923.16
eigval :      925.37   926.07   927.40   928.03   930.87   931.83
eigval :      933.83   935.46   935.79   954.21   973.86  1004.00
eigval :     1007.45  1008.26  1008.72  1009.16  1011.03  1023.38
eigval :     1029.29  1030.04  1069.54  1073.49  1076.39  1092.91
eigval :     1105.63  1109.21  1112.32  1113.84  1119.00  1119.14
eigval :     1123.93  1125.75  1127.99  1131.45  1142.68  1145.38
eigval :     1151.21  1160.54  1174.08  1177.30  1179.75  1182.14
eigval :     1182.60  1183.87  1185.50  1189.24  1191.34  1196.03
eigval :     1199.17  1203.18  1215.38  1224.66  1231.74  1234.51
eigval :     1238.78  1243.23  1255.13  1260.33  1261.55  1262.59
eigval :     1269.58  1270.98  1276.45  1296.73  1298.10  1298.42
eigval :     1306.28  1308.54  1309.94  1315.02  1320.08  1321.06
eigval :     1324.33  1329.79  1340.51  1354.60  1358.67  1358.70
eigval :     1360.03  1365.96  1378.28  1389.90  1395.69  1400.99
eigval :     1401.75  1411.86  1412.58  1419.12  1421.26  1423.68
eigval :     1424.16  1426.58  1450.61  1457.52  1471.66  1472.05
eigval :     1473.07  1473.34  1474.39  1476.89  1477.04  1479.58
eigval :     1484.41  1485.75  1499.31  1527.77  1531.86  1533.18
eigval :     1547.60  1555.25  1560.13  1560.22  1566.98  1573.76
eigval :     1580.73  1581.97  1584.50  1587.63  1588.90  1595.36
eigval :     1597.19  1612.03  2992.55  2996.28  3021.15  3027.80
eigval :     3041.25  3043.09  3044.96  3062.37  3068.92  3069.90
eigval :     3070.12  3071.51  3072.31  3072.87  3072.98  3073.12
eigval :     3073.69  3075.06  3075.43  3076.07  3077.24  3078.42
eigval :     3078.58  3078.93  3079.04  3079.83  3079.94  3084.94
eigval :     3085.79  3085.93  3086.04  3086.54  3087.70  3088.77
eigval :     3090.85  3092.16  3092.28  3092.53  3093.25  3094.60
eigval :     3095.78  3102.45  3104.47

   temp. (K)  partition function   enthalpy   heat capacity  entropy
                                   cal/mol     cal/K/mol   cal/K/mol   J/K/mol
 298.15  VIB  0.283E+27            31477.466    192.426    200.346
         ROT  0.239E+09              888.752      2.981     41.315
         INT  0.674E+35            32366.218    195.407    241.661
         TR   0.225E+29             1481.254      4.968     45.951
         TOT                       33847.4721   200.3754   287.6119  1203.3683

       T/K    H(0)-H(T)+PV         H(T)/Eh          T*S/Eh         G(T)/Eh
   ------------------------------------------------------------------------
    298.15    0.539394E-01    0.866812E+00    0.136654E+00    0.730159E+00
   ------------------------------------------------------------------------

         :::::::::::::::::::::::::::::::::::::::::::::::::::::
         ::                  THERMODYNAMIC                  ::
         :::::::::::::::::::::::::::::::::::::::::::::::::::::
         :: total free energy        -157.935473855388 Eh   ::
         ::.................................................::
         :: total energy             -158.665632389556 Eh   ::
         :: zero point energy           0.812872864036 Eh   ::
         :: G(RRHO) w/o ZPVE           -0.082714329868 Eh   ::
         :: G(RRHO) contrib.            0.730158534168 Eh   ::
         :::::::::::::::::::::::::::::::::::::::::::::::::::::

           -------------------------------------------------
          | TOTAL ENERGY             -158.665632389556 Eh   |
          | TOTAL ENTHALPY           -157.798820145288 Eh   |
          | TOTAL FREE ENERGY        -157.935473855388 Eh   |
          | GRADIENT NORM               0.000044126150 Eh/α |
          | HOMO-LUMO GAP               0.632955305161 eV   |
           -------------------------------------------------

 * finished run on 2025/09/08 at 14:21:10.126
