   * xtb version 6.7.1 (edcfbbe) compiled by 'albert@albert-system' on 2024-07-22

   ID    Z sym.   atoms
    1    6 C      1-5, 7-25, 28-37, 39-62
    2    7 N      6, 38
    3   15 P      26
    4    8 O      27
    5    1 H      63-105

          program call               : xtb data2507/toluene/CzA-PPO/CzA-PPO.xyz --gfn 2 --gbsa toluene --ohess vtight --parallel 40 --molden --ceasefiles --namespace data2507/toluene/CzA-PPO/CzA-PPO_toluene_S0_preOpt
      * Solvation model:               GBSA
        Solvent                        toluene
        Solvent mass                       9.2140E+01 g/mol
          :  Hamiltonian                  GFN2-xTB          :
 * total energy  :  -158.6943263 Eh     change       -0.1662499E-08 Eh
 * total energy  :  -158.7162854 Eh     change       -0.2195911E-01 Eh
 * total energy  :  -158.7233516 Eh     change       -0.7066203E-02 Eh
 * total energy  :  -158.7247412 Eh     change       -0.1389581E-02 Eh
 * total energy  :  -158.7254675 Eh     change       -0.7263605E-03 Eh
 * total energy  :  -158.7257604 Eh     change       -0.2928360E-03 Eh
 * total energy  :  -158.7259773 Eh     change       -0.2169807E-03 Eh
 * total energy  :  -158.7261512 Eh     change       -0.1738689E-03 Eh
 * total energy  :  -158.7263077 Eh     change       -0.1564960E-03 Eh
 * total energy  :  -158.7264646 Eh     change       -0.1568683E-03 Eh
 * total energy  :  -158.7276757 Eh     change       -0.1696673E-06 Eh
 * total energy  :  -158.7276759 Eh     change       -0.1735455E-06 Eh
 * total energy  :  -158.7276760 Eh     change       -0.1422929E-06 Eh
 * total energy  :  -158.7276761 Eh     change       -0.1202170E-06 Eh
 * total energy  :  -158.7276763 Eh     change       -0.1179377E-06 Eh
 * total energy  :  -158.7276764 Eh     change       -0.1529929E-06 Eh
 * total energy  :  -158.7276765 Eh     change       -0.1454168E-06 Eh
 * total energy  :  -158.7276767 Eh     change       -0.1223269E-06 Eh
 * total energy  :  -158.7276768 Eh     change       -0.8379450E-07 Eh
   *** GEOMETRY OPTIMIZATION CONVERGED AFTER 112 ITERATIONS ***

 final structure:
================
105
 xtb: 6.7.1 (edcfbbe)
C           -9.28370187087924        1.09868964842507        4.48126257560097
C           -8.41577003130162        0.98268985333122        3.26441908368904
C           -7.03573252800683        1.11996349560486        3.35125545897550
C           -6.23214391806238        0.99984391432920        2.23477003586872
C           -6.79178686821063        0.72580063095202        0.98696235912767
N           -5.96612550287294        0.58671429162609       -0.13073973046582
C           -6.38455533988489        0.93943795932066       -1.41574102080030
C           -5.88299498682385        0.25403911104707       -2.52199552460983
C           -6.26882154852742        0.60846408173223       -3.79970188798970
C           -7.16887145491409        1.64375284028979       -4.01960913168087
C           -7.57314931328654        2.03861798606076       -5.40817947295024
C           -7.66549121602749        2.32436048369469       -2.91300683168139
C           -7.28028537725114        1.98805372809104       -1.63111144334826
C           -4.66134558199376        0.07728078886043        0.04410499245114
C           -4.48187089660226       -1.21609038279248        0.56815337064299
C           -5.57662118185604       -2.06070745715890        0.88545986471500
C           -5.38370093201247       -3.31308298924570        1.38384818026129
C           -4.07962285647962       -3.80230653697094        1.59283792164766
C           -3.00171488481457       -3.03356429340619        1.27721144096255
C           -3.15782917978403       -1.72287029296214        0.75328299293804
C           -2.05218345944954       -0.94420693579667        0.38384899863883
C           -0.68310747739416       -1.47827036670403        0.55822816505563
C           -0.11599764432333       -1.56824220382066        1.82723491696372
C            1.16850356269412       -2.05271181982012        1.98266961312150
C            1.90266699457882       -2.45649777631078        0.87496091081222
P            3.60337454239665       -3.03310495298453        1.17502446987615
O            3.79431807176999       -3.60291001268701        2.52230249624177
C            3.97361480867521       -4.21822306274628       -0.15913070273318
C            4.42047874438244       -3.83203729265069       -1.41623217962581
C            4.66521515188101       -4.79328776279069       -2.38131530563491
C            4.46429732078095       -6.13468289053305       -2.09572314946933
C            4.02414336459371       -6.52105748958607       -0.83953032831183
C            3.77923144937794       -5.56290031778560        0.12786011732127
C            4.66420810445654       -1.58466865334286        0.86393605856165
C            5.86319916958179       -1.51876050492359        1.56241104306708
C            6.72110363925760       -0.45253161409854        1.38154580868889
C            6.38668408950348        0.56350383080427        0.48701031921967
N            7.24868831097068        1.64898086465835        0.29898673361844
C            8.60547406024335        1.57180901844894        0.04218007729733
C            9.40657489875173        0.45565462717806       -0.15307403720012
C           10.74484273626638        0.66190411422687       -0.43101456060898
C           11.27956743837659        1.94529504698641       -0.52273005506133
C           10.48190624037424        3.06001354841352       -0.35504832012341
C            9.13342444805958        2.87794988317047       -0.07573207790809
C            8.03647975807343        3.78305777362672        0.13063130119424
C            7.93378819548335        5.16812088853776        0.15725494174801
C            6.70211166518456        5.73563383533991        0.41777257572254
C            5.58538420075370        4.94017569028407        0.66541769480821
C            5.66261661237616        3.56021822949405        0.64295620194042
C            6.89214386260978        2.98430117756011        0.35611459249630
C            5.18331536821216        0.49603602518545       -0.21426363797637
C            4.32629376462595       -0.56962720776885       -0.02285787427028
C            1.33887627849707       -2.38367106794327       -0.39280944067332
C            0.05517302777390       -1.89562767961470       -0.54698709126634
C           -2.23302932822102        0.34010989274802       -0.14909506378988
C           -1.12930669996368        1.16037371783656       -0.50361625498861
C           -1.30870247954806        2.42392213832681       -0.97656888105965
C           -2.60749969837743        2.95302261348477       -1.10607619162459
C           -3.69290989136209        2.19817214781918       -0.78039612230269
C           -3.55204518859446        0.86798545958945       -0.30773095993376
C           -8.17600438395391        0.57236944858370        0.89613609166659
C           -8.96809687186683        0.70598560516189        2.01852215433069
H           -8.81444482343610        1.72843340487831        5.23376926052973
H           -9.44612468425628        0.11271991811906        4.91956695725279
H          -10.25534942821455        1.51625980905168        4.22603475897770
H           -6.58012056413225        1.33396182630828        4.30795386564985
H           -5.16171703385341        1.11868143391840        2.32223639514153
H           -5.18814624576064       -0.55971997630865       -2.37208800168334
H           -5.86778682041994        0.06201381818503       -4.64181976941100
H           -7.44412445051910        1.20963489855901       -6.10030250979908
H           -6.95585321584451        2.86869717974401       -5.75519901513072
H           -8.61204100382934        2.36128136922696       -5.43232105698740
H           -8.35947165437811        3.14059898610844       -3.05767371810467
H           -7.66301158475513        2.54615545516746       -0.78862924384879
H           -6.57953138005492       -1.70085978073226        0.71721078211843
H           -6.23053136013883       -3.94225652008680        1.61563169153511
H           -3.94298989955639       -4.79657436191132        1.99262265569456
H           -2.00135516300511       -3.41544452099560        1.41815954838288
H           -0.68670691490719       -1.25114921517551        2.68829710238596
H            1.61972734374289       -2.13224004703994        2.96234092526927
H            4.58503116499761       -2.78604188344121       -1.63251302139050
H            5.01527655515681       -4.49500426523144       -3.35883051489946
H            4.65683090912860       -6.88103010724478       -2.85230273505445
H            3.87284890783120       -7.56662122807197       -0.61447784443993
H            3.44638487851116       -5.83937438130580        1.11913709906883
H            6.09983322179634       -2.30771885454019        2.26273913390373
H            7.64208730845984       -0.38996655448203        1.94152102579965
H            9.00022752079361       -0.54318578366856       -0.09994361391737
H           11.38966312101892       -0.19140978166588       -0.58323103662257
H           12.33118812281213        2.06518891078785       -0.73808869279626
H           10.89311288722131        4.05448512932406       -0.44296985596645
H            8.80294238698591        5.78455098599457       -0.01694613494441
H            6.60049069953303        6.81072829931513        0.44144465733818
H            4.63839806303126        5.41187621247466        0.88412156363379
H            4.79465596868063        2.95454344085380        0.85587411300207
H            4.93248455065642        1.27672302541925       -0.91672965389706
H            3.39190099795421       -0.61431265856549       -0.56301604859144
H            1.90158675465326       -2.71587250949286       -1.25364205647145
H           -0.38754877940034       -1.83680507317193       -1.53103307763014
H           -0.13349232948159        0.76133234781779       -0.38147949871389
H           -0.45804592006696        3.03480067944639       -1.24165957316576
H           -2.73610249169487        3.96589644061179       -1.45855791203739
H           -4.68241972736586        2.61795501667133       -0.87042561898585
H           -8.62630626208435        0.33572240248822       -0.05724746516625
H          -10.03812991391293        0.58268668627614        1.92591385278374

          :  Hamiltonian                  GFN2-xTB          :
         :: gradient norm              0.000037042262 Eh/a0 ::
         :: HOMO-LUMO gap              1.630575559320 eV    ::
         :: SCC energy              -161.670547489528 Eh    ::
         :: -> dispersion             -0.152771232084 Eh    ::
         :: -> Gsolv                  -0.068729924097 Eh    ::
         :: repulsion energy           2.942870726583 Eh    ::

    * Orbital Energies and Occupations

         #    Occupation            Energy/Eh            Energy/eV
      -------------------------------------------------------------
         1        2.0000           -0.6993487             -19.0302
       ...           ...                  ...                  ...
       136        2.0000           -0.4102984             -11.1648
       137        2.0000           -0.4088344             -11.1250
       138        2.0000           -0.4075546             -11.0901
       139        2.0000           -0.4051526             -11.0248
       140        2.0000           -0.4034157             -10.9775
       141        2.0000           -0.4028928             -10.9633
       142        2.0000           -0.4013013             -10.9200
       143        2.0000           -0.3999681             -10.8837
       144        2.0000           -0.3904209             -10.6239
       145        2.0000           -0.3808384             -10.3631
       146        2.0000           -0.3676763             -10.0050
       147        2.0000           -0.3663215              -9.9681
       148        2.0000           -0.3428163              -9.3285 (HOMO)
       149                         -0.2828938              -7.6979 (LUMO)
       150                         -0.2589729              -7.0470
       151                         -0.2533868              -6.8950
       152                         -0.2464828              -6.7071
       153                         -0.2420461              -6.5864
       154                         -0.2410213              -6.5585
       155                         -0.2368287              -6.4444
       156                         -0.2358932              -6.4190
       157                         -0.2341792              -6.3723
       158                         -0.2242628              -6.1025
       159                         -0.2241360              -6.0991
       ...                                ...                  ...
       296                          1.1624832              31.6328
      -------------------------------------------------------------
                  HL-Gap            0.0599225 Eh            1.6306 eV

     #   Z          covCN         q      C6AA      α(0)
     1   6 C        3.757    -0.108    22.625     6.782
     2   6 C        2.965     0.007    27.858     8.657
     3   6 C        2.924    -0.041    29.010     8.833
     4   6 C        2.922    -0.052    29.295     8.876
     5   6 C        2.921     0.063    26.591     8.456
     6   7 N        2.751    -0.081    22.817     7.094
     7   6 C        2.921     0.063    26.591     8.456
     8   6 C        2.922    -0.052    29.297     8.876
     9   6 C        2.924    -0.041    29.010     8.833
    10   6 C        2.965     0.007    27.859     8.658
    11   6 C        3.757    -0.108    22.626     6.782
    12   6 C        2.925    -0.041    29.030     8.836
    13   6 C        2.920    -0.053    29.307     8.878
    14   6 C        2.924     0.051    26.856     8.498
    15   6 C        2.981    -0.003    28.086     8.693
    16   6 C        2.917    -0.034    28.836     8.806
    17   6 C        2.915    -0.031    28.763     8.795
    18   6 C        2.914    -0.029    28.733     8.790
    19   6 C        2.918    -0.035    28.873     8.811
    20   6 C        2.983     0.006    27.878     8.661
    21   6 C        2.977    -0.011    28.294     8.725
    22   6 C        2.977     0.024    27.456     8.595
    23   6 C        2.923    -0.030    28.746     8.792
    24   6 C        3.024    -0.020    28.476     8.753
    25   6 C        2.920     0.008    27.848     8.654
    26  15 P        4.070     0.057   157.723    22.560
    27   8 O        0.808    -0.400    21.699     6.244
    28   6 C        2.920     0.011    27.765     8.641
    29   6 C        2.972    -0.027    28.661     8.781
    30   6 C        2.919    -0.027    28.665     8.780
    31   6 C        2.920    -0.024    28.594     8.769
    32   6 C        2.919    -0.026    28.653     8.778
    33   6 C        3.027    -0.019    28.448     8.749
    34   6 C        2.919     0.007    27.868     8.657
    35   6 C        3.024    -0.018    28.433     8.747
    36   6 C        2.921    -0.040    29.004     8.832
    37   6 C        2.913     0.071    26.421     8.429
    38   7 N        2.802    -0.043    22.063     6.976
    39   6 C        3.072     0.047    26.880     8.501
    40   6 C        2.910    -0.051    29.269     8.871
    41   6 C        2.924    -0.034    28.847     8.808
    42   6 C        2.920    -0.041    29.030     8.835
    43   6 C        2.912    -0.034    28.847     8.807
    44   6 C        3.066    -0.017    28.364     8.733
    45   6 C        3.066    -0.017    28.362     8.733
    46   6 C        2.912    -0.034    28.846     8.807
    47   6 C        2.920    -0.041    29.029     8.835
    48   6 C        2.924    -0.034    28.848     8.808
    49   6 C        2.910    -0.051    29.272     8.872
    50   6 C        3.072     0.047    26.880     8.501
    51   6 C        2.922    -0.042    29.031     8.836
    52   6 C        2.971    -0.026    28.638     8.778
    53   6 C        2.971    -0.027    28.682     8.785
    54   6 C        2.924    -0.030    28.760     8.795
    55   6 C        2.984     0.006    27.881     8.661
    56   6 C        2.918    -0.035    28.879     8.812
    57   6 C        2.914    -0.029    28.737     8.790
    58   6 C        2.915    -0.031    28.769     8.795
    59   6 C        2.917    -0.033    28.831     8.805
    60   6 C        2.981    -0.003    28.087     8.693
    61   6 C        2.920    -0.053    29.308     8.878
    62   6 C        2.925    -0.041    29.030     8.836
    63   1 H        0.925     0.043     2.413     2.429
    64   1 H        0.924     0.047     2.353     2.399
    65   1 H        0.925     0.044     2.397     2.421
    66   1 H        0.926     0.030     2.591     2.517
    67   1 H        0.926     0.024     2.677     2.559
    68   1 H        0.926     0.024     2.672     2.556
    69   1 H        0.926     0.030     2.587     2.515
    70   1 H        0.925     0.043     2.414     2.430
    71   1 H        0.924     0.048     2.351     2.398
    72   1 H        0.925     0.044     2.395     2.420
    73   1 H        0.926     0.031     2.569     2.506
    74   1 H        0.926     0.029     2.597     2.520
    75   1 H        0.926     0.035     2.522     2.483
    76   1 H        0.926     0.032     2.553     2.499
    77   1 H        0.926     0.032     2.554     2.499
    78   1 H        0.926     0.031     2.573     2.508
    79   1 H        0.926     0.042     2.425     2.435
    80   1 H        0.925     0.047     2.362     2.403
    81   1 H        0.926     0.045     2.387     2.416
    82   1 H        0.926     0.046     2.367     2.406
    83   1 H        0.926     0.047     2.360     2.402
    84   1 H        0.926     0.044     2.395     2.420
    85   1 H        0.925     0.046     2.368     2.407
    86   1 H        0.926     0.053     2.287     2.365
    87   1 H        0.926     0.051     2.303     2.373
    88   1 H        0.926     0.030     2.589     2.516
    89   1 H        0.926     0.032     2.563     2.503
    90   1 H        0.926     0.030     2.587     2.515
    91   1 H        0.926     0.033     2.549     2.497
    92   1 H        0.926     0.033     2.549     2.497
    93   1 H        0.926     0.030     2.586     2.515
    94   1 H        0.926     0.032     2.560     2.502
    95   1 H        0.926     0.030     2.584     2.514
    96   1 H        0.926     0.054     2.270     2.356
    97   1 H        0.926     0.052     2.301     2.372
    98   1 H        0.926     0.046     2.371     2.408
    99   1 H        0.926     0.044     2.391     2.418
   100   1 H        0.926     0.032     2.558     2.501
   101   1 H        0.926     0.033     2.538     2.491
   102   1 H        0.926     0.032     2.553     2.499
   103   1 H        0.926     0.034     2.527     2.486
   104   1 H        0.926     0.029     2.593     2.518
   105   1 H        0.926     0.031     2.568     2.506

molecular dipole:
                 x           y           z       tot (Debye)
 q only:       -0.823       0.536      -1.798
   full:       -0.837       0.490      -1.845       5.297

 projected vibrational frequencies (cm⁻¹)
eigval :       -0.00    -0.00    -0.00    -0.00     0.00     0.00
eigval :       -1.37     5.48     7.45    11.71    18.01    19.43
eigval :       24.25    27.28    31.02    32.10    41.29    42.05
eigval :       44.59    47.90    49.74    57.24    60.41    72.77
eigval :       73.77    83.93   102.94   110.89   118.68   120.17
eigval :      121.03   136.26   138.92   142.33   145.83   150.65
eigval :      157.85   161.62   188.67   194.70   205.92   215.00
eigval :      216.29   227.82   239.93   253.04   260.82   270.91
eigval :      272.86   286.50   291.15   302.69   324.45   328.96
eigval :      347.24   350.65   361.81   364.37   370.91   374.24
eigval :      374.61   375.57   381.37   387.88   391.79   397.62
eigval :      399.86   401.62   414.34   422.02   430.80   435.62
eigval :      437.03   446.97   449.00   458.59   479.63   482.88
eigval :      486.13   488.59   507.92   517.70   522.99   535.30
eigval :      539.51   541.72   578.04   579.97   580.64   585.29
eigval :      585.77   592.84   595.46   608.85   611.48   611.82
eigval :      612.77   628.91   635.72   654.57   657.36   658.87
eigval :      660.92   672.06   674.83   678.94   689.11   691.87
eigval :      701.56   709.12   730.78   733.13   740.86   748.21
eigval :      759.50   766.63   769.35   771.65   780.29   790.19
eigval :      794.80   802.95   805.04   809.56   810.15   859.51
eigval :      866.30   867.29   870.30   870.67   871.91   873.13
eigval :      875.52   876.44   879.88   895.14   896.91   901.10
eigval :      902.29   902.84   909.73   910.35   914.38   915.75
eigval :      916.11   918.00   918.48   920.95   922.82   923.71
eigval :      924.75   924.97   925.39   926.37   929.31   930.59
eigval :      931.52   932.54   935.29   944.19   972.70  1007.30
eigval :     1008.20  1008.92  1010.11  1011.07  1012.49  1028.00
eigval :     1031.59  1033.49  1069.85  1072.28  1077.02  1084.66
eigval :     1085.52  1097.67  1112.63  1113.34  1119.89  1124.64
eigval :     1125.44  1126.56  1129.21  1133.05  1145.04  1148.08
eigval :     1151.44  1171.59  1173.44  1177.57  1178.07  1179.89
eigval :     1180.25  1184.27  1187.14  1189.79  1198.58  1199.04
eigval :     1203.10  1216.08  1223.11  1229.68  1231.48  1234.39
eigval :     1236.47  1242.67  1255.31  1258.14  1259.61  1262.14
eigval :     1269.98  1275.17  1276.79  1284.78  1297.99  1298.19
eigval :     1311.92  1319.12  1319.41  1320.86  1323.71  1328.43
eigval :     1333.40  1348.16  1354.70  1358.82  1359.83  1364.02
eigval :     1383.59  1386.34  1395.08  1401.76  1403.18  1412.05
eigval :     1412.60  1421.43  1422.40  1423.71  1426.62  1426.94
eigval :     1437.07  1451.19  1462.38  1473.05  1476.25  1479.55
eigval :     1480.05  1481.25  1485.55  1485.81  1486.67  1491.72
eigval :     1493.95  1523.61  1526.37  1537.83  1558.75  1559.61
eigval :     1567.30  1572.70  1573.96  1579.85  1581.41  1583.73
eigval :     1584.62  1587.77  1597.17  1605.84  1606.23  1608.67
eigval :     1611.91  1619.94  2986.08  2988.08  3029.23  3030.89
eigval :     3034.73  3036.38  3065.35  3065.50  3065.81  3066.28
eigval :     3068.07  3069.01  3070.06  3070.84  3072.02  3072.18
eigval :     3072.24  3072.77  3073.24  3077.43  3077.82  3078.65
eigval :     3078.93  3079.23  3080.06  3080.25  3080.89  3081.12
eigval :     3082.49  3082.73  3082.92  3084.37  3085.28  3086.65
eigval :     3090.76  3092.10  3092.41  3092.93  3093.06  3094.19
eigval :     3094.96  3106.14  3108.72

   temp. (K)  partition function   enthalpy   heat capacity  entropy
                                   cal/mol     cal/K/mol   cal/K/mol   J/K/mol
 298.15  VIB  0.599E+28            31492.959    190.823    202.118
         ROT  0.239E+09              888.752      2.981     41.320
         INT  0.143E+37            32381.711    193.804    243.438
         TR   0.225E+29             1481.254      4.968     45.951
         TOT                       33862.9650   198.7722   289.3885  1210.8014

       T/K    H(0)-H(T)+PV         H(T)/Eh          T*S/Eh         G(T)/Eh
   ------------------------------------------------------------------------
    298.15    0.539641E-01    0.868880E+00    0.137498E+00    0.731382E+00
   ------------------------------------------------------------------------

         :::::::::::::::::::::::::::::::::::::::::::::::::::::
         ::                  THERMODYNAMIC                  ::
         :::::::::::::::::::::::::::::::::::::::::::::::::::::
         :: total free energy        -157.996294353751 Eh   ::
         ::.................................................::
         :: total energy             -158.727676761904 Eh   ::
         :: zero point energy           0.814916147608 Eh   ::
         :: G(RRHO) w/o ZPVE           -0.083533739455 Eh   ::
         :: G(RRHO) contrib.            0.731382408154 Eh   ::
         :::::::::::::::::::::::::::::::::::::::::::::::::::::

           -------------------------------------------------
          | TOTAL ENERGY             -158.727676761904 Eh   |
          | TOTAL ENTHALPY           -157.858796544584 Eh   |
          | TOTAL FREE ENERGY        -157.996294353751 Eh   |
          | GRADIENT NORM               0.000037136297 Eh/α |
          | HOMO-LUMO GAP               1.630573171845 eV   |
           -------------------------------------------------

 * finished run on 2025/09/08 at 13:51:11.417
