   * xtb version 6.7.1 (edcfbbe) compiled by 'albert@albert-system' on 2024-07-22

   ID    Z sym.   atoms
    1    6 C      1-5, 7-25, 28-37, 39-62
    2    7 N      6, 38
    3   15 P      26
    4    8 O      27
    5    1 H      63-105

          program call               : xtb data2507/toluene/CzA-PPO/CzA-PPO_toluene_T1_crest.xyz --gfn 2 --uhf 2 --gbsa toluene --ohess vtight --parallel 40 --molden --ceasefiles --namespace data2507/toluene/CzA-PPO/CzA-PPO_toluene_T1_finalOpt
      * Solvation model:               GBSA
        Solvent                        toluene
        Solvent mass                       9.2140E+01 g/mol
          :  Hamiltonian                  GFN2-xTB          :
 * total energy  :  -158.6583247 Eh     change       -0.9248112E-08 Eh
 * total energy  :  -158.6584535 Eh     change       -0.1288656E-03 Eh
 * total energy  :  -158.6585319 Eh     change       -0.7838111E-04 Eh
 * total energy  :  -158.6585731 Eh     change       -0.4119192E-04 Eh
 * total energy  :  -158.6586179 Eh     change       -0.4483351E-04 Eh
 * total energy  :  -158.6586821 Eh     change       -0.6416805E-04 Eh
 * total energy  :  -158.6587174 Eh     change       -0.3531685E-04 Eh
 * total energy  :  -158.6587493 Eh     change       -0.3188685E-04 Eh
 * total energy  :  -158.6587746 Eh     change       -0.2532176E-04 Eh
 * total energy  :  -158.6587992 Eh     change       -0.2458618E-04 Eh
 * total energy  :  -158.6665327 Eh     change       -0.3463732E-06 Eh
 * total energy  :  -158.6665330 Eh     change       -0.2912448E-06 Eh
 * total energy  :  -158.6665332 Eh     change       -0.2346111E-06 Eh
 * total energy  :  -158.6665334 Eh     change       -0.1742972E-06 Eh
 * total energy  :  -158.6665335 Eh     change       -0.1457408E-06 Eh
 * total energy  :  -158.6665337 Eh     change       -0.1474737E-06 Eh
 * total energy  :  -158.6665338 Eh     change       -0.1652252E-06 Eh
 * total energy  :  -158.6665340 Eh     change       -0.1369658E-06 Eh
 * total energy  :  -158.6665340 Eh     change       -0.6826895E-09 Eh
   *** GEOMETRY OPTIMIZATION CONVERGED AFTER 860 ITERATIONS ***

 final structure:
================
105
 xtb: 6.7.1 (edcfbbe)
C           -9.15727219350661       -4.89373351784402        2.73665381219707
C           -8.24182303328304       -4.26994163779641        1.72976918301112
C           -7.19591162290485       -3.44658388009687        2.14050266746617
C           -6.35262889151352       -2.85310424879469        1.22645868228574
C           -6.53143043969956       -3.06873802122135       -0.14314753502121
N           -5.66129106916935       -2.47005678639414       -1.05203251303430
C           -6.08452510739835       -2.09353799578150       -2.32475008810026
C           -5.17821479541098       -2.11481924196168       -3.38756064755897
C           -5.57723872319429       -1.73450556010670       -4.65217223113934
C           -6.88254289623404       -1.32481429140293       -4.90339153069656
C           -7.32435930161580       -0.93322587036175       -6.27898620142973
C           -7.78047959888532       -1.29993626896460       -3.83870743285472
C           -7.39534394710412       -1.67132012654512       -2.56831630276171
C           -4.33244331759016       -2.24214142256190       -0.67604787882483
C           -3.52433803776734       -3.34386765250909       -0.25554144017548
C           -3.98719716308465       -4.66382248586442       -0.29536561128799
C           -3.16561366755108       -5.73377954444079        0.03348551366704
C           -1.84543854005997       -5.50996115895331        0.37189429417388
C           -1.35008524197253       -4.21346781297774        0.38895712952006
C           -2.16597986180096       -3.10867732079109        0.11303083866109
C           -1.64305703485326       -1.77989357418405        0.09906496793803
C           -0.26284703599904       -1.54001580275092        0.50155820208367
C            0.20528266119019       -1.95735016236050        1.75517814079411
C            1.50579211392595       -1.71247536086531        2.13892041186297
C            2.38325682484355       -1.06231851986974        1.27685604561825
P            4.06890980951328       -0.73697539637227        1.85103043290733
O            4.28691798152482       -1.10005098480249        3.26622103928266
C            5.21780329843092       -1.60269831492209        0.72753232007516
C            6.56932904751046       -1.32206214086915        0.88755128121087
C            7.50958551088378       -1.98149806336514        0.11781268022645
C            7.09921982349746       -2.92674829321877       -0.81044426226520
C            5.75282717221955       -3.21380254755364       -0.96366949981342
C            4.80857540037787       -2.55461354977821       -0.19359471073168
C            4.33153066736573        1.03552411111649        1.52383381935642
C            4.03213807328886        1.91650081671646        2.55558860140297
C            4.15093535444772        3.27903274520749        2.37001723025009
C            4.56408690523273        3.77648221408613        1.13467458994873
N            4.67807288016781        5.15710561305115        0.93450503939945
C            5.78171578232563        5.81309761042552        0.42162281387330
C            7.01466419888571        5.30344247061347        0.03989440362795
C            7.96768322468112        6.19402708634435       -0.41733607048511
C            7.71111473377152        7.56180124636614       -0.48781895547095
C            6.49413064132172        8.07726884501351       -0.08749108157262
C            5.52036622780544        7.20181074249023        0.37627250168384
C            4.18763159452102        7.38385373063220        0.88208544447077
C            3.37747484578242        8.49801256743305        1.06119327420139
C            2.10417081191611        8.31675220680642        1.56400143394766
C            1.63073299660894        7.04317835259952        1.87304074485686
C            2.41761436678864        5.91961605294600        1.70275203250839
C            3.70653727092708        6.09827956278611        1.22062712805279
C            4.86571485620403        2.89216667776603        0.09984568138616
C            4.75044570503065        1.52992246908464        0.29469117178817
C            1.93464598240251       -0.64559310188098        0.02469073056200
C            0.63156279928631       -0.87746614981250       -0.35282338782342
C           -2.46346226653938       -0.68191455106756       -0.30274117614485
C           -2.01232516112214        0.64122854214753       -0.21113123558676
C           -2.81649365384309        1.71400499352804       -0.57065856326975
C           -4.11284010525708        1.48731231197238       -0.98951603096137
C           -4.60757367660711        0.19097291133635       -1.04009677456828
C           -3.81001350861233       -0.91206937726635       -0.71539684074974
C           -7.57272134741272       -3.90148755389279       -0.56119728523733
C           -8.41191950651836       -4.48492922570806        0.36609919534344
H           -9.79025796725732       -4.13094011937227        3.19107960861205
H           -8.58468637368608       -5.36553437939162        3.53356848582470
H           -9.79759605847526       -5.63983773041122        2.27318065642199
H           -7.04714127110920       -3.26346563593822        3.19496030649294
H           -5.55215395159258       -2.20799866440691        1.55788431683125
H           -4.16442413764175       -2.44195825163395       -3.20876110184475
H           -4.86218788434241       -1.76408188121053       -5.46167349159937
H           -6.46989055142585       -0.74014558231521       -6.92261537981763
H           -7.94938192563917       -0.04283984203150       -6.24342104479189
H           -7.91402921683073       -1.73558091008462       -6.72430186116104
H           -8.79607586935688       -0.97223803565364       -4.00842800536447
H           -8.09858552102425       -1.61409262974739       -1.75032332118036
H           -5.00357437924726       -4.86873950560173       -0.59187188320720
H           -3.56355318361166       -6.73769410033824        0.00821101858526
H           -1.19086361222758       -6.33574497208170        0.60949956950251
H           -0.30361953441681       -4.05696714301267        0.60178377034713
H           -0.47648418023462       -2.44566398421163        2.43683282219815
H            1.86692153748563       -2.01406313882095        3.11288988823395
H            6.86587528972982       -0.58510321219613        1.62351655283122
H            8.55998674330418       -1.76157968111419        0.24098004193316
H            7.83230565405278       -3.44302382877180       -1.41258087638670
H            5.43534411186547       -3.95452167560878       -1.68310123390676
H            3.75608775828868       -2.77516112632755       -0.30644354088884
H            3.72330640890676        1.51101116815761        3.50949972224074
H            3.93991414758813        3.96320703149021        3.17835993688196
H            7.22965906787252        4.24754162624618        0.10702365796420
H            8.93447094264194        5.82132936237448       -0.72303108086637
H            8.48141158775674        8.22510800927980       -0.85311297130366
H            6.30106185844093        9.13889120781193       -0.12706791286591
H            3.73864639670504        9.48337416237292        0.80726034037331
H            1.45926850216603        9.17031679307691        1.71337099757102
H            0.62504912059742        6.93010760864982        2.25120679896153
H            2.03527251821731        4.93566717257838        1.92980260387271
H            5.17537993464909        3.28119488692426       -0.85877470210153
H            4.99087892153666        0.84648246667686       -0.50721898582929
H            2.61629926259618       -0.14315023701421       -0.64659266935407
H            0.29180097856531       -0.57218324242482       -1.33222771651587
H           -1.02193634633777        0.83641779713736        0.17089675415840
H           -2.42737978341193        2.71958512116691       -0.50531419043163
H           -4.75356096951411        2.31232296773490       -1.26459463348453
H           -5.63506760617558        0.04419408056400       -1.33254843339003
H           -7.70317470158213       -4.10676967779829       -1.61374493314526
H           -9.20797846239568       -5.13005143313472        0.02298641185955

          :  Hamiltonian                  GFN2-xTB          :
         :: gradient norm              0.000022148233 Eh/a0 ::
         :: HOMO-LUMO gap              0.735005778805 eV    ::
         :: SCC energy              -161.594104235552 Eh    ::
         :: -> dispersion             -0.153031346721 Eh    ::
         :: -> Gsolv                  -0.070140253638 Eh    ::
         :: repulsion energy           2.927570253775 Eh    ::

    * Orbital Energies and Occupations

         #    Occupation            Energy/Eh            Energy/eV
      -------------------------------------------------------------
         1        2.0000           -0.6966884             -18.9579
       ...           ...                  ...                  ...
       137        2.0000           -0.4095581             -11.1446
       138        2.0000           -0.4090056             -11.1296
       139        2.0000           -0.4066351             -11.0651
       140        2.0000           -0.4042999             -11.0016
       141        2.0000           -0.3991436             -10.8613
       142        2.0000           -0.3987397             -10.8503
       143        2.0000           -0.3982640             -10.8373
       144        2.0000           -0.3960909             -10.7782
       145        2.0000           -0.3802766             -10.3479
       146        2.0000           -0.3662366              -9.9658
       147        2.0000           -0.3655114              -9.9461
       148        1.0000           -0.3422353              -9.3127
       149        1.0000           -0.2851453              -7.7592 (HOMO)
       150        0.0000           -0.2581343              -7.0242 (LUMO)
       151                         -0.2464300              -6.7057
       152                         -0.2451680              -6.6714
       153                         -0.2418495              -6.5811
       154                         -0.2387013              -6.4954
       155                         -0.2347832              -6.3888
       156                         -0.2335301              -6.3547
       157                         -0.2293896              -6.2420
       158                         -0.2292063              -6.2370
       159                         -0.2257388              -6.1427
       160                         -0.2249143              -6.1202
       ...                                ...                  ...
       296                          1.1831697              32.1957
      -------------------------------------------------------------
                  HL-Gap            0.0270110 Eh            0.7350 eV

     #   Z          covCN         q      C6AA      α(0)
     1   6 C        3.757    -0.112    22.692     6.792
     2   6 C        2.965     0.018    27.607     8.618
     3   6 C        2.924    -0.037    28.928     8.820
     4   6 C        2.921    -0.043    29.070     8.842
     5   6 C        2.925     0.062    26.604     8.459
     6   7 N        2.751    -0.034    21.891     6.949
     7   6 C        2.925     0.062    26.605     8.459
     8   6 C        2.921    -0.043    29.075     8.842
     9   6 C        2.923    -0.037    28.921     8.819
    10   6 C        2.965     0.018    27.608     8.619
    11   6 C        3.757    -0.112    22.692     6.792
    12   6 C        2.924    -0.038    28.956     8.825
    13   6 C        2.919    -0.046    29.147     8.853
    14   6 C        2.923     0.021    27.548     8.607
    15   6 C        2.975     0.001    27.990     8.678
    16   6 C        2.920    -0.047    29.157     8.855
    17   6 C        2.915    -0.034    28.839     8.806
    18   6 C        2.914    -0.037    28.912     8.817
    19   6 C        2.922    -0.043    29.060     8.840
    20   6 C        2.977     0.005    27.913     8.666
    21   6 C        2.972    -0.017    28.434     8.747
    22   6 C        2.974     0.019    27.583     8.615
    23   6 C        2.922    -0.033    28.830     8.805
    24   6 C        3.013    -0.022    28.547     8.764
    25   6 C        2.920     0.004    27.938     8.668
    26  15 P        4.073     0.042   158.379    22.607
    27   8 O        0.808    -0.399    21.689     6.243
    28   6 C        2.920     0.014    27.696     8.630
    29   6 C        3.028    -0.018    28.440     8.748
    30   6 C        2.919    -0.026    28.659     8.779
    31   6 C        2.920    -0.024    28.615     8.772
    32   6 C        2.920    -0.026    28.660     8.779
    33   6 C        2.971    -0.024    28.593     8.771
    34   6 C        2.919     0.007    27.855     8.655
    35   6 C        3.025    -0.019    28.447     8.749
    36   6 C        2.921    -0.041    29.013     8.833
    37   6 C        2.913     0.070    26.435     8.431
    38   7 N        2.802    -0.044    22.080     6.979
    39   6 C        3.073     0.047    26.875     8.500
    40   6 C        2.910    -0.051    29.273     8.872
    41   6 C        2.924    -0.034    28.850     8.808
    42   6 C        2.920    -0.042    29.035     8.836
    43   6 C        2.912    -0.034    28.849     8.807
    44   6 C        3.067    -0.017    28.368     8.734
    45   6 C        3.067    -0.017    28.368     8.734
    46   6 C        2.912    -0.034    28.850     8.808
    47   6 C        2.920    -0.042    29.035     8.836
    48   6 C        2.924    -0.034    28.849     8.808
    49   6 C        2.909    -0.051    29.265     8.871
    50   6 C        3.073     0.047    26.873     8.500
    51   6 C        2.922    -0.041    29.022     8.834
    52   6 C        2.971    -0.024    28.600     8.772
    53   6 C        2.979    -0.029    28.729     8.792
    54   6 C        2.923    -0.033    28.825     8.804
    55   6 C        2.977     0.005    27.913     8.666
    56   6 C        2.922    -0.043    29.065     8.841
    57   6 C        2.914    -0.037    28.914     8.817
    58   6 C        2.915    -0.034    28.839     8.806
    59   6 C        2.920    -0.047    29.158     8.855
    60   6 C        2.975     0.002    27.988     8.678
    61   6 C        2.919    -0.046    29.148     8.853
    62   6 C        2.923    -0.038    28.949     8.823
    63   1 H        0.924     0.054     2.265     2.354
    64   1 H        0.925     0.051     2.304     2.374
    65   1 H        0.925     0.048     2.347     2.396
    66   1 H        0.926     0.040     2.452     2.449
    67   1 H        0.926     0.035     2.517     2.481
    68   1 H        0.926     0.035     2.512     2.478
    69   1 H        0.926     0.039     2.461     2.453
    70   1 H        0.925     0.047     2.355     2.400
    71   1 H        0.925     0.051     2.303     2.373
    72   1 H        0.924     0.055     2.259     2.350
    73   1 H        0.926     0.041     2.430     2.438
    74   1 H        0.926     0.039     2.461     2.453
    75   1 H        0.926     0.025     2.652     2.547
    76   1 H        0.926     0.025     2.651     2.546
    77   1 H        0.926     0.024     2.675     2.557
    78   1 H        0.926     0.026     2.650     2.546
    79   1 H        0.926     0.038     2.470     2.458
    80   1 H        0.925     0.043     2.406     2.426
    81   1 H        0.925     0.038     2.474     2.460
    82   1 H        0.926     0.044     2.390     2.418
    83   1 H        0.926     0.047     2.358     2.401
    84   1 H        0.926     0.045     2.381     2.413
    85   1 H        0.925     0.039     2.466     2.456
    86   1 H        0.925     0.050     2.315     2.380
    87   1 H        0.926     0.050     2.316     2.380
    88   1 H        0.926     0.030     2.592     2.518
    89   1 H        0.926     0.032     2.561     2.503
    90   1 H        0.926     0.030     2.585     2.514
    91   1 H        0.926     0.033     2.549     2.497
    92   1 H        0.926     0.033     2.547     2.495
    93   1 H        0.926     0.030     2.585     2.514
    94   1 H        0.926     0.031     2.569     2.507
    95   1 H        0.926     0.028     2.610     2.526
    96   1 H        0.926     0.053     2.282     2.362
    97   1 H        0.926     0.047     2.356     2.400
    98   1 H        0.926     0.041     2.437     2.441
    99   1 H        0.926     0.041     2.432     2.439
   100   1 H        0.926     0.026     2.649     2.545
   101   1 H        0.926     0.024     2.674     2.557
   102   1 H        0.926     0.025     2.652     2.547
   103   1 H        0.926     0.025     2.653     2.547
   104   1 H        0.926     0.039     2.459     2.452
   105   1 H        0.926     0.041     2.442     2.444

molecular dipole:
                 x           y           z       tot (Debye)
 q only:       -2.986      -0.439      -2.533
   full:       -2.922      -0.462      -2.552       9.931

 projected vibrational frequencies (cm⁻¹)
eigval :       -0.00    -0.00    -0.00    -0.00     0.00     0.00
eigval :        5.36     8.36    10.49    16.68    20.69    27.53
eigval :       31.15    32.62    38.85    39.60    43.13    48.29
eigval :       49.77    53.44    55.10    60.48    71.03    73.24
eigval :       74.21    81.07    90.79   105.09   112.22   118.36
eigval :      121.71   131.38   139.38   141.97   148.27   151.98
eigval :      158.97   161.55   186.89   197.70   214.19   223.58
eigval :      227.14   230.23   238.77   256.80   261.49   273.18
eigval :      276.18   281.77   288.80   301.73   317.66   328.88
eigval :      344.23   352.01   358.14   362.14   366.19   371.69
eigval :      373.62   378.06   378.82   387.90   390.76   390.99
eigval :      393.95   402.52   409.12   419.49   428.53   437.09
eigval :      439.30   440.06   457.82   477.68   478.39   481.05
eigval :      489.13   495.57   509.87   518.01   522.45   533.53
eigval :      536.26   542.69   567.01   575.22   580.25   580.51
eigval :      583.39   586.37   592.82   600.30   608.40   610.59
eigval :      611.48   614.24   631.17   653.97   661.66   662.08
eigval :      664.22   667.55   674.30   677.44   680.42   682.34
eigval :      701.20   708.97   709.65   734.75   739.06   747.60
eigval :      751.60   757.88   759.50   769.76   781.41   788.80
eigval :      793.09   801.47   804.51   813.86   814.44   839.52
eigval :      842.86   857.28   863.73   867.69   870.69   871.47
eigval :      873.86   877.60   883.55   886.75   889.71   891.39
eigval :      897.29   901.31   901.46   904.20   904.83   905.60
eigval :      912.20   915.45   917.55   920.37   922.34   922.62
eigval :      925.20   925.39   926.40   927.71   930.30   931.88
eigval :      932.60   933.56   934.73   953.34   973.59  1002.89
eigval :     1008.27  1008.58  1009.40  1009.58  1011.16  1023.30
eigval :     1029.88  1031.06  1069.64  1073.03  1077.04  1093.28
eigval :     1108.52  1111.98  1112.63  1113.72  1116.63  1122.38
eigval :     1123.31  1126.88  1127.73  1132.46  1142.12  1144.71
eigval :     1151.36  1163.10  1174.29  1177.46  1178.90  1180.14
eigval :     1184.49  1187.22  1189.12  1189.52  1190.91  1196.06
eigval :     1199.23  1204.45  1216.41  1225.39  1232.29  1234.88
eigval :     1241.76  1243.83  1257.65  1261.88  1262.71  1263.58
eigval :     1271.02  1271.10  1276.71  1298.10  1299.22  1300.33
eigval :     1307.87  1309.17  1310.33  1317.06  1319.46  1320.62
eigval :     1324.55  1329.57  1340.15  1354.59  1355.31  1359.04
eigval :     1360.51  1361.91  1381.64  1394.32  1395.73  1401.64
eigval :     1402.50  1411.73  1414.62  1419.02  1421.39  1421.78
eigval :     1424.43  1426.62  1452.96  1454.36  1471.12  1472.27
eigval :     1473.17  1473.37  1473.98  1476.67  1477.41  1480.17
eigval :     1484.11  1486.05  1504.74  1523.55  1529.87  1535.26
eigval :     1546.14  1555.04  1559.13  1559.84  1564.00  1573.66
eigval :     1579.33  1582.91  1585.66  1587.79  1588.70  1595.16
eigval :     1597.03  1611.98  2992.91  2996.68  3022.49  3025.73
eigval :     3044.36  3045.06  3047.84  3063.58  3066.28  3067.54
eigval :     3069.55  3070.30  3070.79  3071.60  3072.20  3072.55
eigval :     3073.52  3074.07  3075.77  3076.15  3076.52  3077.35
eigval :     3078.17  3079.12  3079.84  3080.64  3081.39  3081.53
eigval :     3084.68  3085.67  3085.79  3086.64  3088.53  3089.36
eigval :     3091.04  3091.60  3091.83  3092.26  3092.85  3093.92
eigval :     3094.03  3106.76  3108.40

   temp. (K)  partition function   enthalpy   heat capacity  entropy
                                   cal/mol     cal/K/mol   cal/K/mol   J/K/mol
 298.15  VIB  0.943E+26            31450.840    192.539    199.382
         ROT  0.237E+09              888.752      2.981     41.302
         INT  0.223E+35            32339.593    195.520    240.684
         TR   0.225E+29             1481.254      4.968     45.951
         TOT                       33820.8465   200.4878   286.6347  1199.2797

       T/K    H(0)-H(T)+PV         H(T)/Eh          T*S/Eh         G(T)/Eh
   ------------------------------------------------------------------------
    298.15    0.538969E-01    0.866941E+00    0.136189E+00    0.730752E+00
   ------------------------------------------------------------------------

         :::::::::::::::::::::::::::::::::::::::::::::::::::::
         ::                  THERMODYNAMIC                  ::
         :::::::::::::::::::::::::::::::::::::::::::::::::::::
         :: total free energy        -157.935781921962 Eh   ::
         ::.................................................::
         :: total energy             -158.666533976269 Eh   ::
         :: zero point energy           0.813044514150 Eh   ::
         :: G(RRHO) w/o ZPVE           -0.082292459844 Eh   ::
         :: G(RRHO) contrib.            0.730752054306 Eh   ::
         :::::::::::::::::::::::::::::::::::::::::::::::::::::

           -------------------------------------------------
          | TOTAL ENERGY             -158.666533976269 Eh   |
          | TOTAL ENTHALPY           -157.799592512495 Eh   |
          | TOTAL FREE ENERGY        -157.935781921962 Eh   |
          | GRADIENT NORM               0.000022148950 Eh/α |
          | HOMO-LUMO GAP               0.735006297000 eV   |
           -------------------------------------------------

 * finished run on 2025/09/08 at 14:49:42.777
