   * xtb version 6.7.1 (edcfbbe) compiled by 'albert@albert-system' on 2024-07-22

   ID    Z sym.   atoms
    1    6 C      1-4, 6-11, 13-15, 19-25, 27-32, 34-41, 43-48, 50, 51
    2    7 N      5, 12, 16-18, 26, 33, 42, 49
    3    1 H      52-78

          program call               : xtb data2507/toluene/BMZ-TZ/BMZ-TZ_toluene_T1_crest.xyz --gfn 2 --uhf 2 --gbsa toluene --ohess vtight --parallel 40 --molden --ceasefiles --namespace data2507/toluene/BMZ-TZ/BMZ-TZ_toluene_T1_finalOpt
      * Solvation model:               GBSA
        Solvent                        toluene
        Solvent mass                       9.2140E+01 g/mol
          :  Hamiltonian                  GFN2-xTB          :
 * total energy  :  -130.0402175 Eh     change       -0.5946822E-07 Eh
 * total energy  :  -130.0403117 Eh     change       -0.9417019E-04 Eh
 * total energy  :  -130.0403755 Eh     change       -0.6379341E-04 Eh
 * total energy  :  -130.0404062 Eh     change       -0.3069551E-04 Eh
 * total energy  :  -130.0404491 Eh     change       -0.4293889E-04 Eh
 * total energy  :  -130.0404824 Eh     change       -0.3327498E-04 Eh
 * total energy  :  -130.0405056 Eh     change       -0.2316503E-04 Eh
 * total energy  :  -130.0405234 Eh     change       -0.1779723E-04 Eh
 * total energy  :  -130.0405378 Eh     change       -0.1438620E-04 Eh
 * total energy  :  -130.0405458 Eh     change       -0.8043756E-05 Eh
 * total energy  :  -130.0406326 Eh     change       -0.1853366E-06 Eh
 * total energy  :  -130.0406327 Eh     change       -0.1143950E-06 Eh
 * total energy  :  -130.0406329 Eh     change       -0.1916955E-06 Eh
 * total energy  :  -130.0406331 Eh     change       -0.1938438E-06 Eh
 * total energy  :  -130.0406333 Eh     change       -0.1954766E-06 Eh
 * total energy  :  -130.0406335 Eh     change       -0.2157842E-06 Eh
 * total energy  :  -130.0406337 Eh     change       -0.2255391E-06 Eh
 * total energy  :  -130.0406337 Eh     change        0.3280229E-07 Eh
 * total energy  :  -130.0406337 Eh     change       -0.3444291E-07 Eh
   *** GEOMETRY OPTIMIZATION CONVERGED AFTER 45 ITERATIONS ***

 final structure:
================
78
 xtb: 6.7.1 (edcfbbe)
C           -5.41607290989227       -3.26789020085909        0.71254807344580
C           -5.56556342244649       -1.89354580541680        0.65097994452056
C           -4.50187348508404       -1.09595455787828        0.21534409287247
C           -4.66720529104511        0.34482580799293        0.16861283394673
N           -5.82677550132978        0.95069078629375        0.27126789890368
C           -5.56562956065114        2.28911928854313        0.20974615704595
C           -6.42154200857712        3.38838162843886        0.26712629081316
C           -5.85383981124964        4.64150161146132        0.19343610055890
C           -4.47121745098581        4.82153347254698        0.06591020974438
C           -3.60263534283398        3.74978985247271        0.00339203798573
C           -4.16906217997461        2.48802363223079        0.07353895348642
N           -3.62720803710131        1.23175703185940        0.04341721716059
C           -3.30378364520393       -1.69383232692676       -0.15432697558629
C           -3.12591217396157       -3.07571803996245       -0.03386999910933
C           -1.86734517051153       -3.71563013606368       -0.35002656756104
N           -1.98264018611306       -5.01810136625523       -0.87662431286832
N           -0.91357871552701       -5.55333764820741       -1.19960189700184
N            0.25270922521845       -5.17990817565522       -1.16105616095040
C            0.55330211962493       -3.90912833280619       -0.63082135669401
C            1.94450811368108       -3.57818146013448       -0.65757824298959
C            2.82961744870227       -4.47170587473000       -1.30353564669914
C            4.17226878196465       -4.19763733102619       -1.41756858462088
C            4.70234888865609       -3.02173916801371       -0.90734893176406
C            3.85387035950760       -2.12619283446771       -0.25120334572582
C            4.36775664378341       -0.87716997583423        0.28753203308729
N            3.68687087567324        0.24108467242061        0.39067729961557
C            4.54366625284479        1.16084415959751        0.94627486803910
C            4.34682587945799        2.49756427497410        1.27990995916667
C            5.41130555209618        3.18081534609250        1.82964933950915
C            6.64596280181720        2.56629028517911        2.05218960708377
C            6.86173237752411        1.24080700364376        1.73199802885500
C            5.79683822392089        0.54913063098620        1.17784281014043
N            5.64948330332948       -0.74229426134276        0.74086240873985
C            2.50314384640046       -2.41136878917992       -0.11086842935638
C           -0.58602740269891       -3.19245143023951       -0.18719034351460
C           -0.50022630486799       -1.90358145805252        0.53604988947198
C           -0.93829625864020       -1.83430184778301        1.85445879558471
C           -1.00285855471897       -0.61241026360495        2.50208826436438
C           -0.62820145638657        0.54632790442267        1.84636223367278
C           -0.14800935519473        0.47736675226933        0.54131415433203
C            0.31517360576098        1.67160044699378       -0.16187160546554
N           -0.40504765530451        2.73199894458136       -0.42226752568053
C            0.43443243567883        3.57873424923315       -1.10536483806961
C            0.20972538557888        4.84804670732632       -1.62790145822385
C            1.26473155265701        5.47451109835153       -2.25724086315978
C            2.51827649973445        4.86787501263337       -2.37425728161531
C            2.76087990789235        3.60606573792279       -1.87032976648622
C            1.70640886778284        2.96772485410634       -1.23668867586167
N            1.58830501634513        1.73878538294823       -0.64310991414679
C           -0.08751280863099       -0.74720333479985       -0.11374261713637
C           -4.21384151415386       -3.85920615761293        0.37754734392958
H           -6.24367440656571       -3.88317920136378        1.03124239959962
H           -6.49167136084803       -1.41250736410443        0.92063526468472
H           -7.48630251419688        3.24939942716494        0.36661849391610
H           -6.48863551952621        5.51430238135303        0.23583636380380
H           -4.07869277607990        5.82638078730782        0.01555374820343
H           -2.53396886887989        3.86394827662624       -0.09542393407919
H           -2.64136548349475        1.03700554218101       -0.00963206689010
H           -2.51424812578528       -1.08852058031016       -0.56805133028988
H            2.42442527921122       -5.38093497760125       -1.71844528347747
H            4.81991661087896       -4.89971849317347       -1.92115690371701
H            5.74855898734887       -2.79356606879669       -1.04310399547898
H            3.39638762647911        2.98008043889782        1.11363735245717
H            5.28867828431362        4.21951894813474        2.09720245260725
H            7.44819086798154        3.14399077833831        2.48520333195150
H            7.81431116233548        0.76408668766304        1.90471809458896
H            6.34002695943808       -1.47368647053716        0.78734725541529
H            1.90494300719446       -1.71420240421077        0.44746510490740
H           -1.24170675184869       -2.73593579798452        2.36382963909507
H           -1.35515541699018       -0.56457235638350        3.52063320638233
H           -0.69019867849635        1.50617720639180        2.33581399151918
H           -0.75689248577094        5.31865036325237       -1.53963473067411
H            1.12356849221401        6.46189040698918       -2.67106197367400
H            3.31426093109004        5.40057293522052       -2.87286983007007
H            3.72791866005304        3.13330678950888       -1.95794962942358
H            2.34288356748834        1.08910256974103       -0.39058172194073
H            0.25185338861185       -0.79206663408620       -1.13930156252255
H           -4.09057447739811       -4.92966296518397        0.43009905575693

          :  Hamiltonian                  GFN2-xTB          :
         :: gradient norm              0.000072394927 Eh/a0 ::
         :: HOMO-LUMO gap              0.511330758942 eV    ::
         :: SCC energy              -132.298509806839 Eh    ::
         :: -> dispersion             -0.118513383232 Eh    ::
         :: -> Gsolv                  -0.054632967674 Eh    ::
         :: repulsion energy           2.257876055264 Eh    ::

    * Orbital Energies and Occupations

         #    Occupation            Energy/Eh            Energy/eV
      -------------------------------------------------------------
         1        2.0000           -0.7266724             -19.7738
       ...           ...                  ...                  ...
       109        2.0000           -0.4121866             -11.2162
       110        2.0000           -0.4110571             -11.1854
       111        2.0000           -0.4068989             -11.0723
       112        2.0000           -0.4036349             -10.9835
       113        2.0000           -0.3987201             -10.8497
       114        2.0000           -0.3952099             -10.7542
       115        2.0000           -0.3938339             -10.7168
       116        2.0000           -0.3926365             -10.6842
       117        1.9999           -0.3908468             -10.6355
       118        1.9853           -0.3855311             -10.4908
       119        1.9504           -0.3843427             -10.4585
       120        1.0644           -0.3789950             -10.3130
       121        0.9999           -0.3130397              -8.5182 (HOMO)
       122        0.0001           -0.2942487              -8.0069 (LUMO)
       123                         -0.2770052              -7.5377
       124                         -0.2707516              -7.3675
       125                         -0.2668712              -7.2619
       126                         -0.2528105              -6.8793
       127                         -0.2456604              -6.6848
       128                         -0.2372160              -6.4550
       129                         -0.2328851              -6.3371
       130                         -0.2233887              -6.0787
       131                         -0.2220375              -6.0419
       132                         -0.2153841              -5.8609
       ...                                ...                  ...
       231                          0.6941981              18.8901
      -------------------------------------------------------------
                  HL-Gap            0.0187910 Eh            0.5113 eV

     #   Z          covCN         q      C6AA      α(0)
     1   6 C        2.915    -0.023    28.587     8.767
     2   6 C        2.925    -0.027    28.669     8.781
     3   6 C        2.971    -0.002    28.076     8.691
     4   6 C        3.172     0.144    24.517     8.088
     5   7 N        1.890    -0.297    28.539     7.920
     6   6 C        3.189     0.068    26.011     8.320
     7   6 C        2.909    -0.046    29.131     8.850
     8   6 C        2.922    -0.040    28.999     8.831
     9   6 C        2.927    -0.034    28.847     8.808
    10   6 C        2.906    -0.058    29.441     8.897
    11   6 C        3.085     0.047    26.854     8.495
    12   7 N        2.777    -0.136    23.944     7.267
    13   6 C        2.927    -0.044    29.084     8.844
    14   6 C        2.972     0.009    27.802     8.649
    15   6 C        2.951     0.057    26.711     8.477
    16   7 N        1.921    -0.168    25.434     7.478
    17   7 N        2.046     0.115    19.816     6.603
    18   7 N        1.928    -0.141    24.822     7.387
    19   6 C        2.925     0.045    26.984     8.519
    20   6 C        2.969     0.005    27.902     8.664
    21   6 C        2.928    -0.036    28.899     8.816
    22   6 C        2.914    -0.028    28.689     8.783
    23   6 C        2.921    -0.046    29.153     8.854
    24   6 C        2.971    -0.012    28.302     8.726
    25   6 C        3.158     0.147    24.536     8.099
    26   7 N        1.890    -0.325    29.289     8.023
    27   6 C        3.182     0.064    26.137     8.345
    28   6 C        2.910    -0.049    29.217     8.863
    29   6 C        2.923    -0.039    28.959     8.825
    30   6 C        2.927    -0.035    28.867     8.811
    31   6 C        2.908    -0.054    29.332     8.881
    32   6 C        3.078     0.041    27.000     8.519
    33   7 N        2.783    -0.123    23.677     7.227
    34   6 C        2.928    -0.045    29.113     8.849
    35   6 C        2.967    -0.001    28.044     8.686
    36   6 C        2.981     0.020    27.544     8.609
    37   6 C        2.924    -0.032    28.795     8.800
    38   6 C        2.918    -0.026    28.641     8.776
    39   6 C        2.922    -0.034    28.850     8.808
    40   6 C        2.976    -0.008    28.214     8.713
    41   6 C        3.212     0.152    24.131     7.995
    42   7 N        1.883    -0.336    29.563     8.060
    43   6 C        3.204     0.066    25.971     8.302
    44   6 C        2.909    -0.050    29.245     8.868
    45   6 C        2.923    -0.042    29.055     8.840
    46   6 C        2.926    -0.039    28.977     8.828
    47   6 C        2.907    -0.058    29.435     8.896
    48   6 C        3.103     0.045    26.856     8.492
    49   7 N        2.770    -0.170    24.678     7.378
    50   6 C        2.929    -0.037    28.931     8.821
    51   6 C        2.925    -0.027    28.674     8.782
    52   1 H        0.926     0.057     2.235     2.338
    53   1 H        0.926     0.065     2.139     2.287
    54   1 H        0.926     0.046     2.365     2.405
    55   1 H        0.926     0.042     2.427     2.436
    56   1 H        0.926     0.041     2.431     2.438
    57   1 H        0.926     0.054     2.270     2.356
    58   1 H        0.860     0.173     1.257     1.756
    59   1 H        0.926     0.024     2.674     2.557
    60   1 H        0.926     0.060     2.197     2.318
    61   1 H        0.926     0.046     2.365     2.405
    62   1 H        0.926     0.032     2.559     2.502
    63   1 H        0.926     0.030     2.581     2.512
    64   1 H        0.926     0.043     2.415     2.430
    65   1 H        0.926     0.048     2.349     2.396
    66   1 H        0.926     0.043     2.407     2.426
    67   1 H        0.860     0.175     1.241     1.745
    68   1 H        0.926     0.038     2.471     2.458
    69   1 H        0.926     0.051     2.304     2.374
    70   1 H        0.926     0.059     2.215     2.327
    71   1 H        0.926     0.049     2.333     2.389
    72   1 H        0.926     0.041     2.441     2.443
    73   1 H        0.926     0.039     2.460     2.453
    74   1 H        0.926     0.038     2.471     2.458
    75   1 H        0.926     0.025     2.657     2.549
    76   1 H        0.860     0.220     1.009     1.573
    77   1 H        0.926     0.036     2.502     2.474
    78   1 H        0.926     0.063     2.169     2.303

molecular dipole:
                 x           y           z       tot (Debye)
 q only:        1.490      -1.178       0.913
   full:        3.117      -1.074       0.995       8.754

 projected vibrational frequencies (cm⁻¹)
eigval :       -0.00    -0.00    -0.00     0.00     0.00     0.00
eigval :       11.59    17.14    24.54    28.54    31.48    34.01
eigval :       38.65    45.64    47.87    56.71    64.42    70.94
eigval :       76.64    85.30    96.01   106.74   118.30   136.17
eigval :      147.32   166.02   175.70   190.19   192.66   209.38
eigval :      236.36   237.85   242.55   246.26   253.29   256.91
eigval :      273.51   276.25   294.88   297.61   301.71   318.63
eigval :      328.68   336.67   350.04   362.52   377.30   398.14
eigval :      399.90   402.71   427.69   428.78   431.22   449.92
eigval :      460.71   479.16   495.71   510.25   522.70   530.26
eigval :      534.28   536.61   538.53   541.79   545.10   546.39
eigval :      561.47   563.88   573.82   586.28   598.01   602.70
eigval :      607.29   611.28   613.03   632.50   640.10   646.78
eigval :      660.29   661.77   672.38   673.52   679.29   683.69
eigval :      688.73   713.22   714.82   715.48   734.08   769.10
eigval :      771.63   773.61   774.46   783.58   792.23   797.65
eigval :      807.01   811.15   848.32   857.21   861.88   864.99
eigval :      865.46   867.13   867.41   869.40   869.93   870.77
eigval :      871.98   876.27   891.88   895.92   897.60   900.93
eigval :      903.88   906.09   916.14   917.13   919.77   919.98
eigval :      920.92   921.20   930.78   937.92   943.24   961.73
eigval :      984.46   997.34  1003.66  1023.92  1050.09  1058.30
eigval :     1062.74  1064.22  1073.37  1100.41  1107.01  1115.53
eigval :     1124.81  1129.86  1131.51  1134.94  1139.64  1141.87
eigval :     1163.46  1168.35  1171.47  1173.27  1178.01  1180.89
eigval :     1184.11  1184.76  1195.36  1216.32  1219.47  1221.49
eigval :     1228.52  1233.84  1256.89  1260.33  1264.24  1280.09
eigval :     1282.36  1283.99  1291.56  1296.51  1300.29  1304.65
eigval :     1308.99  1314.40  1331.90  1337.57  1344.37  1353.14
eigval :     1357.52  1366.60  1369.25  1376.88  1386.55  1392.95
eigval :     1406.01  1407.27  1411.73  1419.55  1424.80  1434.80
eigval :     1456.90  1465.26  1482.93  1487.73  1488.84  1508.05
eigval :     1512.32  1538.01  1538.56  1540.13  1557.87  1564.06
eigval :     1567.25  1576.46  1581.26  1588.65  1597.48  1605.97
eigval :     1619.64  1622.99  1628.46  3030.85  3074.97  3077.06
eigval :     3077.72  3079.07  3081.43  3083.91  3086.23  3087.23
eigval :     3089.29  3089.63  3091.43  3092.09  3096.69  3096.72
eigval :     3098.03  3102.35  3102.60  3103.78  3104.17  3106.44
eigval :     3106.72  3114.55  3116.52  3154.42  3459.25  3466.55

   temp. (K)  partition function   enthalpy   heat capacity  entropy
                                   cal/mol     cal/K/mol   cal/K/mol   J/K/mol
 298.15  VIB  0.314E+18            23027.263    146.332    142.067
         ROT  0.806E+08              888.752      2.981     39.159
         INT  0.253E+26            23916.015    149.313    181.226
         TR   0.163E+29             1481.254      4.968     45.312
         TOT                       25397.2690   154.2813   226.5379   947.8347

       T/K    H(0)-H(T)+PV         H(T)/Eh          T*S/Eh         G(T)/Eh
   ------------------------------------------------------------------------
    298.15    0.404731E-01    0.618809E+00    0.107635E+00    0.511174E+00
   ------------------------------------------------------------------------

         :::::::::::::::::::::::::::::::::::::::::::::::::::::
         ::                  THERMODYNAMIC                  ::
         :::::::::::::::::::::::::::::::::::::::::::::::::::::
         :: total free energy        -129.529459941904 Eh   ::
         ::.................................................::
         :: total energy             -130.040633747159 Eh   ::
         :: zero point energy           0.578336161731 Eh   ::
         :: G(RRHO) w/o ZPVE           -0.067162356477 Eh   ::
         :: G(RRHO) contrib.            0.511173805255 Eh   ::
         :::::::::::::::::::::::::::::::::::::::::::::::::::::

           -------------------------------------------------
          | TOTAL ENERGY             -130.040633747159 Eh   |
          | TOTAL ENTHALPY           -129.421824461032 Eh   |
          | TOTAL FREE ENERGY        -129.529459941904 Eh   |
          | GRADIENT NORM               0.000070816314 Eh/α |
          | HOMO-LUMO GAP               0.511329370712 eV   |
           -------------------------------------------------

 * finished run on 2025/09/14 at 11:09:51.139
