   * xtb version 6.7.1 (edcfbbe) compiled by 'albert@albert-system' on 2024-07-22

   ID    Z sym.   atoms
    1    6 C      1-4, 6-11, 13-15, 19-25, 27-32, 34-41, 43-48, 50, 51
    2    7 N      5, 12, 16-18, 26, 33, 42, 49
    3    1 H      52-78

          program call               : xtb data2507/toluene/BMZ-TZ/BMZ-TZ_toluene_S0_finalOpt.xtbopt.xyz --gfn 2 --uhf 2 --gbsa toluene --ohess vtight --parallel 40 --molden --ceasefiles --namespace data2507/toluene/BMZ-TZ/BMZ-TZ_toluene_T1_preOpt
      * Solvation model:               GBSA
        Solvent                        toluene
        Solvent mass                       9.2140E+01 g/mol
          :  Hamiltonian                  GFN2-xTB          :
 * total energy  :  -130.0243281 Eh     change       -0.8794473E-08 Eh
 * total energy  :  -130.0265661 Eh     change       -0.2238005E-02 Eh
 * total energy  :  -130.0279613 Eh     change       -0.1395205E-02 Eh
 * total energy  :  -130.0282158 Eh     change       -0.2544159E-03 Eh
 * total energy  :  -130.0285565 Eh     change       -0.3407400E-03 Eh
 * total energy  :  -130.0288166 Eh     change       -0.2601008E-03 Eh
 * total energy  :  -130.0301167 Eh     change       -0.1300148E-02 Eh
 * total energy  :  -130.0297888 Eh     change        0.3279715E-03 Eh
 * total energy  :  -130.0313205 Eh     change       -0.1531700E-02 Eh
 * total energy  :  -130.0318198 Eh     change       -0.4992879E-03 Eh
 * total energy  :  -130.0329988 Eh     change       -0.2549785E-06 Eh
 * total energy  :  -130.0329991 Eh     change       -0.2863781E-06 Eh
 * total energy  :  -130.0329996 Eh     change       -0.4428445E-06 Eh
 * total energy  :  -130.0330002 Eh     change       -0.6377615E-06 Eh
 * total energy  :  -130.0330010 Eh     change       -0.7817423E-06 Eh
 * total energy  :  -130.0330018 Eh     change       -0.8170402E-06 Eh
 * total energy  :  -130.0330020 Eh     change       -0.1887941E-06 Eh
 * total energy  :  -130.0330024 Eh     change       -0.4148185E-06 Eh
 * total energy  :  -130.0330025 Eh     change       -0.8768839E-07 Eh
   *** GEOMETRY OPTIMIZATION CONVERGED AFTER 70 ITERATIONS ***

 final structure:
================
78
 xtb: 6.7.1 (edcfbbe)
C           -3.51215473079712        1.71705732917747       -1.97993762330462
C           -4.83045987282894        1.74473668787645       -1.56220111986176
C           -5.34326847664297        0.69058290749197       -0.79650715034422
C           -6.73002821099324        0.74407990035411       -0.37428127306622
N           -7.50867532667950        1.78530526971729       -0.54063260298771
C           -8.71636949577079        1.44969359268713        0.00186180764332
C           -9.89713415094495        2.18141717111798        0.10497607856270
C          -10.97288515282092        1.57583211549448        0.71786993997454
C          -10.89693628678661        0.27390821868134        1.22210226327485
C           -9.73812798586642       -0.47162961260003        1.13110024283731
C           -8.65201934562407        0.13045413190611        0.51720025045230
N           -7.37389523949589       -0.28875314654289        0.26213958743938
C           -4.50981971495216       -0.36418507011908       -0.44982500533575
C           -3.16506980000787       -0.37748314904848       -0.83617558658144
C           -2.33394438579379       -1.47900041419738       -0.42099696559828
N           -3.00907835326658       -2.71868869915209       -0.29892713010276
N           -2.29980485111307       -3.69887856735498       -0.05528741778196
N           -1.09557640485807       -3.84334159588882        0.13857759136800
C           -0.29470685055669       -2.68468242293351        0.14757436697225
C            1.10387489109241       -2.89723862235325        0.39777101456197
C            1.70186070359130       -4.10199351241650       -0.01317638029255
C            3.06778358560047       -4.26896724646394        0.06222696964242
C            3.88438824852368       -3.24092218779397        0.50923727686865
C            3.30525118182331       -2.05777852730569        0.97437753818815
C            4.08576206133844       -0.90631723669789        1.38156974078281
N            3.57135225457333        0.18529234684206        1.89181647602007
C            4.61204610699976        1.05786231800481        2.04825541521523
C            4.63067638819826        2.36171025258247        2.53540380156799
C            5.84312112121757        3.01927104836461        2.55910128303214
C            7.01911320942904        2.40834039689920        2.11637796244720
C            7.02530018917193        1.11479885990807        1.63187651590179
C            5.81109398029411        0.45038222643028        1.60154523462634
N            5.44209437110776       -0.80430834165229        1.19539200222042
C            1.92206706868010       -1.92452316616928        0.98363683054156
C           -0.96502173879088       -1.48081027187693       -0.15535943581138
C           -0.22102336351328       -0.20208264463497       -0.12211423588336
C           -0.67860297362659        0.83095156959694        0.69158107465036
C            0.06368755440008        1.99279110348008        0.81314380877379
C            1.28859706866499        2.11233291211646        0.18523899001785
C            1.76847845522194        1.07388807464764       -0.61316917654821
C            3.11498457186555        1.06010815237045       -1.14799160644148
N            3.62457132948953        0.05545349005539       -1.81656482768436
C            4.93718226833272        0.37090150169863       -2.03359918389548
C            5.94560400357507       -0.34738277154496       -2.67023942282579
C            7.20224911135523        0.21880263658532       -2.71622599360361
C            7.46649849694606        1.47106525798890       -2.15439356404107
C            6.48179342386130        2.20258238358320       -1.52049299059899
C            5.21910757654281        1.63676090460279       -1.46414225810104
N            4.03336080009679        2.05517033952055       -0.92284969563935
C            0.97685895522944       -0.05769390885560       -0.80709850061771
C           -2.68059395454922        0.66970358885469       -1.63526126419130
H           -3.12708948709329        2.51910069081091       -2.59189972492193
H           -5.48898274797238        2.55699523712323       -1.82321618065303
H           -9.95404769318228        3.18596391577026       -0.28345458663583
H          -11.90264403365855        2.11693378286229        0.81471162013858
H          -11.76745395740392       -0.15663431433997        1.69447614605981
H           -9.68027904029711       -1.47679668715627        1.52143633522703
H           -6.99101143924417       -1.19416182682696        0.47649336814825
H           -4.86499343732614       -1.19031519279569        0.14713992203385
H            1.07351293981503       -4.88398372107468       -0.41095447859517
H            3.51121953859492       -5.19934931975656       -0.26047811135881
H            4.95556498649495       -3.37530247186603        0.51181048832998
H            3.72214412823740        2.82785615795282        2.88408945177609
H            5.89074472864594        4.03217723464232        2.93166971956858
H            7.94488467250366        2.96250473114607        2.15549240132740
H            7.93399805332247        0.64444599521345        1.28809387036353
H            6.04072953011506       -1.49030267924285        0.76968445005566
H            1.51121277655613       -1.04073879618270        1.43911690786290
H           -1.60203999380284        0.71786886951494        1.23856623532020
H           -0.30378147928579        2.79597879791809        1.43341564924151
H            1.87288781110381        3.00696717899246        0.33654978528014
H            5.73837697659593       -1.31269667313387       -3.10509652523954
H            8.00723680370513       -0.31460321848810       -3.20020913231701
H            8.46654753734104        1.87334555907742       -2.21693861468780
H            6.68605930128276        3.16750103043279       -1.08223120058923
H            3.89600557289456        2.88608546790793       -0.37437895990454
H            1.34798484936739       -0.83363734530022       -1.45744987896730
H           -1.66287212813622        0.64710698122296       -1.99123259041278

          :  Hamiltonian                  GFN2-xTB          :
         :: gradient norm              0.000128558354 Eh/a0 ::
         :: HOMO-LUMO gap              0.410694542009 eV    ::
         :: SCC energy              -132.297072052157 Eh    ::
         :: -> dispersion             -0.121971938834 Eh    ::
         :: -> Gsolv                  -0.052733026479 Eh    ::
         :: repulsion energy           2.264069525697 Eh    ::

    * Orbital Energies and Occupations

         #    Occupation            Energy/Eh            Energy/eV
      -------------------------------------------------------------
         1        2.0000           -0.7231585             -19.6781
       ...           ...                  ...                  ...
       109        2.0000           -0.4068152             -11.0700
       110        2.0000           -0.3992189             -10.8633
       111        2.0000           -0.3973111             -10.8114
       112        2.0000           -0.3958994             -10.7730
       113        2.0000           -0.3917596             -10.6603
       114        2.0000           -0.3904334             -10.6242
       115        2.0000           -0.3898469             -10.6083
       116        1.9999           -0.3881653             -10.5625
       117        1.9969           -0.3847478             -10.4695
       118        1.9937           -0.3840762             -10.4512
       119        1.9793           -0.3829341             -10.4202
       120        1.0303           -0.3759775             -10.2309
       121        0.9996           -0.3060506              -8.3281 (HOMO)
       122        0.0004           -0.2909579              -7.9174 (LUMO)
       123                         -0.2758881              -7.5073
       124                         -0.2697397              -7.3400
       125                         -0.2681600              -7.2970
       126                         -0.2431124              -6.6154
       127                         -0.2345544              -6.3825
       128                         -0.2276436              -6.1945
       129                         -0.2231363              -6.0718
       130                         -0.2209440              -6.0122
       131                         -0.2162775              -5.8852
       132                         -0.2135790              -5.8118
       ...                                ...                  ...
       231                          0.6950806              18.9141
      -------------------------------------------------------------
                  HL-Gap            0.0150926 Eh            0.4107 eV

     #   Z          covCN         q      C6AA      α(0)
     1   6 C        2.915    -0.025    28.632     8.774
     2   6 C        2.925    -0.030    28.755     8.794
     3   6 C        2.970    -0.001    28.051     8.688
     4   6 C        3.170     0.145    24.521     8.090
     5   7 N        1.889    -0.301    28.664     7.937
     6   6 C        3.192     0.069    25.969     8.310
     7   6 C        2.910    -0.045    29.119     8.848
     8   6 C        2.922    -0.040    28.999     8.831
     9   6 C        2.926    -0.036    28.891     8.815
    10   6 C        2.907    -0.055    29.377     8.887
    11   6 C        3.078     0.043    26.956     8.512
    12   7 N        2.779    -0.130    23.820     7.249
    13   6 C        2.930    -0.039    28.969     8.827
    14   6 C        2.973     0.010    27.800     8.649
    15   6 C        2.941     0.053    26.816     8.493
    16   7 N        1.921    -0.169    25.454     7.481
    17   7 N        2.048     0.118    19.773     6.596
    18   7 N        1.922    -0.147    24.960     7.408
    19   6 C        2.937     0.051    26.859     8.500
    20   6 C        2.971     0.010    27.794     8.648
    21   6 C        2.925    -0.032    28.804     8.801
    22   6 C        2.915    -0.028    28.694     8.784
    23   6 C        2.920    -0.041    29.019     8.834
    24   6 C        2.972    -0.004    28.122     8.699
    25   6 C        3.174     0.158    24.244     8.041
    26   7 N        1.888    -0.323    29.238     8.016
    27   6 C        3.196     0.071    25.915     8.299
    28   6 C        2.910    -0.054    29.353     8.884
    29   6 C        2.922    -0.044    29.098     8.846
    30   6 C        2.926    -0.039    28.973     8.827
    31   6 C        2.907    -0.057    29.421     8.894
    32   6 C        3.078     0.044    26.932     8.508
    33   7 N        2.781    -0.141    24.052     7.284
    34   6 C        2.933    -0.035    28.880     8.813
    35   6 C        2.966     0.004    27.932     8.669
    36   6 C        2.977     0.021    27.536     8.608
    37   6 C        2.924    -0.029    28.714     8.787
    38   6 C        2.918    -0.024    28.594     8.769
    39   6 C        2.922    -0.030    28.758     8.794
    40   6 C        2.974     0.002    27.978     8.676
    41   6 C        3.174     0.158    24.241     8.041
    42   7 N        1.889    -0.318    29.098     7.997
    43   6 C        3.195     0.070    25.936     8.303
    44   6 C        2.910    -0.051    29.269     8.871
    45   6 C        2.922    -0.043    29.065     8.841
    46   6 C        2.927    -0.038    28.953     8.824
    47   6 C        2.907    -0.057    29.420     8.894
    48   6 C        3.080     0.044    26.919     8.506
    49   7 N        2.780    -0.139    24.015     7.278
    50   6 C        2.932    -0.028    28.704     8.787
    51   6 C        2.920    -0.034    28.835     8.806
    52   1 H        0.926     0.049     2.336     2.390
    53   1 H        0.926     0.061     2.189     2.314
    54   1 H        0.926     0.043     2.412     2.429
    55   1 H        0.926     0.038     2.479     2.462
    56   1 H        0.926     0.039     2.457     2.451
    57   1 H        0.926     0.035     2.520     2.482
    58   1 H        0.860     0.170     1.270     1.766
    59   1 H        0.926     0.043     2.409     2.427
    60   1 H        0.926     0.055     2.256     2.349
    61   1 H        0.926     0.046     2.371     2.408
    62   1 H        0.926     0.028     2.611     2.527
    63   1 H        0.926     0.039     2.461     2.453
    64   1 H        0.926     0.039     2.465     2.455
    65   1 H        0.926     0.041     2.441     2.443
    66   1 H        0.926     0.032     2.556     2.500
    67   1 H        0.860     0.169     1.279     1.772
    68   1 H        0.926     0.051     2.308     2.375
    69   1 H        0.926     0.048     2.348     2.396
    70   1 H        0.926     0.055     2.255     2.348
    71   1 H        0.926     0.038     2.474     2.459
    72   1 H        0.926     0.041     2.431     2.438
    73   1 H        0.926     0.040     2.449     2.447
    74   1 H        0.926     0.042     2.427     2.436
    75   1 H        0.926     0.033     2.543     2.494
    76   1 H        0.860     0.170     1.272     1.766
    77   1 H        0.926     0.058     2.228     2.334
    78   1 H        0.926     0.040     2.454     2.450

molecular dipole:
                 x           y           z       tot (Debye)
 q only:        0.444       0.125       0.148
   full:        1.319       0.118       0.424       3.535

 projected vibrational frequencies (cm⁻¹)
eigval :       -0.00    -0.00    -0.00     0.00     0.00     0.00
eigval :        7.97     9.76    12.98    18.23    23.07    27.02
eigval :       36.62    42.73    45.13    47.88    57.94    67.01
eigval :       74.28    77.57    90.98   100.15   116.71   127.52
eigval :      162.58   168.31   177.52   181.46   191.70   216.99
eigval :      220.11   238.55   239.09   239.99   241.23   274.48
eigval :      293.86   297.99   300.17   305.49   311.96   315.36
eigval :      321.03   333.45   337.93   353.67   371.40   398.60
eigval :      401.96   406.48   426.05   429.39   437.89   459.03
eigval :      471.74   488.12   501.46   503.72   505.02   513.61
eigval :      515.09   517.95   537.87   539.56   540.13   542.31
eigval :      544.83   546.04   548.73   550.59   568.51   584.29
eigval :      599.63   605.76   608.69   611.65   629.79   641.88
eigval :      647.84   651.05   659.36   670.19   673.84   677.80
eigval :      681.03   683.30   714.27   714.67   716.06   730.46
eigval :      771.08   772.13   773.18   775.27   782.83   784.68
eigval :      795.66   806.30   847.88   856.14   859.21   862.25
eigval :      863.68   864.33   865.27   866.43   869.76   870.59
eigval :      871.57   879.92   884.71   887.04   896.37   897.26
eigval :      900.35   904.48   911.28   921.24   921.58   921.99
eigval :      922.36   923.35   923.39   931.74   941.41   963.14
eigval :      985.13   992.90   994.49  1016.42  1055.53  1056.16
eigval :     1056.90  1063.55  1071.37  1082.60  1087.15  1103.94
eigval :     1123.37  1130.43  1134.61  1135.34  1135.63  1137.77
eigval :     1158.11  1165.71  1168.80  1172.01  1174.01  1182.05
eigval :     1183.19  1185.78  1191.83  1209.65  1216.79  1219.59
eigval :     1223.52  1229.96  1255.74  1256.28  1262.41  1282.48
eigval :     1287.34  1288.24  1292.24  1296.48  1301.03  1304.64
eigval :     1309.40  1319.07  1330.54  1334.17  1349.61  1350.30
eigval :     1351.35  1360.94  1366.29  1368.10  1377.11  1397.19
eigval :     1406.06  1407.56  1411.01  1424.58  1428.58  1441.32
eigval :     1449.77  1466.11  1486.90  1487.39  1488.95  1512.65
eigval :     1514.08  1523.05  1535.10  1541.60  1558.00  1563.20
eigval :     1567.08  1576.36  1584.20  1590.55  1590.71  1612.46
eigval :     1620.43  1621.02  1623.44  3075.71  3076.00  3076.98
eigval :     3077.84  3079.31  3081.39  3082.51  3083.71  3083.85
eigval :     3085.97  3089.47  3091.20  3091.57  3091.77  3093.02
eigval :     3098.51  3099.03  3100.07  3101.45  3102.59  3104.61
eigval :     3111.34  3117.51  3138.87  3471.20  3479.44  3481.31

   temp. (K)  partition function   enthalpy   heat capacity  entropy
                                   cal/mol     cal/K/mol   cal/K/mol   J/K/mol
 298.15  VIB  0.757E+19            23290.578    146.521    145.284
         ROT  0.946E+08              888.752      2.981     39.477
         INT  0.716E+27            24179.330    149.502    184.762
         TR   0.163E+29             1481.254      4.968     45.312
         TOT                       25660.5840   154.4703   230.0738   962.6290

       T/K    H(0)-H(T)+PV         H(T)/Eh          T*S/Eh         G(T)/Eh
   ------------------------------------------------------------------------
    298.15    0.408927E-01    0.618517E+00    0.109316E+00    0.509201E+00
   ------------------------------------------------------------------------

         :::::::::::::::::::::::::::::::::::::::::::::::::::::
         ::                  THERMODYNAMIC                  ::
         :::::::::::::::::::::::::::::::::::::::::::::::::::::
         :: total free energy        -129.523801309905 Eh   ::
         ::.................................................::
         :: total energy             -130.033002529082 Eh   ::
         :: zero point energy           0.577623982599 Eh   ::
         :: G(RRHO) w/o ZPVE           -0.068422763422 Eh   ::
         :: G(RRHO) contrib.            0.509201219177 Eh   ::
         :::::::::::::::::::::::::::::::::::::::::::::::::::::

           -------------------------------------------------
          | TOTAL ENERGY             -130.033002529082 Eh   |
          | TOTAL ENTHALPY           -129.414485802964 Eh   |
          | TOTAL FREE ENERGY        -129.523801309905 Eh   |
          | GRADIENT NORM               0.000128400238 Eh/α |
          | HOMO-LUMO GAP               0.410691767869 eV   |
           -------------------------------------------------

 * finished run on 2025/09/14 at 11:04:17.722
