   * xtb version 6.7.1 (edcfbbe) compiled by 'albert@albert-system' on 2024-07-22

   ID    Z sym.   atoms
    1    6 C      1-4, 6-11, 13-15, 19-25, 27-32, 34-41, 43-48, 50, 51
    2    7 N      5, 12, 16-18, 26, 33, 42, 49
    3    1 H      52-78

          program call               : xtb data2507/toluene/BMZ-TZ/BMZ-TZ_toluene_S0_crest.xyz --gfn 2 --gbsa toluene --ohess vtight --parallel 40 --molden --ceasefiles --namespace data2507/toluene/BMZ-TZ/BMZ-TZ_toluene_S0_finalOpt
      * Solvation model:               GBSA
        Solvent                        toluene
        Solvent mass                       9.2140E+01 g/mol
          :  Hamiltonian                  GFN2-xTB          :
 * total energy  :  -130.1049323 Eh     change       -0.2278853E-08 Eh
 * total energy  :  -130.1049890 Eh     change       -0.5669810E-04 Eh
 * total energy  :  -130.1050413 Eh     change       -0.5234108E-04 Eh
 * total energy  :  -130.1050862 Eh     change       -0.4482225E-04 Eh
 * total energy  :  -130.1051246 Eh     change       -0.3844682E-04 Eh
 * total energy  :  -130.1051767 Eh     change       -0.5211692E-04 Eh
 * total energy  :  -130.1052116 Eh     change       -0.3485988E-04 Eh
 * total energy  :  -130.1052259 Eh     change       -0.1427794E-04 Eh
 * total energy  :  -130.1052430 Eh     change       -0.1709680E-04 Eh
 * total energy  :  -130.1052523 Eh     change       -0.9326577E-05 Eh
 * total energy  :  -130.1052995 Eh     change       -0.4432417E-06 Eh
 * total energy  :  -130.1052999 Eh     change       -0.4505941E-06 Eh
 * total energy  :  -130.1053003 Eh     change       -0.3049135E-06 Eh
 * total energy  :  -130.1053006 Eh     change       -0.3467646E-06 Eh
 * total energy  :  -130.1053010 Eh     change       -0.4104020E-06 Eh
 * total energy  :  -130.1053014 Eh     change       -0.3748915E-06 Eh
 * total energy  :  -130.1053017 Eh     change       -0.3036174E-06 Eh
 * total energy  :  -130.1053019 Eh     change       -0.2099211E-06 Eh
 * total energy  :  -130.1053019 Eh     change       -0.1942544E-07 Eh
   *** GEOMETRY OPTIMIZATION CONVERGED AFTER 39 ITERATIONS ***

 final structure:
================
78
 xtb: 6.7.1 (edcfbbe)
C           -3.51937889188651        1.30813120139762       -2.28463733887303
C           -4.81308624560448        1.44692911112182       -1.82010220791305
C           -5.31395200878306        0.56818273675750       -0.85608608095271
C           -6.68639631250892        0.72105716925033       -0.40851874759422
N           -7.43261383620865        1.76474993727835       -0.67006354603037
C           -8.64363327193752        1.52193923083434       -0.08355642842715
C           -9.80103601809027        2.29512595508023       -0.04557964033425
C          -10.88978672506020        1.78315311493069        0.62717110665962
C          -10.84796780190160        0.53445190521038        1.25453139312709
C           -9.71181925109363       -0.24925412549235        1.23225752422317
C           -8.61281366142747        0.25878975152436        0.55800842928318
N           -7.35010857234134       -0.22218775420786        0.33727128937930
C           -4.48383264418995       -0.42829496259042       -0.35210294924752
C           -3.17195777880187       -0.54933261166658       -0.80016535835793
C           -2.34036164087851       -1.62439577276298       -0.24751819226991
N           -2.98272335756707       -2.76069346363112        0.04349070514551
N           -2.34716544050313       -3.79802617809537        0.45599929000546
N           -1.06261997481032       -3.82306244599961        0.54688486588937
C           -0.33494198965983       -2.72275903155951        0.34746418633990
C            1.12236432596448       -2.88608920007288        0.47062711023165
C            1.70683566936356       -4.01062916958375       -0.11097721207201
C            3.08375290566060       -4.13948251861570       -0.14067279139218
C            3.89188367565858       -3.13423359531726        0.35781742919325
C            3.31966715512201       -2.01338796927150        0.96023916565726
C            4.09876069715707       -0.86978250924171        1.39172697263369
N            3.57867790315966        0.20515873794696        1.93079149983178
C            4.61308481241912        1.08320375164025        2.10004853679954
C            4.62486596650462        2.37636632381516        2.61591508882052
C            5.83230510923197        3.04207691539048        2.64616789497251
C            7.01041378209018        2.45017559988536        2.18235332977456
C            7.02361891855430        1.16814274852257        1.66959896267478
C            5.81376409479607        0.49520054153107        1.63260612268659
N            5.45268238470631       -0.75234887539847        1.19925728937353
C            1.93222931760902       -1.92827953927721        1.06541960678505
C           -0.95756780402398       -1.51196304584317       -0.02000878261193
C           -0.24493510607384       -0.22918361285547       -0.08390461983493
C           -0.74296925259886        0.85821657764959        0.63384936966980
C           -0.02682293961934        2.04021000773613        0.68802516003689
C            1.21417827853060        2.13703939511908        0.08726612205528
C            1.73196536394312        1.05279232123773       -0.62168321994028
C            3.08716812858483        1.02954941263233       -1.13426948268592
N            3.61252862785817        0.00730380553049       -1.76284246899109
C            4.92406735283984        0.32874165320497       -1.97911187753525
C            5.94359475796231       -0.39797039233502       -2.58803061306973
C            7.19451286970714        0.17970670994256       -2.64463076800576
C            7.44273980952559        1.45075311741825       -2.11875085785953
C            6.44691189054788        2.19085664984003       -1.51295602873617
C            5.18917250455051        1.61468061396820       -1.44809377757201
N            3.99471355793402        2.03878374978848       -0.93075954037734
C            0.96694119011177       -0.10463666831685       -0.75172005314693
C           -2.69592910455242        0.31360146199100       -1.78529392221933
H           -3.14607421214237        1.97650227757927       -3.04556653927115
H           -5.46465736063384        2.22052598412710       -2.19388766114591
H           -9.83201445998308        3.25828839271453       -0.52998338650507
H          -11.80315618721577        2.35786658785130        0.67416069001177
H          -11.72771666087928        0.17650721616430        1.76856543165866
H           -9.67982189293463       -1.21357355745517        1.71712269424054
H           -6.99534237915263       -1.11884378686778        0.62517687096931
H           -4.82313464775874       -1.11797497196148        0.40565905937943
H            1.07158536821459       -4.76597730978420       -0.54736082712127
H            3.52969452225657       -5.01646513074934       -0.58476231369413
H            4.96407394284683       -3.23032424662151        0.27508203451903
H            3.71544795696380        2.82803853774790        2.98053162337521
H            5.87474363887221        4.04682324299958        3.04046232109610
H            7.93186107332283        3.01089698800124        2.22759781365136
H            7.93312864972886        0.71207104190137        1.30953976379269
H            6.05824317777278       -1.42378517246852        0.76001662858837
H            1.51962005031631       -1.08732054109789        1.59787036914764
H           -1.67992411928234        0.76900067221657        1.16315873587602
H           -0.42789524331492        2.88123414170334        1.23276442579082
H            1.77631366005487        3.05321905530065        0.18385997324349
H            5.74827602653208       -1.37705486038399       -2.99685578396393
H            8.00716662152167       -0.35894846803970       -3.10948500710935
H            8.43883919420856        1.86147086632718       -2.18812173053256
H            6.63863038820222        3.17099051305198       -1.10378189183564
H            3.84246096968445        2.88790141552798       -0.41495578408474
H            1.36226604868759       -0.90985689906182       -1.35011090876035
H           -1.69418969294560        0.19665444882726       -2.16967595451703

          :  Hamiltonian                  GFN2-xTB          :
         :: gradient norm              0.000093019639 Eh/a0 ::
         :: HOMO-LUMO gap              1.885169805267 eV    ::
         :: SCC energy              -132.366880802383 Eh    ::
         :: -> dispersion             -0.121862829887 Eh    ::
         :: -> Gsolv                  -0.053213575380 Eh    ::
         :: repulsion energy           2.261578884409 Eh    ::

    * Orbital Energies and Occupations

         #    Occupation            Energy/Eh            Energy/eV
      -------------------------------------------------------------
         1        2.0000           -0.7063022             -19.2195
       ...           ...                  ...                  ...
       108        2.0000           -0.4201982             -11.4342
       109        2.0000           -0.4086608             -11.1202
       110        2.0000           -0.4016543             -10.9296
       111        2.0000           -0.3986028             -10.8465
       112        2.0000           -0.3938494             -10.7172
       113        2.0000           -0.3927281             -10.6867
       114        2.0000           -0.3924335             -10.6787
       115        2.0000           -0.3912258             -10.6458
       116        2.0000           -0.3887039             -10.5772
       117        2.0000           -0.3845618             -10.4645
       118        2.0000           -0.3842544             -10.4561
       119        2.0000           -0.3786018             -10.3023
       120        2.0000           -0.3684093             -10.0249 (HOMO)
       121                         -0.2991306              -8.1398 (LUMO)
       122                         -0.2957886              -8.0488
       123                         -0.2794647              -7.6046
       124                         -0.2755788              -7.4989
       125                         -0.2712351              -7.3807
       126                         -0.2463538              -6.7036
       127                         -0.2381996              -6.4817
       128                         -0.2311807              -6.2907
       129                         -0.2279008              -6.2015
       130                         -0.2251954              -6.1279
       131                         -0.2196653              -5.9774
       ...                                ...                  ...
       231                          0.6947421              18.9049
      -------------------------------------------------------------
                  HL-Gap            0.0692787 Eh            1.8852 eV

     #   Z          covCN         q      C6AA      α(0)
     1   6 C        2.917    -0.024    28.604     8.770
     2   6 C        2.926    -0.024    28.594     8.769
     3   6 C        2.972     0.001    27.995     8.679
     4   6 C        3.174     0.143    24.539     8.091
     5   7 N        1.888    -0.303    28.715     7.944
     6   6 C        3.195     0.068    25.978     8.310
     7   6 C        2.910    -0.045    29.127     8.850
     8   6 C        2.922    -0.040    29.005     8.832
     9   6 C        2.926    -0.037    28.909     8.817
    10   6 C        2.907    -0.055    29.378     8.888
    11   6 C        3.080     0.042    26.966     8.513
    12   7 N        2.779    -0.130    23.820     7.249
    13   6 C        2.929    -0.033    28.826     8.805
    14   6 C        2.979     0.003    27.943     8.671
    15   6 C        2.940     0.097    25.849     8.338
    16   7 N        1.930    -0.167    25.399     7.473
    17   7 N        2.021    -0.031    22.501     7.036
    18   7 N        1.929    -0.165    25.359     7.467
    19   6 C        2.939     0.101    25.757     8.324
    20   6 C        2.978     0.007    27.861     8.658
    21   6 C        2.926    -0.023    28.586     8.768
    22   6 C        2.917    -0.024    28.602     8.770
    23   6 C        2.922    -0.030    28.758     8.794
    24   6 C        2.974    -0.001    28.037     8.686
    25   6 C        3.174     0.156    24.287     8.049
    26   7 N        1.889    -0.320    29.147     8.004
    27   6 C        3.195     0.070    25.942     8.304
    28   6 C        2.910    -0.053    29.309     8.877
    29   6 C        2.922    -0.043    29.068     8.841
    30   6 C        2.927    -0.038    28.943     8.823
    31   6 C        2.907    -0.056    29.401     8.891
    32   6 C        3.079     0.044    26.935     8.509
    33   7 N        2.781    -0.138    23.983     7.273
    34   6 C        2.932    -0.026    28.659     8.779
    35   6 C        2.970    -0.001    28.051     8.688
    36   6 C        2.972     0.010    27.784     8.646
    37   6 C        2.925    -0.029    28.724     8.789
    38   6 C        2.917    -0.024    28.612     8.772
    39   6 C        2.922    -0.031    28.769     8.796
    40   6 C        2.973     0.001    28.005     8.681
    41   6 C        3.175     0.156    24.270     8.045
    42   7 N        1.888    -0.320    29.135     8.002
    43   6 C        3.196     0.069    25.950     8.305
    44   6 C        2.910    -0.051    29.278     8.872
    45   6 C        2.922    -0.043    29.060     8.840
    46   6 C        2.927    -0.038    28.944     8.823
    47   6 C        2.907    -0.057    29.413     8.893
    48   6 C        3.080     0.044    26.929     8.508
    49   7 N        2.780    -0.139    23.996     7.275
    50   6 C        2.932    -0.029    28.723     8.789
    51   6 C        2.921    -0.028    28.710     8.787
    52   1 H        0.926     0.054     2.274     2.358
    53   1 H        0.926     0.067     2.121     2.278
    54   1 H        0.926     0.042     2.419     2.432
    55   1 H        0.926     0.037     2.486     2.466
    56   1 H        0.926     0.039     2.466     2.456
    57   1 H        0.926     0.034     2.526     2.485
    58   1 H        0.860     0.171     1.268     1.764
    59   1 H        0.926     0.047     2.353     2.399
    60   1 H        0.926     0.060     2.198     2.319
    61   1 H        0.926     0.057     2.238     2.339
    62   1 H        0.926     0.039     2.463     2.454
    63   1 H        0.926     0.041     2.441     2.443
    64   1 H        0.926     0.041     2.441     2.443
    65   1 H        0.926     0.043     2.414     2.430
    66   1 H        0.926     0.034     2.525     2.485
    67   1 H        0.860     0.170     1.274     1.768
    68   1 H        0.926     0.055     2.260     2.351
    69   1 H        0.926     0.041     2.433     2.439
    70   1 H        0.926     0.053     2.277     2.360
    71   1 H        0.926     0.038     2.482     2.464
    72   1 H        0.926     0.042     2.426     2.435
    73   1 H        0.926     0.041     2.438     2.441
    74   1 H        0.926     0.042     2.417     2.431
    75   1 H        0.926     0.034     2.536     2.490
    76   1 H        0.860     0.170     1.274     1.768
    77   1 H        0.926     0.053     2.289     2.366
    78   1 H        0.926     0.042     2.420     2.433

molecular dipole:
                 x           y           z       tot (Debye)
 q only:        1.290       0.592      -0.120
   full:        2.331       0.989       0.061       6.438

 projected vibrational frequencies (cm⁻¹)
eigval :       -0.00    -0.00     0.00     0.00     0.00     0.00
eigval :       10.07    13.38    19.54    22.46    26.88    31.42
eigval :       38.91    44.76    45.56    52.25    56.88    68.13
eigval :       71.93    77.88    93.68    99.88   111.86   127.25
eigval :      158.49   168.05   177.02   181.12   190.45   207.07
eigval :      213.27   239.91   240.59   241.55   244.09   280.90
eigval :      292.17   298.08   305.57   306.88   316.10   321.00
eigval :      326.81   333.47   344.56   358.16   376.85   401.79
eigval :      403.75   408.42   431.32   437.82   441.89   477.16
eigval :      491.32   493.92   505.23   508.42   515.90   522.80
eigval :      526.54   539.52   540.34   542.72   544.24   546.39
eigval :      547.25   550.45   591.21   593.32   603.73   603.85
eigval :      608.47   612.67   613.27   627.99   639.40   659.95
eigval :      667.04   672.91   674.67   677.71   681.75   683.34
eigval :      689.30   715.00   715.26   715.39   737.51   773.08
eigval :      774.02   774.34   775.02   789.20   795.04   800.74
eigval :      819.11   825.83   861.58   865.63   866.14   866.57
eigval :      867.57   868.25   868.66   871.87   881.50   885.10
eigval :      888.90   896.35   898.28   898.46   898.78   900.34
eigval :      904.70   918.54   922.31   922.51   923.31   923.67
eigval :      926.90   929.30   949.96   956.05   978.94   994.62
eigval :      995.19   996.40  1054.95  1056.66  1057.21  1065.93
eigval :     1077.57  1081.95  1086.11  1092.40  1101.66  1120.70
eigval :     1131.86  1135.08  1135.44  1136.24  1141.21  1158.29
eigval :     1168.54  1169.51  1171.50  1177.93  1182.06  1186.10
eigval :     1188.61  1192.48  1204.43  1218.98  1219.93  1222.52
eigval :     1241.15  1255.45  1257.64  1260.15  1287.95  1288.45
eigval :     1288.59  1296.83  1301.84  1302.89  1308.01  1318.92
eigval :     1326.03  1327.28  1335.20  1350.29  1351.03  1360.32
eigval :     1365.65  1366.77  1367.18  1375.37  1396.50  1407.62
eigval :     1408.29  1409.90  1425.52  1427.19  1436.07  1449.26
eigval :     1455.86  1460.31  1470.11  1488.61  1489.18  1490.06
eigval :     1522.97  1524.95  1525.87  1569.21  1570.14  1571.17
eigval :     1579.68  1582.19  1583.11  1588.99  1591.11  1591.19
eigval :     1619.97  1621.02  1621.35  3075.32  3078.33  3078.56
eigval :     3079.10  3080.28  3082.23  3083.20  3083.49  3086.91
eigval :     3088.12  3091.08  3092.02  3093.00  3093.04  3094.01
eigval :     3098.44  3099.86  3100.10  3100.93  3102.63  3103.07
eigval :     3113.31  3113.51  3121.60  3469.36  3480.26  3481.02

   temp. (K)  partition function   enthalpy   heat capacity  entropy
                                   cal/mol     cal/K/mol   cal/K/mol   J/K/mol
 298.15  VIB  0.129E+19            22960.255    144.654    142.708
         ROT  0.943E+08              888.752      2.981     39.470
         INT  0.122E+27            23849.008    147.635    182.178
         TR   0.163E+29             1481.254      4.968     45.312
         TOT                       25330.2615   152.6028   227.4902   951.8189

       T/K    H(0)-H(T)+PV         H(T)/Eh          T*S/Eh         G(T)/Eh
   ------------------------------------------------------------------------
    298.15    0.403663E-01    0.621658E+00    0.108088E+00    0.513570E+00
   ------------------------------------------------------------------------

         :::::::::::::::::::::::::::::::::::::::::::::::::::::
         ::                  THERMODYNAMIC                  ::
         :::::::::::::::::::::::::::::::::::::::::::::::::::::
         :: total free energy        -129.591731684324 Eh   ::
         ::.................................................::
         :: total energy             -130.105301916303 Eh   ::
         :: zero point energy           0.581291819404 Eh   ::
         :: G(RRHO) w/o ZPVE           -0.067721587426 Eh   ::
         :: G(RRHO) contrib.            0.513570231979 Eh   ::
         :::::::::::::::::::::::::::::::::::::::::::::::::::::

           -------------------------------------------------
          | TOTAL ENERGY             -130.105301916303 Eh   |
          | TOTAL ENTHALPY           -129.483643755815 Eh   |
          | TOTAL FREE ENERGY        -129.591731684324 Eh   |
          | GRADIENT NORM               0.000092989413 Eh/α |
          | HOMO-LUMO GAP               1.885169152023 eV   |
           -------------------------------------------------

 * finished run on 2025/09/14 at 11:04:06.933
