   * xtb version 6.7.1 (edcfbbe) compiled by 'albert@albert-system' on 2024-07-22

   ID    Z sym.   atoms
    1    6 C      1-4, 6-11, 13-15, 19-25, 27-32, 34-41, 43-48, 50, 51
    2    7 N      5, 12, 16-18, 26, 33, 42, 49
    3    1 H      52-78

          program call               : xtb data2507/toluene/BMZ-TZ/BMZ-TZ.xyz --gfn 2 --gbsa toluene --ohess vtight --parallel 40 --molden --ceasefiles --namespace data2507/toluene/BMZ-TZ/BMZ-TZ_toluene_S0_preOpt
      * Solvation model:               GBSA
        Solvent                        toluene
        Solvent mass                       9.2140E+01 g/mol
          :  Hamiltonian                  GFN2-xTB          :
 * total energy  :  -130.0806215 Eh     change       -0.1273435E-08 Eh
 * total energy  :  -130.0941744 Eh     change       -0.1355289E-01 Eh
 * total energy  :  -130.0978874 Eh     change       -0.3712998E-02 Eh
 * total energy  :  -130.0989109 Eh     change       -0.1023428E-02 Eh
 * total energy  :  -130.0996337 Eh     change       -0.7228070E-03 Eh
 * total energy  :  -130.0999831 Eh     change       -0.3494595E-03 Eh
 * total energy  :  -130.1002539 Eh     change       -0.2707700E-03 Eh
 * total energy  :  -130.1004435 Eh     change       -0.1896189E-03 Eh
 * total energy  :  -130.1005752 Eh     change       -0.1316776E-03 Eh
 * total energy  :  -130.1006850 Eh     change       -0.1098053E-03 Eh
 * total energy  :  -130.1039555 Eh     change       -0.2212491E-06 Eh
 * total energy  :  -130.1039557 Eh     change       -0.1780085E-06 Eh
 * total energy  :  -130.1039558 Eh     change       -0.1532188E-06 Eh
 * total energy  :  -130.1039560 Eh     change       -0.1592353E-06 Eh
 * total energy  :  -130.1039562 Eh     change       -0.1940539E-06 Eh
 * total energy  :  -130.1039564 Eh     change       -0.2544043E-06 Eh
 * total energy  :  -130.1039567 Eh     change       -0.3065966E-06 Eh
 * total energy  :  -130.1039571 Eh     change       -0.3110378E-06 Eh
 * total energy  :  -130.1039571 Eh     change       -0.1392152E-08 Eh
   *** GEOMETRY OPTIMIZATION CONVERGED AFTER 122 ITERATIONS ***

 final structure:
================
78
 xtb: 6.7.1 (edcfbbe)
C           -3.51286211292956        2.52228185224800        0.40164482779986
C           -4.82316829648889        2.13959021997711        0.61264617272848
C           -5.31391104180554        0.95967143322483        0.04577521805025
C           -6.70462487576079        0.60306896011735        0.25976382566980
N           -7.49937321657941        1.22245393563776        1.09626165801635
C           -8.71232334752260        0.59955972521409        0.99999694782725
C           -9.91198156284909        0.84902160922000        1.66170852979404
C          -10.99020922303069        0.04781797889732        1.35303682121388
C          -10.89761466260139       -0.98270336078215        0.41262679581711
C           -9.71958041455795       -1.24956423169163       -0.25543709744483
C           -8.63082561441101       -0.44790901209411        0.04904910911288
N           -7.33776418362884       -0.42190041714392       -0.40002543358700
C           -4.45690017462029        0.16519911869821       -0.70847758423078
C           -3.12930668476528        0.53972816033351       -0.90123222655433
C           -2.27445909572239       -0.33001175868233       -1.71389515905505
N           -2.89366482151270       -1.02536655343322       -2.67872136924457
N           -2.24322776462236       -1.76937371696542       -3.49589406285988
N           -0.96007119332822       -1.90502009821818       -3.44154975677442
C           -0.26166998732637       -1.31184812348240       -2.47818444057652
C            1.19530521640035       -1.52746770205746       -2.42246750073428
C            1.99417756004505       -1.23177400323859       -3.52225962244533
C            3.37335807201960       -1.22768959674141       -3.39276167585500
C            3.96421536507054       -1.49604284770349       -2.17122100245957
C            3.17285353670596       -1.85763326567015       -1.08273740934232
C            3.75559122618925       -2.09106553759406        0.23319420362277
N            4.65585926916105       -1.32053208293257        0.79211120042588
C            4.88179604867947       -1.84196719488290        2.04261721613277
C            5.73174941113877       -1.41515210971291        3.05777437062644
C            5.74948982159978       -2.15294154352910        4.22275491724712
C            4.94773067277115       -3.28529678608519        4.38934861976224
C            4.09373918580140       -3.72186004681813        3.39625521193394
C            4.06947044860322       -2.98431097816445        2.22347674699182
N            3.35804619465591       -3.10601985048100        1.05522383088573
C            1.79136384904980       -1.90332158767371       -1.22426464667544
C           -0.89048640891981       -0.47004991021153       -1.53766566607909
C           -0.08624028783620        0.12420877052592       -0.45982133270308
C           -0.32258371271407       -0.20747805128548        0.87242302736403
C            0.59273489572565        0.15555661773342        1.84530578296067
C            1.75515951603551        0.82464716141933        1.50266028262565
C            1.97275449958581        1.20684540490289        0.18143016011876
C            3.20269636997099        1.88164552162260       -0.22658062524396
N            3.25765180009343        2.98748126508685       -0.92142024820514
C            4.59491118039274        3.23888691211806       -1.10046952833984
C            5.23877590108849        4.28355448412018       -1.75572409009511
C            6.61725910362404        4.26294022817443       -1.79042060290537
C            7.35319450004566        3.23581623217964       -1.19338126025194
C            6.73527214104848        2.19264907071954       -0.53331181732386
C            5.35012435218388        2.20778331330773       -0.48875267858469
N            4.43127814525646        1.36755284562525        0.08182975328300
C            1.03676564624949        0.87682251375924       -0.78818013054231
C           -2.66254044477868        1.73436650975932       -0.35583833238517
H           -3.14578100226095        3.44490505155609        0.82457338582783
H           -5.49629558903521        2.74008872964064        1.20337229618881
H           -9.98232375248832        1.64488014326233        2.38620137373784
H          -11.93544711488093        0.21587325038811        1.84792277390217
H          -11.77114907573434       -1.58276638252420        0.20517529490099
H           -9.64857526451917       -2.04541715206886       -0.98181145734306
H           -6.94363008440372       -1.01390403567162       -1.11199678372211
H           -4.78656944650549       -0.76116075057288       -1.15316478331278
H            1.52772227707245       -0.97172478488389       -4.46004134770603
H            3.98975729400431       -0.98141751885383       -4.24347326646695
H            5.03490689861457       -1.43851512322027       -2.05039183042478
H            6.35113054768472       -0.54147293721264        2.92874336485939
H            6.39931497901383       -1.85099736984652        5.03022175356541
H            4.99840460349999       -3.83025403282568        5.31956316080227
H            3.47371581745684       -4.59548387698677        3.52580047172722
H            2.70135940318355       -3.83398557254655        0.82365009996067
H            1.17526955276833       -2.17581494276854       -0.37984864868670
H           -1.20257531822519       -0.77615581777556        1.13548716192750
H            0.41185971456239       -0.11286440429822        2.87519713445898
H            2.48886422666798        1.06522697372298        2.25771760301228
H            4.66963170900911        5.07504354468954       -2.21771107131295
H            7.14723509562740        5.05936462251974       -2.29204566135422
H            8.43136355457985        3.26204731528630       -1.25037961786550
H            7.30186025232791        1.39785175497644       -0.07142323092871
H            4.60745326235942        0.42609874507582        0.44771208512247
H            1.21378635676960        1.17827402435500       -1.80979926981005
H           -1.64922269807759        2.05742606922309       -0.53746692072475

          :  Hamiltonian                  GFN2-xTB          :
         :: gradient norm              0.000030622783 Eh/a0 ::
         :: HOMO-LUMO gap              1.918350226994 eV    ::
         :: SCC energy              -132.361927627453 Eh    ::
         :: -> dispersion             -0.114843364412 Eh    ::
         :: -> Gsolv                  -0.058056244207 Eh    ::
         :: repulsion energy           2.257970568831 Eh    ::

    * Orbital Energies and Occupations

         #    Occupation            Energy/Eh            Energy/eV
      -------------------------------------------------------------
         1        2.0000           -0.7155124             -19.4701
       ...           ...                  ...                  ...
       108        2.0000           -0.4251601             -11.5692
       109        2.0000           -0.4173425             -11.3565
       110        2.0000           -0.4125102             -11.2250
       111        2.0000           -0.4092697             -11.1368
       112        2.0000           -0.4049425             -11.0190
       113        2.0000           -0.3926789             -10.6853
       114        2.0000           -0.3898665             -10.6088
       115        2.0000           -0.3872914             -10.5387
       116        2.0000           -0.3862535             -10.5105
       117        2.0000           -0.3858228             -10.4988
       118        2.0000           -0.3853870             -10.4869
       119        2.0000           -0.3841850             -10.4542
       120        2.0000           -0.3749097             -10.2018 (HOMO)
       121                         -0.3044117              -8.2835 (LUMO)
       122                         -0.3021283              -8.2213
       123                         -0.2816295              -7.6635
       124                         -0.2740034              -7.4560
       125                         -0.2647264              -7.2036
       126                         -0.2548890              -6.9359
       127                         -0.2494302              -6.7873
       128                         -0.2424419              -6.5972
       129                         -0.2323086              -6.3214
       130                         -0.2308784              -6.2825
       131                         -0.2253476              -6.1320
       ...                                ...                  ...
       231                          0.6953358              18.9211
      -------------------------------------------------------------
                  HL-Gap            0.0704981 Eh            1.9183 eV

     #   Z          covCN         q      C6AA      α(0)
     1   6 C        2.917    -0.023    28.584     8.767
     2   6 C        2.926    -0.022    28.557     8.764
     3   6 C        2.972     0.002    27.979     8.676
     4   6 C        3.173     0.142    24.564     8.095
     5   7 N        1.888    -0.302    28.679     7.939
     6   6 C        3.195     0.068    25.983     8.311
     7   6 C        2.910    -0.045    29.118     8.848
     8   6 C        2.922    -0.040    28.997     8.831
     9   6 C        2.926    -0.036    28.901     8.816
    10   6 C        2.907    -0.055    29.375     8.887
    11   6 C        3.080     0.042    26.969     8.514
    12   7 N        2.779    -0.129    23.801     7.246
    13   6 C        2.929    -0.033    28.824     8.805
    14   6 C        2.979     0.003    27.963     8.674
    15   6 C        2.935     0.097    25.859     8.340
    16   7 N        1.929    -0.163    25.315     7.460
    17   7 N        2.023    -0.028    22.427     7.024
    18   7 N        1.924    -0.163    25.326     7.462
    19   6 C        2.943     0.100    25.786     8.328
    20   6 C        2.978     0.007    27.865     8.659
    21   6 C        2.923    -0.023    28.569     8.765
    22   6 C        2.918    -0.023    28.572     8.766
    23   6 C        2.923    -0.027    28.688     8.783
    24   6 C        2.974    -0.007    28.198     8.710
    25   6 C        3.164     0.144    24.552     8.098
    26   7 N        1.891    -0.315    29.009     7.985
    27   6 C        3.187     0.064    26.113     8.338
    28   6 C        2.910    -0.047    29.161     8.855
    29   6 C        2.923    -0.037    28.919     8.819
    30   6 C        2.927    -0.033    28.832     8.806
    31   6 C        2.907    -0.052    29.297     8.875
    32   6 C        3.081     0.041    27.005     8.519
    33   7 N        2.781    -0.122    23.643     7.222
    34   6 C        2.931    -0.036    28.905     8.817
    35   6 C        2.973    -0.002    28.063     8.689
    36   6 C        2.975     0.008    27.832     8.654
    37   6 C        2.922    -0.034    28.839     8.806
    38   6 C        2.918    -0.028    28.702     8.785
    39   6 C        2.923    -0.035    28.883     8.813
    40   6 C        2.974    -0.001    28.051     8.688
    41   6 C        3.206     0.152    24.177     8.008
    42   7 N        1.883    -0.327    29.340     8.030
    43   6 C        3.203     0.066    25.964     8.301
    44   6 C        2.909    -0.050    29.230     8.865
    45   6 C        2.923    -0.043    29.080     8.843
    46   6 C        2.926    -0.040    29.004     8.832
    47   6 C        2.907    -0.059    29.472     8.902
    48   6 C        3.099     0.045    26.879     8.496
    49   7 N        2.770    -0.171    24.705     7.382
    50   6 C        2.933    -0.032    28.810     8.803
    51   6 C        2.921    -0.028    28.699     8.785
    52   1 H        0.926     0.056     2.250     2.346
    53   1 H        0.926     0.069     2.093     2.262
    54   1 H        0.926     0.043     2.411     2.428
    55   1 H        0.926     0.038     2.478     2.462
    56   1 H        0.926     0.039     2.458     2.452
    57   1 H        0.926     0.035     2.519     2.482
    58   1 H        0.860     0.171     1.269     1.764
    59   1 H        0.926     0.050     2.315     2.379
    60   1 H        0.926     0.060     2.202     2.320
    61   1 H        0.926     0.061     2.190     2.314
    62   1 H        0.926     0.053     2.282     2.362
    63   1 H        0.926     0.042     2.421     2.433
    64   1 H        0.926     0.047     2.359     2.402
    65   1 H        0.926     0.050     2.325     2.385
    66   1 H        0.926     0.044     2.399     2.422
    67   1 H        0.860     0.173     1.255     1.755
    68   1 H        0.926     0.034     2.536     2.490
    69   1 H        0.926     0.043     2.409     2.427
    70   1 H        0.926     0.053     2.288     2.365
    71   1 H        0.926     0.038     2.475     2.460
    72   1 H        0.926     0.039     2.468     2.457
    73   1 H        0.926     0.037     2.494     2.470
    74   1 H        0.926     0.038     2.482     2.463
    75   1 H        0.926     0.030     2.591     2.517
    76   1 H        0.860     0.213     1.040     1.598
    77   1 H        0.926     0.037     2.491     2.468
    78   1 H        0.926     0.045     2.379     2.412

molecular dipole:
                 x           y           z       tot (Debye)
 q only:        0.386      -1.760       1.059
   full:        0.823      -2.556       1.408       7.707

 projected vibrational frequencies (cm⁻¹)
eigval :       -0.00    -0.00    -0.00     0.00     0.00     0.00
eigval :        7.34    14.75    18.36    26.37    28.81    34.23
eigval :       41.81    42.37    45.27    55.76    58.09    61.72
eigval :       70.88    86.54    94.81   102.28   110.73   116.66
eigval :      140.93   168.71   175.57   182.43   199.93   212.52
eigval :      224.48   237.69   238.72   242.15   248.10   265.06
eigval :      281.16   287.61   293.18   296.71   305.72   320.16
eigval :      331.75   339.90   350.17   365.08   373.43   399.75
eigval :      401.91   403.72   431.11   435.52   443.12   455.69
eigval :      478.18   492.22   513.09   525.41   532.83   536.23
eigval :      538.35   539.88   540.95   545.27   546.86   549.04
eigval :      565.15   597.38   602.79   604.28   606.97   610.06
eigval :      613.33   621.18   632.11   637.24   659.95   669.01
eigval :      672.76   676.40   678.97   682.35   684.37   689.00
eigval :      714.34   714.88   716.37   738.29   772.08   773.99
eigval :      774.51   778.02   782.53   793.76   798.72   802.94
eigval :      818.73   826.14   860.74   865.81   866.72   868.17
eigval :      870.18   870.92   871.75   872.66   881.05   893.82
eigval :      897.23   897.67   897.77   899.39   902.66   902.84
eigval :      902.90   907.39   921.34   922.64   924.40   926.70
eigval :      928.39   931.99   953.26   956.93   982.04   995.39
eigval :      997.86  1002.56  1056.55  1057.05  1059.50  1070.68
eigval :     1076.85  1083.68  1095.02  1104.70  1119.47  1121.94
eigval :     1126.08  1128.49  1135.60  1136.16  1140.73  1163.01
eigval :     1169.68  1172.21  1172.81  1177.95  1182.08  1184.72
eigval :     1187.43  1201.40  1204.40  1217.56  1219.80  1222.20
eigval :     1243.48  1256.22  1260.89  1262.97  1283.30  1284.07
eigval :     1288.51  1295.06  1300.23  1302.83  1308.57  1310.72
eigval :     1317.83  1326.08  1336.20  1356.65  1361.89  1362.60
eigval :     1366.35  1369.51  1370.79  1381.37  1395.08  1403.66
eigval :     1410.26  1410.57  1419.84  1422.47  1431.77  1453.24
eigval :     1460.45  1464.85  1479.02  1488.22  1488.57  1490.13
eigval :     1524.55  1533.05  1536.53  1568.82  1570.88  1571.51
eigval :     1579.08  1583.36  1584.06  1588.55  1592.33  1596.70
eigval :     1619.67  1619.78  1622.46  3070.69  3073.74  3075.08
eigval :     3078.64  3080.00  3080.31  3083.60  3085.36  3085.65
eigval :     3088.61  3089.20  3089.88  3090.66  3092.11  3093.82
eigval :     3096.78  3096.82  3097.60  3099.05  3099.56  3101.79
eigval :     3102.17  3105.01  3106.54  3113.80  3462.21  3469.60

   temp. (K)  partition function   enthalpy   heat capacity  entropy
                                   cal/mol     cal/K/mol   cal/K/mol   J/K/mol
 298.15  VIB  0.125E+19            22882.472    144.082    142.643
         ROT  0.107E+09              888.752      2.981     39.727
         INT  0.134E+27            23771.224    147.063    182.369
         TR   0.163E+29             1481.254      4.968     45.312
         TOT                       25252.4782   152.0307   227.6816   952.6196

       T/K    H(0)-H(T)+PV         H(T)/Eh          T*S/Eh         G(T)/Eh
   ------------------------------------------------------------------------
    298.15    0.402424E-01    0.621495E+00    0.108179E+00    0.513316E+00
   ------------------------------------------------------------------------

         :::::::::::::::::::::::::::::::::::::::::::::::::::::
         ::                  THERMODYNAMIC                  ::
         :::::::::::::::::::::::::::::::::::::::::::::::::::::
         :: total free energy        -129.590640702116 Eh   ::
         ::.................................................::
         :: total energy             -130.103957056509 Eh   ::
         :: zero point energy           0.581252823903 Eh   ::
         :: G(RRHO) w/o ZPVE           -0.067936469510 Eh   ::
         :: G(RRHO) contrib.            0.513316354393 Eh   ::
         :::::::::::::::::::::::::::::::::::::::::::::::::::::

           -------------------------------------------------
          | TOTAL ENERGY             -130.103957056509 Eh   |
          | TOTAL ENTHALPY           -129.482461847051 Eh   |
          | TOTAL FREE ENERGY        -129.590640702116 Eh   |
          | GRADIENT NORM               0.000030616003 Eh/α |
          | HOMO-LUMO GAP               1.918349656999 eV   |
           -------------------------------------------------

 * finished run on 2025/09/14 at 11:00:16.423
