   * xtb version 6.7.1 (edcfbbe) compiled by 'albert@albert-system' on 2024-07-22

   ID    Z sym.   atoms
    1    6 C      1-5, 7-13, 15-23, 25-43, 45-59, 61, 62
    2    7 N      6, 14, 24, 44, 60
    3    1 H      63-99

          program call               : xtb data2507/gas/CBPTZ/CBPTZ_gas_S0_crest.xyz --gfn 2 --ohess vtight --parallel 40 --molden --ceasefiles --namespace data2507/gas/CBPTZ/CBPTZ_gas_S0_finalOpt
          :  Hamiltonian                  GFN2-xTB          :
 * total energy  :  -155.6303066 Eh     change       -0.1883137E-08 Eh
 * total energy  :  -155.6303078 Eh     change       -0.1202104E-05 Eh
 * total energy  :  -155.6303099 Eh     change       -0.2171638E-05 Eh
 * total energy  :  -155.6303150 Eh     change       -0.5086892E-05 Eh
 * total energy  :  -155.6303225 Eh     change       -0.7450130E-05 Eh
 * total energy  :  -155.6303280 Eh     change       -0.5532049E-05 Eh
 * total energy  :  -155.6303321 Eh     change       -0.4101201E-05 Eh
 * total energy  :  -155.6303368 Eh     change       -0.4706635E-05 Eh
 * total energy  :  -155.6303427 Eh     change       -0.5913313E-05 Eh
 * total energy  :  -155.6303474 Eh     change       -0.4700618E-05 Eh
 * total energy  :  -155.6303965 Eh     change       -0.1441571E-05 Eh
 * total energy  :  -155.6303980 Eh     change       -0.1477280E-05 Eh
 * total energy  :  -155.6303994 Eh     change       -0.1354423E-05 Eh
 * total energy  :  -155.6304004 Eh     change       -0.1068459E-05 Eh
 * total energy  :  -155.6304011 Eh     change       -0.7276747E-06 Eh
 * total energy  :  -155.6304017 Eh     change       -0.5709184E-06 Eh
 * total energy  :  -155.6304023 Eh     change       -0.6151946E-06 Eh
 * total energy  :  -155.6304032 Eh     change       -0.8243891E-06 Eh
 * total energy  :  -155.6304032 Eh     change       -0.3963635E-08 Eh
   *** GEOMETRY OPTIMIZATION CONVERGED AFTER 44 ITERATIONS ***

 final structure:
================
99
 xtb: 6.7.1 (edcfbbe)
C            7.19378168185083       -2.96302378597049        1.51557554446434
C            6.62363867583073       -4.21180946493288        1.71006930131000
C            5.32432642216690       -4.45042256222300        1.30671346183667
C            4.58051571737085       -3.43184357065653        0.71444276887873
C            3.21101136357811       -3.68601279055038        0.26751916245454
N            2.79173700732226       -4.94703278191866        0.21842436487607
C            1.55664101887638       -5.13503476967474       -0.23695502176525
C            1.05159240438070       -6.50555669679394       -0.31310427132922
C           -0.27292654337106       -6.74349300032157       -0.67521813372906
C           -0.74683563837938       -8.03876262062557       -0.74891326243096
C            0.09355300083153       -9.10396974555846       -0.46436892031680
C            1.41195278357502       -8.87210482276777       -0.10376225425733
C            1.89221542490877       -7.57930735557550       -0.02674158126934
N            0.75319132054235       -4.15169145789214       -0.63576742528061
C            1.24533758277927       -2.92276343782909       -0.52841864768195
C            0.40436553317531       -1.80063799043943       -0.94732922834423
C           -0.70978307152463       -2.01212590828669       -1.75471405719583
C           -1.45763206273177       -0.93058418847044       -2.18175271812159
C           -1.12016916896734        0.35322543369712       -1.79109005268743
C           -0.03067267326180        0.57501229036042       -0.94904067105271
C            0.32949535314994        1.93006712835742       -0.49587748184739
C            1.66065819356150        2.32065745519385       -0.54560897243531
C            2.05327186852099        3.58997208184131       -0.13832893658202
N            3.41234468888783        3.92619033538743       -0.13850988496605
C            4.41324913371288        3.17149600002836        0.44177178709401
C            4.32202559233470        1.99176642395421        1.16641790079122
C            5.48729175289569        1.45803268023464        1.68157090720893
C            6.71923831351998        2.07825330055615        1.48327247080528
C            6.81396020588943        3.26321884440444        0.78111861917534
C            5.65441018170465        3.82326420691402        0.26077279145009
C            5.37869585453947        5.02938720282267       -0.46898309958441
C            6.17621032068424        6.05986821522199       -0.94866911730999
C            5.57708901074478        7.09226475849846       -1.64227769578663
C            4.20310723633624        7.09872856717874       -1.87249923579640
C            3.38861171710571        6.08474818532555       -1.40614924075628
C            3.98195295129468        5.05631807404923       -0.68860735638883
C            1.09061501337584        4.50130108788871        0.28573392582745
C           -0.23606576312922        4.12127077845302        0.32869632388831
C           -0.63405904964975        2.83735448358070       -0.03081464062352
C           -2.04106409588426        2.43496798615402        0.12115883684324
C           -3.06874323326150        3.20762548556884       -0.41160710177746
C           -4.38311419443162        2.79225355260718       -0.32405831759329
C           -4.69512737289728        1.59935627944545        0.32104522332135
N           -6.01621882460137        1.13859726847937        0.36976247042513
C           -7.12380720416434        1.85996131255335        0.76670818502644
C           -7.20589818469493        3.15580626549899        1.25557312755476
C           -8.45289945236917        3.63301458226708        1.61092462717966
C           -9.59469034426503        2.84337574489992        1.49386863402955
C           -9.51598275076718        1.54559927428654        1.02977245364667
C           -8.27374385930140        1.04320974289728        0.66576011690280
C           -7.82799638886205       -0.23074764400920        0.17460957629589
C           -8.48056782730524       -1.41475527763837       -0.14311398520254
C           -7.73556513681275       -2.47089144708106       -0.62802340952700
C           -6.35948409556987       -2.35289051193520       -0.81153195866244
C           -5.68721849173213       -1.18603991548559       -0.50249629920988
C           -6.42783239686670       -0.12949178808745        0.00847849391744
C           -3.67682269448375        0.84974501226048        0.90542291206982
C           -2.36589607688602        1.26196164271856        0.80019211912947
C            0.73565983480119       -0.51090598191442       -0.54722915778742
N            2.46439078641109       -2.64127694248669       -0.07876751592696
C            5.15468729185053       -2.17561229910585        0.52957129409835
C            6.45946505372082       -1.94779391078476        0.92261710589475
H            8.21279204463518       -2.78172001836963        1.82522581338012
H            7.19767778880493       -5.00048386539195        2.17411997349715
H            4.86542257375782       -5.41690601217721        1.44493237297982
H           -0.91197163420155       -5.90143398110439       -0.89037349657212
H           -1.77397304747447       -8.22224952076451       -1.02860661544562
H           -0.27937329979757      -10.11611874446511       -0.52381795252357
H            2.06477342581438       -9.70402191348045        0.11661955538670
H            2.91574215631273       -7.37899359908289        0.24874582259071
H           -0.95985011025935       -3.01903369364311       -2.04939753006127
H           -2.30916131075699       -1.08502119366477       -2.82839292912150
H           -1.69884317464840        1.19224717998011       -2.14778961318583
H            2.40269511063376        1.63586415692279       -0.92835237591753
H            3.37046347639875        1.51277957967958        1.34088881517479
H            5.43912012970462        0.54343381045519        2.25406357913012
H            7.60932103112269        1.62930238178991        1.89947781273561
H            7.76634852004590        3.75289130497129        0.64395621376010
H            7.24300269217415        6.04779368306324       -0.78314544605976
H            6.17900264932969        7.90481424566450       -2.02118008689060
H            3.76524896292292        7.91303973660304       -2.43093058282782
H            2.32725036614595        6.08923918204390       -1.60419340774781
H            1.38893133199450        5.48805078272004        0.60574328678671
H           -0.97936906925415        4.81853121953579        0.68712758557717
H           -2.82991847909297        4.12191861958748       -0.93566285713863
H           -5.17064951858485        3.37474555719017       -0.77840615326889
H           -6.32419910500773        3.76891413713320        1.36703390765608
H           -8.54404244445700        4.63971375495534        1.99164108208641
H          -10.55150899287067        3.25404278927339        1.78016488674206
H          -10.39857737480060        0.92848765765704        0.95381133581284
H           -9.54919631454221       -1.50082523687259       -0.01605783990531
H           -8.22328621327660       -3.40120864360302       -0.87871096007827
H           -5.80550650284375       -3.19155948874241       -1.20696080162359
H           -4.62267523640156       -1.09934158439727       -0.66296249638997
H           -3.92303325087966       -0.05334076994814        1.44319621605161
H           -1.58187918696461        0.67527299590786        1.25514282469500
H            1.58823910122813       -0.37615105972626        0.10069441037424
H            4.56982660487559       -1.39515986257148        0.06807476557100
H            6.90613022818622       -0.97741647217490        0.76379342911347

          :  Hamiltonian                  GFN2-xTB          :
         :: gradient norm              0.000052467908 Eh/a0 ::
         :: HOMO-LUMO gap              2.010851428560 eV    ::
         :: SCC energy              -158.551200312997 Eh    ::
         :: -> dispersion             -0.143759936773 Eh    ::
         :: repulsion energy           2.920797149156 Eh    ::

    * Orbital Energies and Occupations

         #    Occupation            Energy/Eh            Energy/eV
      -------------------------------------------------------------
         1        2.0000           -0.6830561             -18.5869
       ...           ...                  ...                  ...
       133        2.0000           -0.4100146             -11.1571
       134        2.0000           -0.4070775             -11.0771
       135        2.0000           -0.4061144             -11.0509
       136        2.0000           -0.4051437             -11.0245
       137        2.0000           -0.4038478             -10.9893
       138        2.0000           -0.4033916             -10.9768
       139        2.0000           -0.3926445             -10.6844
       140        2.0000           -0.3773444             -10.2681
       141        2.0000           -0.3768446             -10.2545
       142        2.0000           -0.3705057             -10.0820
       143        2.0000           -0.3698090             -10.0630
       144        2.0000           -0.3630385              -9.8788
       145        2.0000           -0.3591026              -9.7717 (HOMO)
       146                         -0.2852052              -7.7608 (LUMO)
       147                         -0.2846807              -7.7466
       148                         -0.2597025              -7.0669
       149                         -0.2487649              -6.7692
       150                         -0.2437418              -6.6326
       151                         -0.2425117              -6.5991
       152                         -0.2414360              -6.5698
       153                         -0.2336839              -6.3589
       154                         -0.2281187              -6.2074
       155                         -0.2275422              -6.1917
       156                         -0.2216625              -6.0317
       ...                                ...                  ...
       285                          0.7478512              20.3501
      -------------------------------------------------------------
                  HL-Gap            0.0738974 Eh            2.0109 eV

     #   Z          covCN         q      C6AA      α(0)
     1   6 C        2.920    -0.023    28.591     8.768
     2   6 C        2.918    -0.028    28.689     8.783
     3   6 C        2.924    -0.024    28.592     8.769
     4   6 C        2.984    -0.000    28.025     8.684
     5   6 C        2.983     0.203    23.699     7.985
     6   7 N        1.844    -0.294    28.477     7.909
     7   6 C        2.984     0.202    23.704     7.986
     8   6 C        2.984    -0.000    28.024     8.684
     9   6 C        2.924    -0.024    28.592     8.769
    10   6 C        2.918    -0.027    28.685     8.783
    11   6 C        2.920    -0.023    28.588     8.768
    12   6 C        2.918    -0.027    28.685     8.783
    13   6 C        2.924    -0.023    28.590     8.768
    14   7 N        1.844    -0.295    28.504     7.912
    15   6 C        2.987     0.203    23.697     7.985
    16   6 C        2.984     0.000    28.020     8.683
    17   6 C        2.923    -0.025    28.632     8.775
    18   6 C        2.917    -0.028    28.706     8.786
    19   6 C        2.924    -0.027    28.688     8.784
    20   6 C        2.976     0.014    27.685     8.631
    21   6 C        2.980     0.007    27.852     8.657
    22   6 C        2.929    -0.048    29.200     8.862
    23   6 C        2.912     0.063    26.583     8.454
    24   7 N        2.803    -0.044    22.080     6.979
    25   6 C        3.077     0.047    26.873     8.499
    26   6 C        2.910    -0.050    29.238     8.867
    27   6 C        2.924    -0.034    28.836     8.806
    28   6 C        2.920    -0.041    29.022     8.834
    29   6 C        2.912    -0.033    28.823     8.804
    30   6 C        3.067    -0.017    28.362     8.733
    31   6 C        3.069    -0.017    28.364     8.733
    32   6 C        2.913    -0.033    28.815     8.802
    33   6 C        2.920    -0.041    29.017     8.834
    34   6 C        2.924    -0.033    28.833     8.806
    35   6 C        2.910    -0.051    29.265     8.871
    36   6 C        3.075     0.047    26.874     8.500
    37   6 C        2.919    -0.045    29.126     8.850
    38   6 C        2.924    -0.034    28.851     8.809
    39   6 C        2.979     0.002    27.964     8.674
    40   6 C        2.977     0.010    27.798     8.649
    41   6 C        2.924    -0.035    28.861     8.810
    42   6 C        2.920    -0.044    29.090     8.845
    43   6 C        2.914     0.063    26.586     8.455
    44   7 N        2.803    -0.044    22.085     6.980
    45   6 C        3.075     0.047    26.877     8.500
    46   6 C        2.910    -0.051    29.267     8.871
    47   6 C        2.924    -0.034    28.836     8.806
    48   6 C        2.920    -0.041    29.019     8.834
    49   6 C        2.913    -0.033    28.817     8.803
    50   6 C        3.068    -0.017    28.365     8.733
    51   6 C        3.068    -0.017    28.363     8.733
    52   6 C        2.913    -0.033    28.820     8.803
    53   6 C        2.920    -0.041    29.018     8.834
    54   6 C        2.924    -0.033    28.831     8.805
    55   6 C        2.909    -0.051    29.260     8.870
    56   6 C        3.077     0.046    26.880     8.500
    57   6 C        2.921    -0.043    29.061     8.840
    58   6 C        2.925    -0.031    28.769     8.796
    59   6 C        2.931    -0.030    28.749     8.793
    60   7 N        1.845    -0.296    28.530     7.916
    61   6 C        2.924    -0.023    28.575     8.766
    62   6 C        2.918    -0.028    28.698     8.785
    63   1 H        0.926     0.036     2.498     2.471
    64   1 H        0.926     0.036     2.496     2.471
    65   1 H        0.926     0.054     2.273     2.358
    66   1 H        0.926     0.056     2.252     2.347
    67   1 H        0.926     0.037     2.490     2.468
    68   1 H        0.926     0.037     2.493     2.469
    69   1 H        0.926     0.037     2.491     2.468
    70   1 H        0.926     0.055     2.254     2.348
    71   1 H        0.926     0.055     2.263     2.352
    72   1 H        0.926     0.037     2.486     2.466
    73   1 H        0.926     0.035     2.510     2.478
    74   1 H        0.926     0.046     2.366     2.405
    75   1 H        0.926     0.027     2.632     2.537
    76   1 H        0.926     0.031     2.570     2.507
    77   1 H        0.926     0.026     2.648     2.545
    78   1 H        0.926     0.030     2.582     2.513
    79   1 H        0.926     0.031     2.578     2.511
    80   1 H        0.926     0.028     2.620     2.531
    81   1 H        0.926     0.029     2.607     2.525
    82   1 H        0.926     0.026     2.638     2.540
    83   1 H        0.926     0.042     2.419     2.432
    84   1 H        0.926     0.038     2.472     2.458
    85   1 H        0.926     0.036     2.499     2.472
    86   1 H        0.926     0.041     2.430     2.437
    87   1 H        0.926     0.026     2.638     2.540
    88   1 H        0.926     0.028     2.608     2.525
    89   1 H        0.926     0.028     2.620     2.531
    90   1 H        0.926     0.031     2.577     2.510
    91   1 H        0.926     0.031     2.577     2.510
    92   1 H        0.926     0.028     2.618     2.530
    93   1 H        0.926     0.029     2.603     2.523
    94   1 H        0.926     0.027     2.634     2.538
    95   1 H        0.926     0.042     2.426     2.436
    96   1 H        0.926     0.035     2.519     2.482
    97   1 H        0.926     0.055     2.263     2.352
    98   1 H        0.926     0.054     2.271     2.357
    99   1 H        0.926     0.041     2.435     2.440

molecular dipole:
                 x           y           z       tot (Debye)
 q only:        0.078      -0.039      -0.020
   full:        0.075      -0.036      -0.025       0.221

 projected vibrational frequencies (cm⁻¹)
eigval :       -0.00    -0.00    -0.00    -0.00    -0.00     0.00
eigval :        7.01     8.44    12.66    13.76    16.84    23.19
eigval :       25.97    32.10    34.39    39.86    45.12    54.49
eigval :       60.25    65.25    72.28    78.51    85.90    94.68
eigval :       95.73   104.80   105.05   113.63   115.46   143.65
eigval :      145.66   151.41   170.05   178.04   183.34   188.78
eigval :      193.35   215.08   231.22   233.71   239.86   251.76
eigval :      255.38   271.90   271.91   274.25   285.16   290.56
eigval :      322.62   331.98   362.66   365.19   368.84   382.21
eigval :      385.56   389.83   392.30   394.02   398.57   401.48
eigval :      416.74   418.38   421.10   423.69   432.31   434.96
eigval :      437.19   451.49   470.46   504.07   511.39   518.03
eigval :      519.20   530.76   532.07   540.90   541.42   542.55
eigval :      557.65   573.27   582.83   586.96   587.50   588.39
eigval :      596.17   604.65   611.38   613.81   614.58   618.01
eigval :      627.80   633.72   653.24   659.86   665.18   672.91
eigval :      673.92   674.27   676.05   684.65   693.50   702.50
eigval :      708.85   710.16   715.76   747.09   753.67   755.12
eigval :      759.39   770.03   770.90   776.33   781.27   783.36
eigval :      794.50   796.87   808.18   820.13   839.84   847.59
eigval :      867.47   869.29   873.56   874.64   877.73   880.08
eigval :      880.64   881.22   888.72   897.29   898.33   901.96
eigval :      902.40   902.92   903.74   908.48   909.59   911.34
eigval :      912.14   918.69   920.57   921.65   925.38   926.93
eigval :      927.94   928.78   930.76   932.05   933.12   933.95
eigval :      935.23   940.88   962.92   989.28   990.86   993.66
eigval :     1001.29  1012.16  1012.88  1036.13  1048.96  1069.82
eigval :     1070.37  1073.19  1074.10  1075.27  1076.08  1088.35
eigval :     1095.33  1108.79  1112.07  1117.92  1119.53  1122.51
eigval :     1135.83  1149.09  1153.01  1154.18  1167.25  1168.01
eigval :     1176.75  1176.97  1180.26  1181.21  1181.42  1182.37
eigval :     1183.43  1186.89  1188.47  1194.27  1202.62  1203.82
eigval :     1206.21  1234.56  1236.58  1237.38  1242.81  1245.66
eigval :     1252.50  1267.12  1267.84  1269.14  1272.74  1289.75
eigval :     1300.26  1303.91  1304.53  1305.76  1312.64  1315.18
eigval :     1326.80  1328.13  1329.15  1356.33  1357.91  1360.29
eigval :     1362.28  1363.81  1365.83  1372.75  1373.67  1377.22
eigval :     1402.13  1413.63  1424.11  1428.43  1428.72  1432.03
eigval :     1434.04  1435.49  1440.68  1468.37  1470.75  1476.63
eigval :     1477.01  1478.29  1482.05  1488.50  1488.56  1507.33
eigval :     1513.72  1519.60  1551.02  1562.76  1574.57  1575.25
eigval :     1576.68  1583.53  1584.92  1586.01  1589.20  1589.43
eigval :     1591.37  1594.85  1595.63  1598.97  1599.23  1599.63
eigval :     1615.09  1615.38  3074.29  3074.38  3074.88  3075.10
eigval :     3075.79  3075.95  3077.32  3077.90  3079.76  3080.69
eigval :     3080.74  3081.19  3081.46  3081.84  3083.09  3085.85
eigval :     3086.96  3087.71  3088.89  3089.59  3089.87  3091.11
eigval :     3091.97  3092.59  3093.69  3094.67  3094.72  3096.32
eigval :     3096.37  3097.51  3097.90  3099.51  3104.94  3105.73
eigval :     3106.47  3107.42  3108.48

   temp. (K)  partition function   enthalpy   heat capacity  entropy
                                   cal/mol     cal/K/mol   cal/K/mol   J/K/mol
 298.15  VIB  0.436E+24            28677.516    179.341    180.539
         ROT  0.219E+09              888.752      2.981     41.143
         INT  0.955E+32            29566.268    182.322    221.682
         TR   0.216E+29             1481.254      4.968     45.865
         TOT                       31047.5219   187.2905   267.5474  1119.4183

       T/K    H(0)-H(T)+PV         H(T)/Eh          T*S/Eh         G(T)/Eh
   ------------------------------------------------------------------------
    298.15    0.494774E-01    0.806658E+00    0.127120E+00    0.679538E+00
   ------------------------------------------------------------------------

         :::::::::::::::::::::::::::::::::::::::::::::::::::::
         ::                  THERMODYNAMIC                  ::
         :::::::::::::::::::::::::::::::::::::::::::::::::::::
         :: total free energy        -154.950865173672 Eh   ::
         ::.................................................::
         :: total energy             -155.630403163841 Eh   ::
         :: zero point energy           0.757181018445 Eh   ::
         :: G(RRHO) w/o ZPVE           -0.077643028276 Eh   ::
         :: G(RRHO) contrib.            0.679537990169 Eh   ::
         :::::::::::::::::::::::::::::::::::::::::::::::::::::

           -------------------------------------------------
          | TOTAL ENERGY             -155.630403163841 Eh   |
          | TOTAL ENTHALPY           -154.823744769839 Eh   |
          | TOTAL FREE ENERGY        -154.950865173672 Eh   |
          | GRADIENT NORM               0.000052465443 Eh/α |
          | HOMO-LUMO GAP               2.010851504262 eV   |
           -------------------------------------------------

 * finished run on 2025/08/22 at 07:25:28.812
