   * xtb version 6.7.1 (edcfbbe) compiled by 'albert@albert-system' on 2024-07-22

   ID    Z sym.   atoms
    1    6 C      1-5, 7-13, 15-23, 25-43, 45-59, 61, 62
    2    7 N      6, 14, 24, 44, 60
    3    1 H      63-99

          program call               : xtb data2507/gas/CBPTZ/CBPTZ_gas_T1_crest.xyz --gfn 2 --spinpol --tblite --uhf 2 --ohess vtight --parallel 40 --molden --ceasefiles --namespace data2507/gas/CBPTZ/CBPTZ_gas_T1_finalOpt
 * total energy  :  -155.5672468 Eh     change       -0.2956068E-07 Eh
 * total energy  :  -155.5673280 Eh     change       -0.8116387E-04 Eh
 * total energy  :  -155.5673687 Eh     change       -0.4070293E-04 Eh
 * total energy  :  -155.5673720 Eh     change       -0.3278433E-05 Eh
 * total energy  :  -155.5673758 Eh     change       -0.3889014E-05 Eh
 * total energy  :  -155.5673774 Eh     change       -0.1511045E-05 Eh
 * total energy  :  -155.5673788 Eh     change       -0.1461565E-05 Eh
 * total energy  :  -155.5673802 Eh     change       -0.1365554E-05 Eh
 * total energy  :  -155.5673815 Eh     change       -0.1344248E-05 Eh
 * total energy  :  -155.5673829 Eh     change       -0.1380981E-05 Eh
 * total energy  :  -155.5673910 Eh     change       -0.1230282E-06 Eh
 * total energy  :  -155.5673912 Eh     change       -0.2498838E-06 Eh
 * total energy  :  -155.5673914 Eh     change       -0.1658135E-06 Eh
 * total energy  :  -155.5673915 Eh     change       -0.1353128E-06 Eh
 * total energy  :  -155.5673916 Eh     change       -0.1139985E-06 Eh
 * total energy  :  -155.5673917 Eh     change       -0.1114897E-06 Eh
 * total energy  :  -155.5673918 Eh     change       -0.1002609E-06 Eh
 * total energy  :  -155.5673918 Eh     change        0.3387214E-08 Eh
 * total energy  :  -155.5673919 Eh     change       -0.6841873E-07 Eh
   *** GEOMETRY OPTIMIZATION CONVERGED AFTER 36 ITERATIONS ***

 final structure:
================
99
 xtb: 6.7.1 (edcfbbe)
C           -4.01675241048275       -3.85581170101741       -2.48288658958467
C           -5.02037872649364       -2.97347455786814       -2.11744608082304
C           -4.71365578314076       -1.66113958050325       -1.81460451003937
C           -3.39285228528655       -1.22404499647074       -1.86844596272643
C           -3.06482319394618        0.15773257194955       -1.50290337787523
N           -4.04966811141819        1.04437215675301       -1.51330003747630
C           -3.74534877693471        2.33259780497280       -1.14965230110442
C           -4.79432624541131        3.31548273915113       -1.13971740377838
C           -4.52857857126165        4.64189821475181       -0.77533059310553
C           -5.54608052112607        5.56981476380848       -0.74311189151649
C           -6.84397090024300        5.20002951291661       -1.07141721622528
C           -7.11578503284733        3.88883211180484       -1.43679668102890
C           -6.10537326558549        2.95233342953888       -1.47257452253187
N           -2.52221101546624        2.64665529757026       -0.79741749401050
C           -1.55705017170026        1.73199642438261       -0.77599418524835
C           -0.26121028524352        2.04895371145442       -0.26726803790001
C            0.01916569574902        3.31473198926364        0.27821523462410
C            1.24860540414119        3.56454849564813        0.84286482554098
C            2.21798352730616        2.57208893192501        0.90673566041968
C            1.96215026802901        1.30823529662657        0.36883596193008
C            2.97069733300577        0.23886046501185        0.47706075459232
C            4.30077268230500        0.50896884280278        0.18703367926522
C            5.26737454478187       -0.48810673255224        0.25797271780399
N            6.60575392492361       -0.18605228625723       -0.02252886935931
C            7.43192929485097       -0.88183277964138       -0.88164017447645
C            7.14776008432764       -1.97209100024587       -1.69198307552682
C            8.16420070487214       -2.46705871059664       -2.48669619624119
C            9.43239930034295       -1.89110890000484       -2.48820443323923
C            9.71389130681899       -0.78985164425415       -1.70302212980163
C            8.70926290080606       -0.27494003146678       -0.89589198474962
C            8.64080799981184        0.84060510535263        0.00752296637789
C            9.56276607094605        1.79088485310130        0.42359457178641
C            9.16520212082837        2.73834570368696        1.34698379411541
C            7.87252078838535        2.73546127419079        1.86577527136694
C            6.93749514046101        1.79930930529276        1.46730480092377
C            7.32343475410298        0.86052171500617        0.52088586546048
C            4.89666990785278       -1.78405024234662        0.60706893410199
C            3.57372397758924       -2.06271840707517        0.88740511433751
C            2.60548916657749       -1.06650757269067        0.84792820999585
C            1.20264474971113       -1.36867483392575        1.17200455978862
C            0.53379682269412       -0.66876202764012        2.17413679393311
C           -0.82341279894487       -0.82379412634220        2.35502174747467
C           -1.55345511026368       -1.65088133170052        1.50084283813246
N           -2.94875626297973       -1.66080487467144        1.54553049934272
C           -3.76719116501746       -2.75699716019355        1.35057977418302
C           -3.44777304036486       -4.10698928373862        1.30112503438988
C           -4.47741837878167       -5.01072047318602        1.11810239137826
C           -5.80051846828586       -4.59356640348993        1.00598578746860
C           -6.13070288565419       -3.25496981762043        1.09570100313690
C           -5.11261844614267       -2.33016461950149        1.27213977094840
C           -5.09758360496036       -0.90096248035712        1.42079947283346
C           -6.09484421099354        0.06357589538992        1.39865004665834
C           -5.73916893342885        1.38862115389075        1.55709458110421
C           -4.40568339464274        1.75176640566699        1.72198820524012
C           -3.39468559457333        0.80854593228575        1.73734019283017
C           -3.74567072147953       -0.52680912233065        1.59285039102817
C           -0.87191356064472       -2.43179740508623        0.56908613359724
C            0.49319106881658       -2.30383460142155        0.42316649013844
C            0.74303269923212        1.07090027945091       -0.24369087456472
N           -1.82949132608958        0.43969586007618       -1.17021548860411
C           -2.38906241057474       -2.10782965514610       -2.25413688359886
C           -2.70375556016552       -3.41855631822191       -2.55976361156468
H           -4.25826393240773       -4.88280673630511       -2.71376559056206
H           -6.04394410145644       -3.31286500535392       -2.06545002042618
H           -5.48210965364314       -0.96204845205725       -1.52335423926906
H           -3.51574412926376        4.91676865426467       -0.52284704901281
H           -5.33454889418168        6.59125375006279       -0.46052626173274
H           -7.63859186333615        5.93093260732460       -1.04341809875872
H           -8.12545867602752        3.60150935293293       -1.69390574865333
H           -6.30160421610448        1.92868416628247       -1.75234877855923
H           -0.74765412400708        4.07322151026606        0.25115790357559
H            1.45963105252804        4.53888748326739        1.26041343009298
H            3.16084547688541        2.76911119500747        1.39524426473075
H            4.58517597747636        1.49971170597641       -0.13521764248144
H            6.16250366954426       -2.41258279001712       -1.71265412911942
H            7.96943593407825       -3.31682353296591       -3.12413941773102
H           10.20072241759746       -2.30865151750347       -3.12161316333877
H           10.69196809745944       -0.33329032936159       -1.71742200327334
H           10.56970567313599        1.78316563117689        0.03461509353255
H            9.86629707781050        3.48818167077790        1.68175190377576
H            7.59606113839859        3.47899929497361        2.59861706414817
H            5.94421408057114        1.79199087133101        1.88967771258520
H            5.64753056236814       -2.55627597671055        0.67787209596702
H            3.28534174883586       -3.06378401249542        1.17398126652727
H            1.08602027263451        0.01154814484784        2.80537810290115
H           -1.32704002925906       -0.29757202551591        3.15096887477193
H           -2.43206423054394       -4.45067293498280        1.42122004827802
H           -4.24982321707179       -6.06528790224109        1.06994846657145
H           -6.57682860275401       -5.33037182294913        0.86296565559734
H           -7.15869759472435       -2.93127435213751        1.03463658733457
H           -7.12640458071982       -0.22108995513025        1.25525928209467
H           -6.49644344672916        2.15773100342115        1.53792709424241
H           -4.15225929176411        2.79527821771188        1.83272523431129
H           -2.36547368733942        1.11941776841232        1.82520675448666
H           -1.42523815202486       -3.08875252681082       -0.08205222179775
H            1.00791630025585       -2.87873822285075       -0.33334587240734
H            0.53501116836819        0.12508728129490       -0.71736384610321
H           -1.37256368983285       -1.74910258548973       -2.31167746907671
H           -1.92346726544829       -4.10406401781839       -2.85843529276842

 projected vibrational frequencies (cm⁻¹)
eigval :       -0.00    -0.00    -0.00    -0.00     0.00     0.00
eigval :       12.72    14.08    15.01    18.02    31.46    31.93
eigval :       36.50    43.85    45.96    48.29    54.76    57.39
eigval :       74.15    80.63    83.75    84.32    93.93   106.36
eigval :      107.89   109.98   114.00   126.53   128.86   133.19
eigval :      143.52   160.79   168.08   182.70   191.61   201.72
eigval :      214.04   220.50   234.38   236.38   238.86   243.49
eigval :      251.11   261.06   270.89   278.32   287.09   298.93
eigval :      313.39   327.23   353.07   361.83   369.27   374.10
eigval :      381.52   383.81   390.70   391.62   394.72   399.50
eigval :      403.86   415.24   420.18   422.15   423.85   434.64
eigval :      440.37   441.95   468.09   505.20   505.50   516.71
eigval :      517.35   524.41   530.00   535.96   539.63   540.06
eigval :      543.32   547.12   551.89   557.06   581.19   584.02
eigval :      587.14   587.60   589.39   593.86   598.06   610.77
eigval :      613.05   617.37   636.02   648.24   649.74   655.58
eigval :      658.47   669.65   672.62   674.03   675.98   691.50
eigval :      696.06   709.02   709.38   715.28   736.30   750.98
eigval :      754.79   757.27   759.96   766.90   768.41   770.40
eigval :      778.09   778.67   781.31   785.76   798.74   822.42
eigval :      836.82   858.36   861.21   862.11   863.13   867.16
eigval :      871.98   874.43   876.00   878.39   879.87   884.90
eigval :      893.60   896.67   899.33   901.03   901.65   904.86
eigval :      905.70   907.35   914.81   916.48   917.76   920.51
eigval :      921.21   921.60   921.67   924.01   925.25   927.85
eigval :      929.30   935.82   938.41   945.78   969.59   981.34
eigval :      985.03   989.60   999.34  1011.34  1012.58  1033.15
eigval :     1064.68  1068.93  1072.31  1072.50  1072.93  1077.24
eigval :     1078.46  1088.51  1098.27  1110.08  1116.31  1117.00
eigval :     1118.95  1120.87  1136.26  1147.35  1151.72  1153.44
eigval :     1162.60  1173.25  1176.31  1176.81  1178.44  1178.71
eigval :     1179.27  1179.56  1181.59  1182.51  1186.34  1194.83
eigval :     1204.90  1222.14  1232.18  1233.31  1234.44  1243.23
eigval :     1244.51  1258.82  1264.18  1266.45  1268.88  1270.19
eigval :     1289.03  1291.11  1291.84  1297.52  1299.11  1303.12
eigval :     1310.76  1318.91  1324.91  1328.26  1337.12  1341.19
eigval :     1352.76  1354.17  1357.42  1359.84  1362.39  1369.74
eigval :     1373.94  1389.19  1401.79  1410.48  1421.11  1422.91
eigval :     1423.69  1426.81  1432.59  1435.74  1441.06  1457.90
eigval :     1466.45  1468.32  1471.19  1473.18  1481.17  1485.76
eigval :     1486.84  1501.08  1532.97  1544.33  1553.53  1555.73
eigval :     1563.68  1572.10  1572.35  1577.78  1582.02  1582.44
eigval :     1584.39  1587.86  1589.24  1591.23  1591.81  1593.05
eigval :     1607.60  1611.69  3068.71  3069.38  3072.51  3072.63
eigval :     3077.27  3077.55  3077.84  3078.77  3079.83  3082.26
eigval :     3082.37  3082.52  3083.11  3084.35  3084.67  3085.16
eigval :     3086.86  3088.77  3090.06  3091.33  3092.29  3092.35
eigval :     3093.24  3094.56  3096.03  3096.40  3096.54  3097.15
eigval :     3097.59  3097.83  3098.67  3099.35  3100.44  3104.05
eigval :     3104.70  3110.32  3115.39

   temp. (K)  partition function   enthalpy   heat capacity  entropy
                                   cal/mol     cal/K/mol   cal/K/mol   J/K/mol
 298.15  VIB  0.466E+22            28703.273    183.679    177.540
         ROT  0.150E+09              888.752      2.981     40.387
         INT  0.696E+30            29592.026    186.660    217.926
         TR   0.216E+29             1481.254      4.968     45.865
         TOT                       31073.2795   191.6279   263.7919  1103.7052

       T/K    H(0)-H(T)+PV         H(T)/Eh          T*S/Eh         G(T)/Eh
   ------------------------------------------------------------------------
    298.15    0.495184E-01    0.801723E+00    0.125336E+00    0.676387E+00
   ------------------------------------------------------------------------

         :::::::::::::::::::::::::::::::::::::::::::::::::::::
         ::                  THERMODYNAMIC                  ::
         :::::::::::::::::::::::::::::::::::::::::::::::::::::
         :: total free energy        -154.891005077280 Eh   ::
         ::.................................................::
         :: total energy             -155.567391915280 Eh   ::
         :: zero point energy           0.752204446053 Eh   ::
         :: G(RRHO) w/o ZPVE           -0.075817608053 Eh   ::
         :: G(RRHO) contrib.            0.676386838000 Eh   ::
         :::::::::::::::::::::::::::::::::::::::::::::::::::::

           -------------------------------------------------
          | TOTAL ENERGY             -155.567391915280 Eh   |
          | TOTAL ENTHALPY           -154.765669046367 Eh   |
          | TOTAL FREE ENERGY        -154.891005077280 Eh   |
          | GRADIENT NORM               0.000076208027 Eh/α |
           -------------------------------------------------

 * finished run on 2025/08/22 at 07:35:46.012
