   * xtb version 6.7.1 (edcfbbe) compiled by 'albert@albert-system' on 2024-07-22

   ID    Z sym.   atoms
    1    6 C      1-5, 7-13, 15-23, 25-43, 45-59, 61, 62
    2    7 N      6, 14, 24, 44, 60
    3    1 H      63-99

          program call               : xtb data2507/gas/CBPTZ/CBPTZ_gas_S0_finalOpt.xtbopt.xyz --gfn 2 --spinpol --tblite --uhf 2 --ohess vtight --parallel 40 --molden --ceasefiles --namespace data2507/gas/CBPTZ/CBPTZ_gas_T1_preOpt
 * total energy  :  -155.5477444 Eh     change        0.2025638E-07 Eh
 * total energy  :  -155.5501059 Eh     change       -0.2361550E-02 Eh
 * total energy  :  -155.5511598 Eh     change       -0.1053847E-02 Eh
 * total energy  :  -155.5512713 Eh     change       -0.1114775E-03 Eh
 * total energy  :  -155.5514531 Eh     change       -0.1817860E-03 Eh
 * total energy  :  -155.5516667 Eh     change       -0.2136849E-03 Eh
 * total energy  :  -155.5517558 Eh     change       -0.8907523E-04 Eh
 * total energy  :  -155.5518308 Eh     change       -0.7501467E-04 Eh
 * total energy  :  -155.5518500 Eh     change       -0.1918109E-04 Eh
 * total energy  :  -155.5518679 Eh     change       -0.1792101E-04 Eh
 * total energy  :  -155.5520127 Eh     change       -0.1705671E-05 Eh
 * total energy  :  -155.5520137 Eh     change       -0.9830499E-06 Eh
 * total energy  :  -155.5520148 Eh     change       -0.1103839E-05 Eh
 * total energy  :  -155.5520157 Eh     change       -0.8957167E-06 Eh
 * total energy  :  -155.5520166 Eh     change       -0.9330545E-06 Eh
 * total energy  :  -155.5520177 Eh     change       -0.1061169E-05 Eh
 * total energy  :  -155.5520188 Eh     change       -0.1106384E-05 Eh
 * total energy  :  -155.5520200 Eh     change       -0.1193591E-05 Eh
 * total energy  :  -155.5520200 Eh     change       -0.2247714E-07 Eh
   *** GEOMETRY OPTIMIZATION CONVERGED AFTER 44 ITERATIONS ***

 final structure:
================
99
 xtb: 6.7.1 (edcfbbe)
C            7.17339608433113       -2.94035971659417        1.60157759341505
C            6.61329793933493       -4.19860911165252        1.75911232541122
C            5.31554689884316       -4.43609464267173        1.35041433805576
C            4.56108470610975       -3.40701289969747        0.78989372919703
C            3.19720322744656       -3.66413760125362        0.32506169742754
N            2.79868570917919       -4.93115118368303        0.22097351806213
C            1.54609650250573       -5.16699256656357       -0.28358124554065
C            1.09134395712666       -6.52709306937316       -0.41199439306158
C           -0.19573550513553       -6.80546550208606       -0.88961051139349
C           -0.62507242535649       -8.10921395596675       -1.00572741855708
C            0.21290236780880       -9.15831267167125       -0.65073086048633
C            1.48972767980347       -8.89172309623197       -0.17707423483089
C            1.92962948718297       -7.59085988295539       -0.05687621532963
N            0.78125033883063       -4.16747475485428       -0.64388445750902
C            1.18900038385592       -2.90543507671372       -0.49714890119298
C            0.35969459742550       -1.81411305308687       -0.89378592594814
C           -0.81473755885961       -2.02258495132170       -1.63791671939475
C           -1.56023981082120       -0.94605265959400       -2.06218072123689
C           -1.19018145634355        0.35031921093719       -1.73465030112956
C           -0.05952608792968        0.57574338864312       -0.94195552697683
C            0.31555471904910        1.93384111877068       -0.51340975174271
C            1.64794743754563        2.31889637637158       -0.57317106163721
C            2.04910078570461        3.59070611613468       -0.18292356761388
N            3.41181759482587        3.91338797462844       -0.17612613965114
C            4.39340287320628        3.16419125512500        0.44145125646371
C            4.27493309484318        2.00189143533148        1.19058808587571
C            5.42358404216556        1.47298793544422        1.74708756461329
C            6.66402602712862        2.08033821919607        1.56414473647068
C            6.78540048971755        3.24807269392384        0.83533950307271
C            5.64354668877200        3.80311854608736        0.27447408236080
C            5.39213728924142        4.99610031207264       -0.48731978673832
C            6.20555609090285        6.01060804706190       -0.97141410894778
C            5.62622973704618        7.03338083968324       -1.69788018447291
C            4.25731715915272        7.04506399875322       -1.95505350046383
C            3.42670250094202        6.04554465412075       -1.48511672635083
C            3.99979693624963        5.02758122479656       -0.73609138537788
C            1.09487045137537        4.51855798409931        0.22536684888767
C           -0.23290407555357        4.14573251812861        0.28108212232193
C           -0.63817236995697        2.85597416745983       -0.05031043200369
C           -2.04319968683388        2.46375771718212        0.12750614701094
C           -3.07638175804776        3.24064793101031       -0.38995446897962
C           -4.38988399481323        2.82649710052602       -0.29006842631102
C           -4.69516463672773        1.62961612653090        0.35176713872931
N           -6.01309696684292        1.16170156902731        0.39864185822034
C           -7.12712219160358        1.87788015827301        0.78426118233352
C           -7.21888544009421        3.17315392617949        1.27406900654983
C           -8.47172304736747        3.64517949862985        1.61707114624332
C           -9.60839923811025        2.85075031932352        1.48772422267185
C           -9.51987281598305        1.55218785237931        1.02362261589708
C           -8.27284441513036        1.05590477503122        0.67184524976763
C           -7.81571335619580       -0.21669361605455        0.18374771329481
C           -8.45911212606100       -1.40219536190777       -0.14299346548324
C           -7.70278759691138       -2.45412350482320       -0.62315622590068
C           -6.32590996732799       -2.32905113405224       -0.79324845634016
C           -5.66230760184314       -1.15924940045353       -0.47514655134933
C           -6.41428979240439       -0.10823778185904        0.03171136202096
C           -3.67217113537722        0.87998771564773        0.92952992760552
C           -2.36294675181999        1.29189468091275        0.81338048286908
C            0.71550751153068       -0.50121405253363       -0.55064992773459
N            2.43683913239081       -2.64720849752273        0.01361006013377
C            5.12530536111986       -2.14112421431573        0.64239194359834
C            6.42823885367417       -1.91448240349330        1.04041974094038
H            8.19189191520020       -2.76003457337656        1.91306671137500
H            7.19437138858592       -4.99711866607389        2.19683311891755
H            4.86821927279007       -5.41218988333396        1.45936717801595
H           -0.83758095243292       -5.98085180969095       -1.15978242619217
H           -1.61930146486181       -8.31754465329562       -1.37428546529371
H           -0.12848001683306      -10.17874100889728       -0.74303301751102
H            2.14199028566929       -9.70791902778419        0.09876453607382
H            2.92109852140196       -7.36970893081784        0.30804454379484
H           -1.10024897804646       -3.03278412279589       -1.88670770235439
H           -2.44437539137218       -1.10804289981507       -2.66293022316063
H           -1.76805104774332        1.18522071696585       -2.10048203274863
H            2.38529143439168        1.62552938263702       -0.94930421658685
H            3.31569694359465        1.53393753099138        1.35129353305303
H            5.35496650900564        0.57308531344878        2.33997961136458
H            7.54044534276255        1.63635574643335        2.01305098796732
H            7.74473097376266        3.72712187208713        0.71054578635646
H            7.26877060872492        5.99565538488255       -0.78521871790669
H            6.24157425027037        7.83356488261353       -2.08114991296180
H            3.83642874840867        7.85105926185236       -2.53770942809052
H            2.36946506623487        6.05194341054393       -1.70326125208226
H            1.40151075467467        5.50781674173468        0.52956448405485
H           -0.97014446142700        4.85231785435889        0.63386293411340
H           -2.84247825767152        4.15337533403058       -0.91867061775295
H           -5.18090592091213        3.40785318112273       -0.73985877880957
H           -6.34070666910926        3.78904568399327        1.39575650590515
H           -8.57086926173683        4.65095670313855        1.99767838065551
H          -10.56991781873244        3.25668745959465        1.76432993183488
H          -10.39935232072083        0.93202013280684        0.93912269387246
H           -9.52845059691155       -1.49433722864806       -0.02774353867004
H           -8.18375527744455       -3.38586618415111       -0.88080176501754
H           -5.76382521725114       -3.16339174315771       -1.18546201769642
H           -4.59737450653066       -1.06641306939143       -0.62673349594543
H           -3.91408696514301       -0.02281891670550        1.46951482290269
H           -1.57529088667989        0.70505491610070        1.26064468607322
H            1.59309099164988       -0.35624653909040        0.06122246760370
H            4.53490527493007       -1.35159377937605        0.20302473005605
H            6.86690594085742       -0.93653521124260        0.90750305547218

 projected vibrational frequencies (cm⁻¹)
eigval :       -0.00    -0.00    -0.00    -0.00     0.00     0.00
eigval :        6.60     8.84    13.04    13.84    17.24    21.65
eigval :       32.07    33.99    36.25    39.18    44.77    51.87
eigval :       62.06    64.68    72.62    78.88    87.75    96.04
eigval :      102.86   105.36   109.35   115.06   115.90   142.11
eigval :      144.95   147.99   170.24   175.73   183.48   187.32
eigval :      212.62   217.87   227.98   233.68   239.67   244.72
eigval :      245.56   253.83   271.28   272.95   281.68   290.68
eigval :      306.94   329.90   353.08   363.09   367.00   369.11
eigval :      372.63   382.46   385.39   391.49   392.71   399.58
eigval :      403.86   413.35   419.68   421.64   422.96   432.82
eigval :      436.72   440.73   468.70   500.72   507.95   516.59
eigval :      517.46   523.03   530.50   531.70   539.26   539.80
eigval :      541.03   541.12   553.58   555.70   581.50   584.85
eigval :      586.80   587.63   589.32   595.13   595.94   611.30
eigval :      612.16   616.97   625.85   636.95   649.55   655.13
eigval :      657.27   658.15   670.30   671.95   674.12   674.41
eigval :      692.32   696.41   709.30   709.53   715.72   739.67
eigval :      753.19   754.26   757.47   765.67   770.11   771.26
eigval :      780.36   782.47   783.10   784.04   797.53   819.84
eigval :      838.12   857.46   862.87   862.97   866.37   869.43
eigval :      871.82   872.52   873.98   876.86   879.88   887.84
eigval :      895.22   898.06   901.20   902.56   903.02   904.96
eigval :      905.56   908.62   917.33   919.72   920.25   921.57
eigval :      922.45   923.65   924.03   925.86   927.48   927.69
eigval :      929.22   934.39   938.57   947.30   967.78   980.39
eigval :      985.65   989.96  1000.17  1011.87  1012.55  1034.32
eigval :     1062.85  1068.84  1069.73  1072.07  1072.78  1073.38
eigval :     1075.82  1087.88  1101.98  1109.80  1116.74  1118.18
eigval :     1118.78  1122.46  1136.10  1148.16  1150.01  1152.46
eigval :     1157.08  1174.92  1175.93  1176.02  1179.60  1180.26
eigval :     1180.32  1181.43  1182.21  1185.99  1187.52  1193.39
eigval :     1201.83  1220.18  1233.05  1234.51  1235.12  1239.61
eigval :     1243.83  1254.43  1264.61  1266.04  1267.69  1268.94
eigval :     1286.74  1289.68  1296.36  1297.50  1299.36  1301.77
eigval :     1313.05  1315.44  1316.57  1328.30  1336.84  1339.71
eigval :     1352.97  1354.95  1355.62  1358.64  1361.58  1370.59
eigval :     1371.93  1396.10  1402.09  1413.33  1421.93  1422.21
eigval :     1422.66  1428.55  1432.30  1435.97  1438.85  1458.18
eigval :     1462.21  1470.12  1471.19  1475.52  1480.30  1485.84
eigval :     1486.25  1502.32  1531.97  1545.36  1556.78  1557.86
eigval :     1562.58  1571.22  1571.92  1577.15  1577.68  1582.29
eigval :     1585.53  1587.47  1589.63  1591.16  1591.59  1593.73
eigval :     1606.08  1611.28  3066.46  3070.62  3073.79  3074.97
eigval :     3077.10  3077.58  3078.57  3078.72  3079.80  3080.39
eigval :     3082.00  3083.45  3083.52  3084.49  3084.65  3086.98
eigval :     3088.11  3089.55  3089.67  3089.99  3090.33  3091.35
eigval :     3091.72  3091.87  3093.10  3093.44  3094.12  3095.78
eigval :     3096.26  3096.68  3097.00  3097.40  3098.25  3098.40
eigval :     3099.48  3099.96  3100.84

   temp. (K)  partition function   enthalpy   heat capacity  entropy
                                   cal/mol     cal/K/mol   cal/K/mol   J/K/mol
 298.15  VIB  0.444E+24            29071.163    182.540    182.317
         ROT  0.219E+09              888.752      2.981     41.145
         INT  0.973E+32            29959.916    185.521    223.463
         TR   0.216E+29             1481.254      4.968     45.865
         TOT                       31441.1697   190.4887   269.3279  1126.8681

       T/K    H(0)-H(T)+PV         H(T)/Eh          T*S/Eh         G(T)/Eh
   ------------------------------------------------------------------------
    298.15    0.501047E-01    0.801215E+00    0.127966E+00    0.673249E+00
   ------------------------------------------------------------------------

         :::::::::::::::::::::::::::::::::::::::::::::::::::::
         ::                  THERMODYNAMIC                  ::
         :::::::::::::::::::::::::::::::::::::::::::::::::::::
         :: total free energy        -154.878771488182 Eh   ::
         ::.................................................::
         :: total energy             -155.552019990946 Eh   ::
         :: zero point energy           0.751110201637 Eh   ::
         :: G(RRHO) w/o ZPVE           -0.077861698874 Eh   ::
         :: G(RRHO) contrib.            0.673248502763 Eh   ::
         :::::::::::::::::::::::::::::::::::::::::::::::::::::

           -------------------------------------------------
          | TOTAL ENERGY             -155.552019990946 Eh   |
          | TOTAL ENTHALPY           -154.750805096087 Eh   |
          | TOTAL FREE ENERGY        -154.878771488182 Eh   |
          | GRADIENT NORM               0.000108757527 Eh/α |
           -------------------------------------------------

 * finished run on 2025/08/22 at 07:25:56.187
