   * xtb version 6.7.1 (edcfbbe) compiled by 'albert@albert-system' on 2024-07-22

   ID    Z sym.   atoms
    1    6 C      1-5, 7-13, 15-23, 25-43, 45-59, 61, 62
    2    7 N      6, 14, 24, 44, 60
    3    1 H      63-99

          program call               : xtb data2507/gas/CBPTZ/CBPTZ.xyz --gfn 2 --ohess vtight --parallel 40 --molden --ceasefiles --namespace data2507/gas/CBPTZ/CBPTZ_gas_S0_preOpt
          :  Hamiltonian                  GFN2-xTB          :
 * total energy  :  -155.6027045 Eh     change       -0.2377192E-08 Eh
 * total energy  :  -155.6196434 Eh     change       -0.1693893E-01 Eh
 * total energy  :  -155.6242545 Eh     change       -0.4611076E-02 Eh
 * total energy  :  -155.6255277 Eh     change       -0.1273213E-02 Eh
 * total energy  :  -155.6262474 Eh     change       -0.7196443E-03 Eh
 * total energy  :  -155.6265779 Eh     change       -0.3305437E-03 Eh
 * total energy  :  -155.6268746 Eh     change       -0.2967114E-03 Eh
 * total energy  :  -155.6271340 Eh     change       -0.2593787E-03 Eh
 * total energy  :  -155.6273693 Eh     change       -0.2352687E-03 Eh
 * total energy  :  -155.6275838 Eh     change       -0.2145043E-03 Eh
 * total energy  :  -155.6299288 Eh     change       -0.1260976E-05 Eh
 * total energy  :  -155.6299299 Eh     change       -0.1135553E-05 Eh
 * total energy  :  -155.6299310 Eh     change       -0.1060430E-05 Eh
 * total energy  :  -155.6299320 Eh     change       -0.9943594E-06 Eh
 * total energy  :  -155.6299329 Eh     change       -0.8891776E-06 Eh
 * total energy  :  -155.6299335 Eh     change       -0.6161934E-06 Eh
 * total energy  :  -155.6299339 Eh     change       -0.3742364E-06 Eh
 * total energy  :  -155.6299341 Eh     change       -0.2411573E-06 Eh
 * total energy  :  -155.6299342 Eh     change       -0.3933417E-07 Eh
   *** GEOMETRY OPTIMIZATION CONVERGED AFTER 67 ITERATIONS ***

 final structure:
================
99
 xtb: 6.7.1 (edcfbbe)
C            6.11228838775916       -3.09522837310533        3.34489988291007
C            5.23171597612425       -2.06562441869391        3.05075201705960
C            4.19010025353807       -2.27648188079050        2.16826004480086
C            4.01737861619545       -3.52720070549123        1.57828108098760
C            2.90882115166273       -3.75443993157742        0.65068013500829
N            2.68852265687149       -4.99479589081168        0.22497327487369
C            1.66099824553079       -5.15350856800874       -0.60440459146440
C            1.37058219333002       -6.50281982619267       -1.08877602848100
C            0.34265156527009       -6.71115117894050       -2.00637435760946
C            0.07101782069291       -7.98628920048785       -2.46227166151442
C            0.81927703481791       -9.06130056031909       -2.00805610393587
C            1.84241418871893       -8.85932197487671       -1.09465485936828
C            2.11972538954534       -7.58668196724371       -0.63508163386859
N            0.88111217540082       -4.15933918949147       -1.02237025337138
C            1.18213283803070       -2.95147823872008       -0.55841766428350
C            0.37432014267923       -1.81443838300698       -1.00098876584072
C           -0.73524333965885       -1.99814922593687       -1.82225845893573
C           -1.46788468339457       -0.90141099825800       -2.23685777307343
C           -1.11327262184546        0.37437789335308       -1.83311347924673
C           -0.01475203562315        0.57011035962481       -0.99798433322857
C            0.38582346935445        1.91096443264598       -0.53507287824399
C            1.71544692360839        2.28780732725507       -0.66332017331259
C            2.15619411517162        3.53030408069281       -0.22250574316746
N            3.51038486172770        3.86608562660618       -0.32536281178047
C            4.56868154522019        3.05548023549155        0.04245558156778
C            4.56270002011951        1.79472063317912        0.62272372478733
C            5.78011236645199        1.20404198759241        0.90208683590641
C            6.98214568750516        1.85420136758445        0.63216658057285
C            6.99569385687712        3.12185159490005        0.08608605838810
C            5.78391297333622        3.73133636338677       -0.21148867079078
C            5.43346152908047        5.00922786080170       -0.76504696850816
C            6.18004850051757        6.08669497059423       -1.22272655732635
C            5.51502488406619        7.18205995945847       -1.73598265126839
C            4.12437069322376        7.20281452768581       -1.81271801296474
C            3.36024490824509        6.14280803087038       -1.36344818139074
C            4.02134907324798        5.05096279546739       -0.81921933231758
C            1.23915328968011        4.42189191939271        0.32870768008743
C           -0.08940436304811        4.06145212589790        0.43310673950951
C           -0.53398724635447        2.80753110451695        0.02529832209255
C           -1.94305696814177        2.42720923122618        0.21139275627804
C           -2.96618062864179        3.24872350296365       -0.25293670394192
C           -4.28754184010927        2.86319555196990       -0.14163325415583
C           -4.61082204415128        1.65043082478761        0.45958001761157
N           -5.94279977277444        1.22529125131846        0.53302383378677
C           -7.01462542695200        1.96295614639673        0.99329215147792
C           -7.04010928371838        3.23674454740704        1.54279413863823
C           -8.26058243120914        3.73745057553456        1.95351140451827
C           -9.43116746003730        2.99183619024183        1.83200389042276
C           -9.40840468257569        1.71485164213523        1.30803593948329
C           -8.19366164167800        1.18949348588372        0.88785670858833
C           -7.80412163510049       -0.07426513739016        0.32746978268465
C           -8.50453737835222       -1.22061509254161       -0.02458728513318
C           -7.80882650083898       -2.27700701231690       -0.57737602357310
C           -6.43496106665702       -2.19535128443832       -0.79425122002515
C           -5.71576433723795       -1.06623003260561       -0.45243361809080
C           -6.40628093162290       -0.01071228186537        0.12633153172397
C           -3.59487469234080        0.84843537632642        0.97398084775343
C           -2.27690126205868        1.23161388257138        0.84430722736575
C            0.72739113382011       -0.53159550703237       -0.59664936434135
N            2.18030441690506       -2.70427703264526        0.28501948809002
C            4.90257861263752       -4.55964373076866        1.88055584451235
C            5.94657839736759       -4.34023457417505        2.75820490381255
H            6.92768684755517       -2.92705711535268        4.03326630406500
H            5.35931141057026       -1.09836198926013        3.51539937135106
H            3.49492974453199       -1.48743639901014        1.92778330684956
H           -0.22766181076766       -5.86226192183251       -2.34919585697335
H           -0.72543011718849       -8.14637398624233       -3.17428152601954
H            0.60484571180333      -10.05763396468191       -2.36634960902417
H            2.42336891585651       -9.69881468806002       -0.74170054008456
H            2.91037107638228       -7.41012308865842        0.07708443150195
H           -1.00305778851462       -2.99805499004931       -2.12431445932500
H           -2.32342999217627       -1.03772878263322       -2.88231257214336
H           -1.68370409906623        1.22597312995924       -2.17359510882462
H            2.41339233918985        1.61359673152820       -1.13683518619209
H            3.63866846851256        1.29030853721690        0.86011890357684
H            5.79991217064320        0.21544961468752        1.33638317753037
H            7.91321807344761        1.35818687566609        0.86294163463950
H            7.92619276426675        3.63393562920098       -0.10750302450395
H            7.25851464722780        6.06101976499865       -1.18062563477606
H            6.07623001748857        8.03202502953040       -2.09467864648304
H            3.63181132113421        8.06537352678022       -2.23706325850259
H            2.28433457827775        6.16228373369901       -1.44910133946170
H            1.57472942999319        5.38065940352906        0.69327001990418
H           -0.79557838565971        4.74884815917865        0.87588294749739
H           -2.71911703135393        4.18022119724311       -0.74168433342555
H           -5.07326735761904        3.48552441720325       -0.54324057797352
H           -6.13553739879724        3.81490590431170        1.65773371137097
H           -8.30767292281981        4.72781389469044        2.38210833640338
H          -10.36580008595963        3.42002020595619        2.16251453232551
H          -10.31299782308895        1.13098011227840        1.22841320182363
H           -9.57168685650647       -1.27756168685930        0.12866422238305
H           -8.33407061473504       -3.17857288120480       -0.85580207892428
H           -5.92037985649229       -3.03264159015618       -1.24237193768119
H           -4.65365473714327       -1.00677711815398       -0.63920882763645
H           -3.84790868457986       -0.07224969942892        1.47773785168248
H           -1.49523805845405        0.60435682729712        1.24596328393230
H            1.58240095294529       -0.41272226309154        0.05055628774942
H            4.75711947826515       -5.52195723278445        1.41553794487462
H            6.63426105269638       -5.14052050549441        2.98903903773589

          :  Hamiltonian                  GFN2-xTB          :
         :: gradient norm              0.000152715738 Eh/a0 ::
         :: HOMO-LUMO gap              1.968923021105 eV    ::
         :: SCC energy              -158.550896151590 Eh    ::
         :: -> dispersion             -0.142961298129 Eh    ::
         :: repulsion energy           2.920961995792 Eh    ::

    * Orbital Energies and Occupations

         #    Occupation            Energy/Eh            Energy/eV
      -------------------------------------------------------------
         1        2.0000           -0.6831358             -18.5891
       ...           ...                  ...                  ...
       133        2.0000           -0.4103250             -11.1655
       134        2.0000           -0.4078297             -11.0976
       135        2.0000           -0.4065874             -11.0638
       136        2.0000           -0.4049045             -11.0180
       137        2.0000           -0.4034485             -10.9784
       138        2.0000           -0.4031973             -10.9716
       139        2.0000           -0.3932558             -10.7010
       140        2.0000           -0.3769508             -10.2574
       141        2.0000           -0.3766534             -10.2493
       142        2.0000           -0.3706857             -10.0869
       143        2.0000           -0.3701879             -10.0733
       144        2.0000           -0.3627845              -9.8719
       145        2.0000           -0.3587070              -9.7609 (HOMO)
       146                         -0.2863504              -7.7920 (LUMO)
       147                         -0.2856258              -7.7723
       148                         -0.2580856              -7.0229
       149                         -0.2482251              -6.7545
       150                         -0.2434490              -6.6246
       151                         -0.2430564              -6.6139
       152                         -0.2410537              -6.5594
       153                         -0.2333435              -6.3496
       154                         -0.2291131              -6.2345
       155                         -0.2283227              -6.2130
       156                         -0.2216130              -6.0304
       ...                                ...                  ...
       285                          0.7479910              20.3539
      -------------------------------------------------------------
                  HL-Gap            0.0723566 Eh            1.9689 eV

     #   Z          covCN         q      C6AA      α(0)
     1   6 C        2.920    -0.023    28.591     8.769
     2   6 C        2.918    -0.027    28.684     8.783
     3   6 C        2.924    -0.023    28.571     8.766
     4   6 C        2.984    -0.000    28.023     8.683
     5   6 C        2.982     0.203    23.701     7.986
     6   7 N        1.844    -0.295    28.484     7.910
     7   6 C        2.983     0.203    23.702     7.986
     8   6 C        2.984    -0.000    28.024     8.684
     9   6 C        2.924    -0.023    28.588     8.768
    10   6 C        2.918    -0.027    28.684     8.783
    11   6 C        2.920    -0.023    28.586     8.768
    12   6 C        2.918    -0.027    28.684     8.783
    13   6 C        2.924    -0.023    28.587     8.768
    14   7 N        1.844    -0.295    28.492     7.911
    15   6 C        2.984     0.202    23.704     7.986
    16   6 C        2.983    -0.001    28.037     8.686
    17   6 C        2.923    -0.025    28.636     8.775
    18   6 C        2.918    -0.028    28.704     8.786
    19   6 C        2.923    -0.027    28.675     8.781
    20   6 C        2.977     0.015    27.679     8.630
    21   6 C        2.981     0.007    27.854     8.657
    22   6 C        2.929    -0.049    29.224     8.865
    23   6 C        2.911     0.063    26.583     8.454
    24   7 N        2.802    -0.043    22.064     6.976
    25   6 C        3.073     0.046    26.886     8.502
    26   6 C        2.910    -0.050    29.235     8.866
    27   6 C        2.924    -0.034    28.851     8.808
    28   6 C        2.920    -0.041    29.011     8.833
    29   6 C        2.912    -0.033    28.818     8.803
    30   6 C        3.068    -0.017    28.359     8.732
    31   6 C        3.068    -0.017    28.357     8.732
    32   6 C        2.913    -0.033    28.817     8.803
    33   6 C        2.920    -0.041    29.013     8.833
    34   6 C        2.924    -0.034    28.838     8.806
    35   6 C        2.910    -0.051    29.268     8.871
    36   6 C        3.073     0.047    26.881     8.501
    37   6 C        2.920    -0.046    29.149     8.854
    38   6 C        2.924    -0.034    28.854     8.809
    39   6 C        2.979     0.002    27.973     8.676
    40   6 C        2.977     0.009    27.803     8.649
    41   6 C        2.924    -0.034    28.858     8.810
    42   6 C        2.920    -0.044    29.091     8.845
    43   6 C        2.914     0.063    26.588     8.455
    44   7 N        2.803    -0.044    22.086     6.980
    45   6 C        3.075     0.047    26.877     8.500
    46   6 C        2.910    -0.051    29.267     8.871
    47   6 C        2.924    -0.034    28.837     8.806
    48   6 C        2.920    -0.041    29.019     8.834
    49   6 C        2.913    -0.033    28.817     8.803
    50   6 C        3.068    -0.017    28.366     8.733
    51   6 C        3.068    -0.017    28.364     8.733
    52   6 C        2.913    -0.033    28.820     8.803
    53   6 C        2.920    -0.041    29.018     8.834
    54   6 C        2.924    -0.033    28.832     8.806
    55   6 C        2.909    -0.051    29.260     8.870
    56   6 C        3.077     0.046    26.879     8.500
    57   6 C        2.921    -0.043    29.064     8.841
    58   6 C        2.924    -0.031    28.775     8.797
    59   6 C        2.933    -0.030    28.751     8.794
    60   7 N        1.845    -0.296    28.531     7.916
    61   6 C        2.924    -0.023    28.582     8.767
    62   6 C        2.918    -0.027    28.680     8.782
    63   1 H        0.926     0.037     2.492     2.469
    64   1 H        0.926     0.037     2.483     2.464
    65   1 H        0.926     0.053     2.278     2.360
    66   1 H        0.926     0.055     2.256     2.349
    67   1 H        0.926     0.037     2.490     2.468
    68   1 H        0.926     0.037     2.492     2.469
    69   1 H        0.926     0.037     2.490     2.468
    70   1 H        0.926     0.055     2.255     2.348
    71   1 H        0.926     0.056     2.251     2.346
    72   1 H        0.926     0.037     2.485     2.465
    73   1 H        0.926     0.035     2.515     2.480
    74   1 H        0.926     0.046     2.377     2.411
    75   1 H        0.926     0.027     2.625     2.533
    76   1 H        0.926     0.031     2.566     2.505
    77   1 H        0.926     0.027     2.628     2.535
    78   1 H        0.926     0.031     2.579     2.511
    79   1 H        0.926     0.031     2.576     2.510
    80   1 H        0.926     0.028     2.619     2.530
    81   1 H        0.926     0.029     2.607     2.525
    82   1 H        0.926     0.027     2.627     2.535
    83   1 H        0.926     0.042     2.416     2.431
    84   1 H        0.926     0.038     2.478     2.462
    85   1 H        0.926     0.036     2.500     2.473
    86   1 H        0.926     0.041     2.431     2.438
    87   1 H        0.926     0.026     2.637     2.539
    88   1 H        0.926     0.028     2.609     2.526
    89   1 H        0.926     0.028     2.621     2.532
    90   1 H        0.926     0.031     2.578     2.511
    91   1 H        0.926     0.031     2.576     2.510
    92   1 H        0.926     0.028     2.618     2.530
    93   1 H        0.926     0.029     2.605     2.524
    94   1 H        0.926     0.026     2.637     2.540
    95   1 H        0.926     0.041     2.431     2.438
    96   1 H        0.926     0.035     2.514     2.479
    97   1 H        0.926     0.056     2.252     2.346
    98   1 H        0.926     0.055     2.262     2.352
    99   1 H        0.926     0.037     2.490     2.468

molecular dipole:
                 x           y           z       tot (Debye)
 q only:        0.107      -0.066       0.036
   full:        0.111      -0.082       0.028       0.359

 projected vibrational frequencies (cm⁻¹)
eigval :       -0.00    -0.00    -0.00     0.00     0.00     0.00
eigval :        6.34    10.07    12.17    13.65    15.83    19.18
eigval :       20.98    33.02    34.43    39.61    43.96    51.30
eigval :       56.70    61.30    75.34    78.91    85.19    92.86
eigval :       93.83   100.83   104.89   108.13   114.42   141.49
eigval :      145.93   155.85   172.93   180.04   182.03   188.52
eigval :      190.72   214.98   227.60   234.28   239.00   252.10
eigval :      256.72   271.82   272.00   275.60   285.03   290.16
eigval :      322.12   329.59   362.01   364.50   367.03   380.71
eigval :      384.91   391.12   394.06   397.74   399.62   405.51
eigval :      412.76   417.85   420.64   423.78   428.43   434.84
eigval :      438.08   448.48   472.06   504.02   513.02   518.04
eigval :      519.83   530.78   533.71   541.34   541.40   544.89
eigval :      557.34   567.29   582.87   587.15   587.56   588.73
eigval :      596.05   602.65   611.25   613.39   614.67   618.06
eigval :      627.02   635.49   652.41   659.54   664.50   672.68
eigval :      673.99   674.32   674.67   683.12   693.67   702.61
eigval :      708.90   710.20   715.17   747.38   752.45   755.53
eigval :      759.32   769.96   770.04   776.05   781.27   781.53
eigval :      793.84   796.56   807.88   820.58   840.91   847.31
eigval :      867.51   867.58   873.91   874.82   876.26   878.23
eigval :      880.27   881.53   888.68   897.46   898.33   900.43
eigval :      902.33   902.84   903.70   907.46   909.71   910.78
eigval :      912.06   918.85   920.52   921.70   925.82   926.15
eigval :      928.15   929.90   930.61   931.55   932.59   933.79
eigval :      935.28   937.73   963.25   989.33   990.84   994.06
eigval :     1000.99  1012.14  1012.62  1036.20  1049.12  1070.38
eigval :     1071.22  1074.08  1074.60  1075.26  1076.13  1089.16
eigval :     1095.19  1107.95  1111.59  1117.88  1119.18  1120.74
eigval :     1135.85  1148.83  1153.05  1155.12  1164.24  1166.95
eigval :     1176.79  1177.01  1179.39  1180.98  1181.44  1183.07
eigval :     1183.44  1186.51  1187.34  1195.28  1202.61  1204.45
eigval :     1206.86  1234.78  1236.90  1237.36  1242.79  1245.76
eigval :     1250.25  1267.09  1267.60  1268.97  1273.03  1289.71
eigval :     1300.18  1302.60  1304.25  1305.35  1313.06  1315.17
eigval :     1327.38  1328.59  1329.75  1356.18  1357.93  1359.93
eigval :     1362.27  1363.66  1365.34  1372.28  1373.43  1377.14
eigval :     1402.20  1413.42  1423.92  1428.09  1428.69  1432.39
eigval :     1434.29  1435.41  1439.60  1468.30  1470.49  1476.32
eigval :     1476.75  1477.97  1482.77  1488.36  1488.51  1508.20
eigval :     1514.43  1519.60  1551.18  1563.06  1574.99  1575.27
eigval :     1577.07  1583.79  1585.84  1586.38  1588.82  1589.24
eigval :     1591.58  1595.06  1595.80  1598.92  1599.19  1599.51
eigval :     1614.94  1615.30  3073.25  3074.45  3074.81  3075.69
eigval :     3076.16  3077.21  3077.41  3078.15  3079.69  3079.72
eigval :     3080.71  3080.81  3081.47  3082.07  3084.04  3086.16
eigval :     3087.01  3088.88  3089.03  3089.64  3090.02  3090.54
eigval :     3090.98  3093.34  3093.53  3094.62  3095.95  3096.34
eigval :     3097.96  3098.27  3098.84  3104.01  3106.61  3107.09
eigval :     3107.88  3108.75  3111.42

   temp. (K)  partition function   enthalpy   heat capacity  entropy
                                   cal/mol     cal/K/mol   cal/K/mol   J/K/mol
 298.15  VIB  0.834E+24            28724.222    179.158    181.176
         ROT  0.221E+09              888.752      2.981     41.163
         INT  0.184E+33            29612.974    182.138    222.339
         TR   0.216E+29             1481.254      4.968     45.865
         TOT                       31094.2283   187.1066   268.2043  1122.1668

       T/K    H(0)-H(T)+PV         H(T)/Eh          T*S/Eh         G(T)/Eh
   ------------------------------------------------------------------------
    298.15    0.495518E-01    0.806639E+00    0.127433E+00    0.679207E+00
   ------------------------------------------------------------------------

         :::::::::::::::::::::::::::::::::::::::::::::::::::::
         ::                  THERMODYNAMIC                  ::
         :::::::::::::::::::::::::::::::::::::::::::::::::::::
         :: total free energy        -154.950727348634 Eh   ::
         ::.................................................::
         :: total energy             -155.629934155797 Eh   ::
         :: zero point energy           0.757087524119 Eh   ::
         :: G(RRHO) w/o ZPVE           -0.077880716956 Eh   ::
         :: G(RRHO) contrib.            0.679206807163 Eh   ::
         :::::::::::::::::::::::::::::::::::::::::::::::::::::

           -------------------------------------------------
          | TOTAL ENERGY             -155.629934155797 Eh   |
          | TOTAL ENTHALPY           -154.823294824749 Eh   |
          | TOTAL FREE ENERGY        -154.950727348634 Eh   |
          | GRADIENT NORM               0.000152723174 Eh/α |
          | HOMO-LUMO GAP               1.968922394265 eV   |
           -------------------------------------------------

 * finished run on 2025/08/22 at 07:20:19.074
