   * xtb version 6.7.1 (edcfbbe) compiled by 'albert@albert-system' on 2024-07-22

   ID    Z sym.   atoms
    1    6 C      1-6, 8-18, 20, 21, 23, 25-40, 42-44, 46
    2    8 O      7, 41
    3    7 N      19, 22, 24, 45
    4    1 H      47-68

          program call               : xtb data2507/toluene/BFCZPZ1/BFCZPZ1.xyz --gfn 2 --gbsa toluene --ohess vtight --parallel 40 --molden --ceasefiles --namespace data2507/toluene/BFCZPZ1/BFCZPZ1_toluene_S0_preOpt
      * Solvation model:               GBSA
        Solvent                        toluene
        Solvent mass                       9.2140E+01 g/mol
          :  Hamiltonian                  GFN2-xTB          :
 * total energy  :  -116.8151602 Eh     change       -0.1196810E-08 Eh
 * total energy  :  -116.8583136 Eh     change       -0.4315338E-01 Eh
 * total energy  :  -116.8738794 Eh     change       -0.1556585E-01 Eh
 * total energy  :  -116.8777540 Eh     change       -0.3874536E-02 Eh
 * total energy  :  -116.8791038 Eh     change       -0.1349818E-02 Eh
 * total energy  :  -116.8792242 Eh     change       -0.1203600E-03 Eh
 * total energy  :  -116.8792890 Eh     change       -0.6482220E-04 Eh
 * total energy  :  -116.8793161 Eh     change       -0.2711780E-04 Eh
 * total energy  :  -116.8793291 Eh     change       -0.1303927E-04 Eh
 * total energy  :  -116.8793544 Eh     change       -0.2527604E-04 Eh
 * total energy  :  -116.8798166 Eh     change       -0.6855030E-06 Eh
 * total energy  :  -116.8798172 Eh     change       -0.6538378E-06 Eh
 * total energy  :  -116.8798178 Eh     change       -0.6036801E-06 Eh
 * total energy  :  -116.8798184 Eh     change       -0.6022095E-06 Eh
 * total energy  :  -116.8798191 Eh     change       -0.6728704E-06 Eh
 * total energy  :  -116.8798199 Eh     change       -0.8053249E-06 Eh
 * total energy  :  -116.8798208 Eh     change       -0.9387478E-06 Eh
 * total energy  :  -116.8798218 Eh     change       -0.9742497E-06 Eh
 * total energy  :  -116.8798218 Eh     change       -0.3132257E-08 Eh
   *** GEOMETRY OPTIMIZATION CONVERGED AFTER 68 ITERATIONS ***

 final structure:
================
68
 xtb: 6.7.1 (edcfbbe)
C            3.86280574646576       -3.91425756909052        3.23933094732254
C            5.21360846477198       -3.58689414573094        3.33336425635316
C            5.74051948679269       -2.51006117874157        2.64742200224670
C            4.88758153837675       -1.75430157735411        1.85196654717954
C            3.52504136906711       -2.09857675219723        1.76923192956584
C            2.99372530658486       -3.17538412012709        2.45530745383495
O            2.84387316962531       -1.25133094883657        0.94105845608366
C            3.76634347703859       -0.35532518424842        0.47481391750976
C            5.04746071104497       -0.60065433935988        1.00592874750053
C            6.13582911131256        0.21624255940124        0.69339096121723
C            5.94524831608184        1.29625762054623       -0.13801654750644
C            4.67926423568525        1.54551867302699       -0.67057779849791
C            4.17972467142860        2.60476466975158       -1.50458518553861
C            4.78213741335546        3.71046553793528       -2.09286694760540
C            4.00344320048256        4.55980994449509       -2.85343918943585
C            2.64357017326699        4.31660618509015       -3.03259180698665
C            2.02298450062232        3.22319097501472       -2.45633082391667
C            2.79994780707930        2.37163603649634       -1.68745399351436
N            2.44443845927838        1.19609715352820       -1.03343469187617
C            1.20477701271087        0.58583848888254       -1.08212169317474
C            1.05800424334277       -0.80449615567824       -1.15250297543970
N           -0.12827726649190       -1.37361478130528       -1.13827761414762
C           -1.20478148655042       -0.58583046348642       -1.08212162463144
N           -2.44444320947748       -1.19608910524291       -1.03343700921011
C           -2.79995531686517       -2.37162188755024       -1.68746559066327
C           -2.02299520065743       -3.22317026951303       -2.45635303104365
C           -2.64358157241318       -4.31658563457644       -3.03261323086683
C           -4.00345172485046       -4.55979638013699       -2.85344834047315
C           -4.78214308657065       -3.71045732966595       -2.09286723469822
C           -4.17972984209447       -2.60475616419214       -1.50458655205825
C           -4.67926807300222       -1.54551190268311       -0.67057621545670
C           -5.94525061259582       -1.29625286398116       -0.13801039348671
C           -6.13582869237573       -0.21624204651792        0.69340338088136
C           -5.04745821074341        0.60065057376530        1.00594566718756
C           -4.88757349510815        1.75428585905459        1.85199882272815
C           -5.74050642285948        2.51003467526697        2.64746981734137
C           -5.21359242475939        3.58686205272736        3.33341835616195
C           -3.86279127937580        3.91422936367809        3.23937776034602
C           -2.99371584826674        3.17536728546781        2.45533812934188
C           -3.52503518416868        2.09856640490014        1.76925485993194
O           -2.84387014211087        1.25132565231317        0.94107356736678
C           -3.76634190719496        0.35532175149894        0.47482845115054
C           -3.57596148212703       -0.70421608227643       -0.39902098414335
C           -1.05800906235321        0.80450467214794       -1.15249286460369
N            0.12827245106689        1.37362320416130       -1.13826757331232
C            3.57595955144400        0.70421880631574       -0.39902734008889
H            3.48396950777383       -4.76335877506086        3.78765826524851
H            5.85824079681169       -4.18951413881090        3.95536805184508
H            6.78699049489053       -2.25841215856913        2.72093577024906
H            1.94661106723073       -3.42110767439394        2.37316601499603
H            7.10437022303862        0.00324991755448        1.11642438581353
H            6.76242002358317        1.95838607499401       -0.37610566374957
H            5.83640080315465        3.89503262525480       -1.95632691875136
H            4.45092958557508        5.42583488676963       -3.31761541369991
H            2.05859749387933        4.99687589282238       -3.63340638104751
H            0.96888783483499        3.04050300188905       -2.58815748036413
H            1.90215636188109       -1.47018177275420       -1.25271404605519
H           -0.96889801393433       -3.04048406441859       -2.58817838692394
H           -2.05861241765842       -4.99684722073709       -3.63344063352657
H           -4.45094380400113       -5.42580747240838       -3.31764511620853
H           -5.83640904189025       -3.89501712609978       -1.95633723384232
H           -6.76242138059887       -1.95838450173074       -0.37609381284169
H           -7.10436562931858       -0.00325896948004        1.11645117567139
H           -6.78698013126684        2.25839387462963        2.72097430802264
H           -5.85822628639946        4.18948942880143        3.95541344882602
H           -3.48395519658782        4.76333382618794        3.78770033179996
H           -1.94660182221814        3.42109147188157        2.37319434341670
H           -1.90216134268937        1.47019061068379       -1.25270078775882

          :  Hamiltonian                  GFN2-xTB          :
         :: gradient norm              0.000046700284 Eh/a0 ::
         :: HOMO-LUMO gap              2.265355153222 eV    ::
         :: SCC energy              -118.902589104139 Eh    ::
         :: -> dispersion             -0.098039425377 Eh    ::
         :: -> Gsolv                  -0.049698284697 Eh    ::
         :: repulsion energy           2.022767288889 Eh    ::

    * Orbital Energies and Occupations

         #    Occupation            Energy/Eh            Energy/eV
      -------------------------------------------------------------
         1        2.0000           -0.7472819             -20.3346
       ...           ...                  ...                  ...
        95        2.0000           -0.4285600             -11.6617
        96        2.0000           -0.4255000             -11.5784
        97        2.0000           -0.4210417             -11.4571
        98        2.0000           -0.4195980             -11.4178
        99        2.0000           -0.4142088             -11.2712
       100        2.0000           -0.4141940             -11.2708
       101        2.0000           -0.4041229             -10.9967
       102        2.0000           -0.4013793             -10.9221
       103        2.0000           -0.3884501             -10.5703
       104        2.0000           -0.3833440             -10.4313
       105        2.0000           -0.3833301             -10.4309
       106        2.0000           -0.3737612             -10.1706
       107        2.0000           -0.3712344             -10.1018 (HOMO)
       108                         -0.2879841              -7.8364 (LUMO)
       109                         -0.2724678              -7.4142
       110                         -0.2654981              -7.2246
       111                         -0.2550906              -6.9414
       112                         -0.2381034              -6.4791
       113                         -0.2377559              -6.4697
       114                         -0.2315770              -6.3015
       115                         -0.2314673              -6.2985
       116                         -0.2215423              -6.0285
       117                         -0.2192591              -5.9663
       118                         -0.2065547              -5.6206
       ...                                ...                  ...
       206                          0.7477425              20.3471
      -------------------------------------------------------------
                  HL-Gap            0.0832503 Eh            2.2654 eV

     #   Z          covCN         q      C6AA      α(0)
     1   6 C        2.927    -0.032    28.794     8.800
     2   6 C        2.920    -0.037    28.929     8.820
     3   6 C        2.913    -0.034    28.845     8.807
     4   6 C        3.057    -0.019    28.420     8.743
     5   6 C        3.090     0.127    25.128     8.216
     6   6 C        2.908    -0.053    29.320     8.879
     7   8 O        1.713    -0.257    18.258     5.769
     8   6 C        3.082     0.108    25.531     8.283
     9   6 C        3.052    -0.024    28.545     8.762
    10   6 C        2.913    -0.044    29.086     8.844
    11   6 C        2.914    -0.042    29.034     8.836
    12   6 C        3.062    -0.018    28.392     8.738
    13   6 C        3.069    -0.013    28.276     8.719
    14   6 C        2.913    -0.033    28.818     8.803
    15   6 C        2.920    -0.037    28.931     8.820
    16   6 C        2.925    -0.032    28.789     8.799
    17   6 C        2.910    -0.047    29.171     8.856
    18   6 C        3.067     0.052    26.760     8.482
    19   7 N        2.799    -0.050    22.204     6.998
    20   6 C        2.893     0.148    24.786     8.163
    21   6 C        2.901     0.048    26.931     8.509
    22   7 N        1.847    -0.248    27.314     7.746
    23   6 C        2.893     0.148    24.786     8.163
    24   7 N        2.799    -0.050    22.204     6.998
    25   6 C        3.067     0.052    26.760     8.482
    26   6 C        2.910    -0.047    29.171     8.856
    27   6 C        2.925    -0.032    28.789     8.799
    28   6 C        2.920    -0.037    28.931     8.820
    29   6 C        2.913    -0.033    28.818     8.803
    30   6 C        3.069    -0.013    28.276     8.719
    31   6 C        3.062    -0.018    28.392     8.738
    32   6 C        2.914    -0.042    29.034     8.836
    33   6 C        2.913    -0.044    29.086     8.844
    34   6 C        3.052    -0.024    28.545     8.762
    35   6 C        3.057    -0.019    28.420     8.743
    36   6 C        2.913    -0.034    28.845     8.807
    37   6 C        2.920    -0.037    28.929     8.820
    38   6 C        2.927    -0.032    28.794     8.800
    39   6 C        2.908    -0.053    29.320     8.879
    40   6 C        3.090     0.127    25.128     8.216
    41   8 O        1.713    -0.257    18.258     5.769
    42   6 C        3.082     0.108    25.531     8.283
    43   6 C        3.059     0.024    27.403     8.585
    44   6 C        2.901     0.048    26.931     8.509
    45   7 N        1.847    -0.248    27.314     7.746
    46   6 C        3.059     0.024    27.403     8.585
    47   1 H        0.926     0.048     2.344     2.394
    48   1 H        0.926     0.047     2.357     2.401
    49   1 H        0.926     0.048     2.345     2.395
    50   1 H        0.926     0.044     2.391     2.418
    51   1 H        0.926     0.051     2.312     2.378
    52   1 H        0.926     0.052     2.293     2.368
    53   1 H        0.926     0.045     2.385     2.415
    54   1 H        0.926     0.042     2.417     2.431
    55   1 H        0.926     0.042     2.422     2.433
    56   1 H        0.926     0.045     2.388     2.416
    57   1 H        0.926     0.048     2.341     2.393
    58   1 H        0.926     0.045     2.388     2.416
    59   1 H        0.926     0.042     2.422     2.433
    60   1 H        0.926     0.042     2.417     2.431
    61   1 H        0.926     0.045     2.385     2.415
    62   1 H        0.926     0.052     2.293     2.368
    63   1 H        0.926     0.051     2.312     2.378
    64   1 H        0.926     0.048     2.345     2.395
    65   1 H        0.926     0.047     2.357     2.401
    66   1 H        0.926     0.048     2.344     2.394
    67   1 H        0.926     0.044     2.391     2.418
    68   1 H        0.926     0.048     2.341     2.393

molecular dipole:
                 x           y           z       tot (Debye)
 q only:        0.000       0.000       0.099
   full:        0.000       0.000       0.135       0.343

 projected vibrational frequencies (cm⁻¹)
eigval :       -0.00    -0.00    -0.00    -0.00     0.00     0.00
eigval :       10.66    13.42    19.45    32.93    35.14    50.26
eigval :       50.55    88.30    95.04   104.39   106.42   111.45
eigval :      124.92   137.41   140.17   152.72   154.42   177.29
eigval :      214.94   240.26   252.17   255.67   261.70   274.74
eigval :      281.05   297.22   298.40   314.26   329.21   333.89
eigval :      334.00   385.86   398.51   405.95   407.16   407.73
eigval :      417.50   436.70   442.98   464.59   475.25   484.00
eigval :      492.69   500.21   500.53   508.59   533.41   535.04
eigval :      550.58   551.66   554.03   554.24   558.61   566.05
eigval :      594.08   601.38   603.74   610.66   618.90   619.97
eigval :      640.84   652.46   667.56   675.44   675.62   700.71
eigval :      700.99   711.33   711.34   726.18   727.26   739.80
eigval :      741.02   773.66   773.76   775.19   775.52   787.71
eigval :      804.87   822.33   822.35   842.48   843.53   849.73
eigval :      870.14   870.23   872.80   872.96   889.23   896.65
eigval :      896.68   901.85   902.03   902.10   902.20   903.67
eigval :      903.73   913.76   921.16   921.17   921.54   921.55
eigval :      931.76   952.82   972.66  1032.78  1060.48  1060.51
eigval :     1068.85  1069.04  1087.62  1088.76  1090.02  1092.98
eigval :     1142.52  1142.56  1145.46  1145.48  1170.23  1170.34
eigval :     1176.59  1176.65  1178.54  1179.41  1193.50  1197.19
eigval :     1203.17  1205.76  1226.40  1228.89  1232.95  1241.68
eigval :     1243.09  1245.13  1266.40  1272.45  1288.96  1292.45
eigval :     1292.70  1308.56  1319.06  1349.32  1349.50  1351.71
eigval :     1353.45  1381.97  1384.34  1392.35  1392.72  1398.94
eigval :     1399.07  1410.13  1414.85  1417.13  1432.10  1442.53
eigval :     1467.64  1467.89  1472.63  1472.64  1478.82  1479.46
eigval :     1498.02  1567.46  1567.68  1574.23  1584.70  1585.52
eigval :     1589.97  1590.20  1600.98  1601.34  1608.93  1609.21
eigval :     1611.91  1613.05  3076.76  3078.64  3079.97  3079.97
eigval :     3083.61  3083.61  3087.97  3087.98  3090.48  3090.49
eigval :     3097.71  3097.76  3098.24  3098.28  3100.02  3100.04
eigval :     3103.38  3103.39  3110.06  3110.11  3112.03  3112.04

   temp. (K)  partition function   enthalpy   heat capacity  entropy
                                   cal/mol     cal/K/mol   cal/K/mol   J/K/mol
 298.15  VIB  0.575E+14            18966.591    126.076    114.883
         ROT  0.352E+08              888.752      2.981     37.515
         INT  0.203E+22            19855.343    129.057    152.398
         TR   0.139E+29             1481.254      4.968     44.992
         TOT                       21336.5968   134.0253   197.3895   825.8779

       T/K    H(0)-H(T)+PV         H(T)/Eh          T*S/Eh         G(T)/Eh
   ------------------------------------------------------------------------
    298.15    0.340020E-01    0.534259E+00    0.937861E-01    0.440473E+00
   ------------------------------------------------------------------------

         :::::::::::::::::::::::::::::::::::::::::::::::::::::
         ::                  THERMODYNAMIC                  ::
         :::::::::::::::::::::::::::::::::::::::::::::::::::::
         :: total free energy        -116.439348917244 Eh   ::
         ::.................................................::
         :: total energy             -116.879821813945 Eh   ::
         :: zero point energy           0.500257008635 Eh   ::
         :: G(RRHO) w/o ZPVE           -0.059784111934 Eh   ::
         :: G(RRHO) contrib.            0.440472896701 Eh   ::
         :::::::::::::::::::::::::::::::::::::::::::::::::::::

           -------------------------------------------------
          | TOTAL ENERGY             -116.879821813945 Eh   |
          | TOTAL ENTHALPY           -116.345562773929 Eh   |
          | TOTAL FREE ENERGY        -116.439348917244 Eh   |
          | GRADIENT NORM               0.000046699934 Eh/α |
          | HOMO-LUMO GAP               2.265355188027 eV   |
           -------------------------------------------------

 * finished run on 2025/08/21 at 19:40:30.865
