   * xtb version 6.7.1 (edcfbbe) compiled by 'albert@albert-system' on 2024-07-22

   ID    Z sym.   atoms
    1    6 C      1-6, 8-18, 20, 21, 23, 25-40, 42-44, 46
    2    8 O      7, 41
    3    7 N      19, 22, 24, 45
    4    1 H      47-68

          program call               : xtb data2507/toluene/BFCZPZ1/BFCZPZ1_toluene_S0_finalOpt.xtbopt.xyz --gfn 2 --uhf 2 --gbsa toluene --ohess vtight --parallel 40 --molden --ceasefiles --namespace data2507/toluene/BFCZPZ1/BFCZPZ1_toluene_T1_preOpt
      * Solvation model:               GBSA
        Solvent                        toluene
        Solvent mass                       9.2140E+01 g/mol
          :  Hamiltonian                  GFN2-xTB          :
 * total energy  :  -116.7951278 Eh     change       -0.4779750E-08 Eh
 * total energy  :  -116.7980113 Eh     change       -0.2883448E-02 Eh
 * total energy  :  -116.7986626 Eh     change       -0.6513666E-03 Eh
 * total energy  :  -116.7987904 Eh     change       -0.1277528E-03 Eh
 * total energy  :  -116.7988543 Eh     change       -0.6390894E-04 Eh
 * total energy  :  -116.7988677 Eh     change       -0.1340955E-04 Eh
 * total energy  :  -116.7988782 Eh     change       -0.1051123E-04 Eh
 * total energy  :  -116.7988830 Eh     change       -0.4791883E-05 Eh
 * total energy  :  -116.7988859 Eh     change       -0.2861321E-05 Eh
 * total energy  :  -116.7988875 Eh     change       -0.1673885E-05 Eh
 * total energy  :  -116.7989167 Eh     change       -0.1887579E-06 Eh
 * total energy  :  -116.7989169 Eh     change       -0.2096920E-06 Eh
 * total energy  :  -116.7989171 Eh     change       -0.2108543E-06 Eh
 * total energy  :  -116.7989173 Eh     change       -0.2195110E-06 Eh
 * total energy  :  -116.7989175 Eh     change       -0.1457180E-06 Eh
 * total energy  :  -116.7989177 Eh     change       -0.2321717E-06 Eh
 * total energy  :  -116.7989179 Eh     change       -0.1472662E-06 Eh
 * total energy  :  -116.7989181 Eh     change       -0.2074400E-06 Eh
 * total energy  :  -116.7989181 Eh     change       -0.5017947E-07 Eh
   *** GEOMETRY OPTIMIZATION CONVERGED AFTER 68 ITERATIONS ***

 final structure:
================
68
 xtb: 6.7.1 (edcfbbe)
C            5.73497585999394       -4.14190394422770        0.33670576386682
C            6.96450672528476       -3.50373349775904        0.19297659634370
C            7.05008443421146       -2.13230870477587        0.05156477603292
C            5.87154862718225       -1.39423907077441        0.05521958418664
C            4.63666275660666       -2.05625480268771        0.20232333934785
C            4.54777801833801       -3.42791281785908        0.34459997675752
O            3.59152066519112       -1.17321954723148        0.18222695502102
C            4.14369288725567        0.06354102806987        0.02445462538200
C            5.55073503999090        0.00251505266319       -0.05763387926840
C            6.32295247909985        1.15967073913277       -0.19276889652030
C            5.69804607831610        2.38819041996800       -0.22293309985707
C            4.30875212111235        2.46154075351839       -0.13375264086102
C            3.40080885042489        3.57336018834350       -0.07768996630844
C            3.57363929050077        4.95089748502792       -0.11754077083911
C            2.45571372152340        5.76100013143753       -0.03502962881199
C            1.17806313837274        5.21846736178375        0.08982831719374
C            0.98055378333523        3.84946279212280        0.13086622783376
C            2.09866574083157        3.03493071706952        0.05097239590779
N            2.17336598929843        1.64982142749881        0.05895569404182
C            1.09717176329007        0.79319693923371        0.05934033227054
C            1.04403033930310       -0.30872120921482       -0.77732629587065
N           -0.01340878912293       -1.09733477217065       -0.86887629645588
C           -1.09181733498300       -0.78793687877979       -0.07857700200072
N           -2.16740812685999       -1.64441153629884       -0.08624901711614
C           -2.08825036793033       -3.02909358854678       -0.12981819175145
C           -0.96910105646120       -3.83761590896099       -0.24936670339546
C           -1.16332378843282       -5.20763188326809       -0.26362651974547
C           -2.43867020065058       -5.75836033495769       -0.15172982628349
C           -3.55737333163169       -4.95485851948573       -0.02733718884836
C           -3.38758950237370       -3.57641967578956       -0.01174049872732
C           -4.29845535292594       -2.47103435108798        0.09317339828030
C           -5.68731097753202       -2.40938354905444        0.19695539244629
C           -6.31918338512681       -1.18451131607101        0.21757030147275
C           -5.55394752621195       -0.01921854872485        0.11748861087485
C           -5.88433081568740        1.37850136104326        0.06112424580081
C           -7.06693089583575        2.10867396281141        0.10767627504089
C           -6.99061274364262        3.48520090172153        0.02154585960310
C           -5.76634547638773        4.13629057151528       -0.10890750920813
C           -4.57539826765185        3.43033594287504       -0.15952509774337
C           -4.65510195615068        2.05352062428700       -0.07269912387398
O           -3.60486250550589        1.17688668061787       -0.09797302266857
C           -4.14720284814469       -0.06886848945891        0.01976126734260
C           -3.50178155853326       -1.29657994974596        0.03150698822331
C           -1.03518074354261        0.31009842754784        0.76317253981361
N            0.01996413343278        1.10270867061094        0.84989235634183
C            3.50642838357521        1.29374736305725       -0.03656953774997
H            5.70410873873665       -5.21537060103977        0.44502398665049
H            7.86713521003086       -4.09613228482573        0.19285602773834
H            8.00376251013676       -1.64034281460786       -0.05888571598827
H            3.59116718482669       -3.91287837177988        0.45748059595462
H            7.39646852922016        1.08182548099243       -0.25503957385910
H            6.27587898842906        3.29532123004630       -0.30239185214120
H            4.56068473587891        5.37640566526378       -0.21041342777094
H            2.57106406933953        6.83392252045831       -0.06865903255038
H            0.32571894347379        5.87797906358946        0.15214530486464
H           -0.00413269343306        3.42058055008717        0.22978598465864
H            1.84448215577727       -0.50568105106039       -1.47471287359278
H            0.01409408291331       -3.40328676614553       -0.33825539362273
H           -0.30980017988266       -5.86157046517208       -0.35956352222706
H           -2.55147528284615       -6.83204179285255       -0.16217776489559
H           -4.54294447566320       -5.38592089757726        0.05499755586168
H           -6.25890491632903       -3.32245657561249        0.24861411433872
H           -7.39241016463298       -1.11467315985719        0.29288718814452
H           -8.01650583275999        1.60691995253694        0.20907894451325
H           -7.89646241746668        4.07166599269248        0.05626883996456
H           -5.74258243820091        5.21350801899651       -0.17248953238415
H           -3.62280564818574        3.92533934680304       -0.26192860211657
H           -1.83066313631516        0.50252149603592        1.46709976375760

          :  Hamiltonian                  GFN2-xTB          :
         :: gradient norm              0.000140567681 Eh/a0 ::
         :: HOMO-LUMO gap              0.358341885224 eV    ::
         :: SCC energy              -118.810673309399 Eh    ::
         :: -> dispersion             -0.098795643878 Eh    ::
         :: -> Gsolv                  -0.050542899166 Eh    ::
         :: repulsion energy           2.011755198587 Eh    ::

    * Orbital Energies and Occupations

         #    Occupation            Energy/Eh            Energy/eV
      -------------------------------------------------------------
         1        2.0000           -0.7477284             -20.3467
       ...           ...                  ...                  ...
        96        2.0000           -0.4254194             -11.5763
        97        2.0000           -0.4216565             -11.4739
        98        2.0000           -0.4203782             -11.4391
        99        2.0000           -0.4151438             -11.2966
       100        2.0000           -0.4149604             -11.2916
       101        2.0000           -0.4039831             -10.9929
       102        2.0000           -0.4020009             -10.9390
       103        2.0000           -0.3841571             -10.4534
       104        2.0000           -0.3839461             -10.4477
       105        2.0000           -0.3835307             -10.4364
       106        1.9999           -0.3815814             -10.3834
       107        1.0001           -0.3631903              -9.8829
       108        0.9989           -0.2804886              -7.6325 (HOMO)
       109        0.0008           -0.2673196              -7.2741 (LUMO)
       110        0.0003           -0.2663218              -7.2470
       111                         -0.2478457              -6.7442
       112                         -0.2395643              -6.5189
       113                         -0.2391593              -6.5079
       114                         -0.2326272              -6.3301
       115                         -0.2324614              -6.3256
       116                         -0.2223739              -6.0511
       117                         -0.2191929              -5.9645
       118                         -0.2064186              -5.6169
       119                         -0.1969662              -5.3597
       ...                                ...                  ...
       206                          0.7472766              20.3344
      -------------------------------------------------------------
                  HL-Gap            0.0131689 Eh            0.3583 eV

     #   Z          covCN         q      C6AA      α(0)
     1   6 C        2.926    -0.033    28.828     8.805
     2   6 C        2.920    -0.037    28.921     8.819
     3   6 C        2.913    -0.035    28.868     8.810
     4   6 C        3.057    -0.019    28.429     8.744
     5   6 C        3.092     0.125    25.153     8.220
     6   6 C        2.908    -0.053    29.312     8.878
     7   8 O        1.714    -0.251    18.161     5.754
     8   6 C        3.081     0.115    25.393     8.261
     9   6 C        3.051    -0.025    28.589     8.769
    10   6 C        2.912    -0.041    29.029     8.835
    11   6 C        2.912    -0.039    28.975     8.827
    12   6 C        3.059    -0.019    28.423     8.743
    13   6 C        3.065    -0.012    28.246     8.715
    14   6 C        2.912    -0.031    28.778     8.797
    15   6 C        2.920    -0.033    28.828     8.805
    16   6 C        2.923    -0.033    28.823     8.804
    17   6 C        2.909    -0.040    28.982     8.828
    18   6 C        3.073     0.050    26.803     8.489
    19   7 N        2.797    -0.024    21.705     6.919
    20   6 C        2.879     0.125    25.256     8.239
    21   6 C        2.885     0.048    26.918     8.506
    22   7 N        1.840    -0.276    28.015     7.844
    23   6 C        2.879     0.125    25.258     8.239
    24   7 N        2.796    -0.023    21.695     6.918
    25   6 C        3.072     0.050    26.806     8.489
    26   6 C        2.909    -0.040    28.983     8.828
    27   6 C        2.923    -0.033    28.827     8.805
    28   6 C        2.919    -0.033    28.827     8.805
    29   6 C        2.912    -0.031    28.780     8.797
    30   6 C        3.065    -0.012    28.249     8.715
    31   6 C        3.060    -0.019    28.424     8.743
    32   6 C        2.912    -0.039    28.977     8.827
    33   6 C        2.912    -0.042    29.031     8.835
    34   6 C        3.051    -0.026    28.590     8.769
    35   6 C        3.056    -0.019    28.431     8.744
    36   6 C        2.913    -0.035    28.870     8.811
    37   6 C        2.920    -0.037    28.923     8.819
    38   6 C        2.926    -0.033    28.831     8.806
    39   6 C        2.908    -0.053    29.314     8.878
    40   6 C        3.091     0.125    25.155     8.221
    41   8 O        1.714    -0.251    18.163     5.754
    42   6 C        3.080     0.115    25.398     8.262
    43   6 C        3.060     0.020    27.506     8.601
    44   6 C        2.886     0.048    26.925     8.507
    45   7 N        1.840    -0.276    28.014     7.844
    46   6 C        3.062     0.020    27.494     8.599
    47   1 H        0.926     0.047     2.351     2.398
    48   1 H        0.926     0.046     2.366     2.406
    49   1 H        0.926     0.047     2.357     2.401
    50   1 H        0.926     0.044     2.390     2.418
    51   1 H        0.926     0.053     2.288     2.366
    52   1 H        0.926     0.054     2.270     2.356
    53   1 H        0.926     0.048     2.343     2.394
    54   1 H        0.926     0.046     2.368     2.406
    55   1 H        0.926     0.044     2.402     2.423
    56   1 H        0.926     0.045     2.388     2.417
    57   1 H        0.926     0.045     2.383     2.414
    58   1 H        0.926     0.046     2.374     2.409
    59   1 H        0.926     0.044     2.402     2.424
    60   1 H        0.926     0.046     2.369     2.407
    61   1 H        0.926     0.048     2.345     2.395
    62   1 H        0.926     0.054     2.272     2.357
    63   1 H        0.926     0.052     2.290     2.367
    64   1 H        0.926     0.047     2.359     2.402
    65   1 H        0.926     0.046     2.368     2.407
    66   1 H        0.926     0.047     2.353     2.399
    67   1 H        0.926     0.044     2.391     2.418
    68   1 H        0.926     0.046     2.370     2.407

molecular dipole:
                 x           y           z       tot (Debye)
 q only:        0.024      -0.010      -0.009
   full:        0.023      -0.008      -0.007       0.064

 projected vibrational frequencies (cm⁻¹)
eigval :       -0.00    -0.00    -0.00     0.00     0.00     0.00
eigval :        9.59    15.58    23.03    32.13    39.49    41.73
eigval :       51.21    84.84    88.49   100.97   107.80   113.97
eigval :      115.70   132.76   141.31   148.57   156.42   163.45
eigval :      216.27   238.80   246.68   254.81   258.45   270.75
eigval :      285.60   289.25   295.16   308.00   328.43   330.68
eigval :      340.42   355.41   368.64   399.17   402.23   408.26
eigval :      414.31   434.24   443.60   462.89   473.48   476.88
eigval :      491.21   492.44   493.82   504.98   532.19   537.03
eigval :      546.39   550.36   551.19   552.84   555.55   564.74
eigval :      572.09   588.87   608.35   611.65   612.50   621.09
eigval :      622.98   631.19   648.41   667.30   674.06   675.21
eigval :      695.69   697.21   706.95   707.90   708.90   738.18
eigval :      738.91   768.02   770.03   774.32   775.35   781.04
eigval :      797.16   812.86   815.65   816.23   826.64   841.53
eigval :      842.80   865.10   865.32   867.98   868.30   889.81
eigval :      890.57   895.59   898.42   899.16   899.98   900.32
eigval :      901.28   901.56   914.81   916.28   920.03   921.41
eigval :      923.72   940.41   952.11   979.08  1060.91  1061.20
eigval :     1063.43  1064.11  1079.56  1080.19  1086.31  1086.97
eigval :     1117.76  1135.74  1138.03  1139.95  1141.08  1161.13
eigval :     1169.22  1170.07  1174.81  1175.33  1177.94  1185.17
eigval :     1192.69  1197.80  1202.82  1218.28  1223.71  1224.48
eigval :     1242.46  1242.62  1251.43  1262.96  1273.61  1284.95
eigval :     1286.74  1290.14  1296.17  1303.05  1345.82  1346.23
eigval :     1350.66  1351.35  1373.21  1373.85  1384.41  1391.12
eigval :     1398.85  1401.43  1406.09  1409.52  1410.12  1427.95
eigval :     1441.02  1442.98  1455.26  1455.53  1469.53  1469.76
eigval :     1471.75  1473.50  1545.77  1545.92  1560.46  1573.99
eigval :     1574.63  1579.89  1584.51  1586.98  1587.90  1591.76
eigval :     1594.85  1598.45  3069.86  3073.59  3082.89  3082.94
eigval :     3083.50  3083.52  3089.81  3090.02  3091.77  3091.99
eigval :     3096.82  3096.90  3098.96  3099.35  3099.80  3100.08
eigval :     3103.92  3104.45  3106.41  3107.18  3108.54  3108.98

   temp. (K)  partition function   enthalpy   heat capacity  entropy
                                   cal/mol     cal/K/mol   cal/K/mol   J/K/mol
 298.15  VIB  0.773E+14            19218.035    127.518    116.376
         ROT  0.715E+08              888.752      2.981     38.921
         INT  0.553E+22            20106.787    130.499    155.297
         TR   0.139E+29             1481.254      4.968     44.992
         TOT                       21588.0413   135.4673   200.2889   838.0087

       T/K    H(0)-H(T)+PV         H(T)/Eh          T*S/Eh         G(T)/Eh
   ------------------------------------------------------------------------
    298.15    0.344027E-01    0.530842E+00    0.951637E-01    0.435678E+00
   ------------------------------------------------------------------------

         :::::::::::::::::::::::::::::::::::::::::::::::::::::
         ::                  THERMODYNAMIC                  ::
         :::::::::::::::::::::::::::::::::::::::::::::::::::::
         :: total free energy        -116.363239961117 Eh   ::
         ::.................................................::
         :: total energy             -116.798918106898 Eh   ::
         :: zero point energy           0.496439130579 Eh   ::
         :: G(RRHO) w/o ZPVE           -0.060760984799 Eh   ::
         :: G(RRHO) contrib.            0.435678145781 Eh   ::
         :::::::::::::::::::::::::::::::::::::::::::::::::::::

           -------------------------------------------------
          | TOTAL ENERGY             -116.798918106898 Eh   |
          | TOTAL ENTHALPY           -116.268076242696 Eh   |
          | TOTAL FREE ENERGY        -116.363239961117 Eh   |
          | GRADIENT NORM               0.000139794735 Eh/α |
          | HOMO-LUMO GAP               0.358344736506 eV   |
           -------------------------------------------------

 * finished run on 2025/08/21 at 19:44:18.106
