   * xtb version 6.7.1 (edcfbbe) compiled by 'albert@albert-system' on 2024-07-22

   ID    Z sym.   atoms
    1    6 C      1-6, 8-18, 20, 21, 23, 25-40, 42-44, 46
    2    8 O      7, 41
    3    7 N      19, 22, 24, 45
    4    1 H      47-68

          program call               : xtb data2507/toluene/BFCZPZ1/BFCZPZ1_toluene_T1_crest.xyz --gfn 2 --uhf 2 --gbsa toluene --ohess vtight --parallel 40 --molden --ceasefiles --namespace data2507/toluene/BFCZPZ1/BFCZPZ1_toluene_T1_finalOpt
      * Solvation model:               GBSA
        Solvent                        toluene
        Solvent mass                       9.2140E+01 g/mol
          :  Hamiltonian                  GFN2-xTB          :
 * total energy  :  -116.7987038 Eh     change       -0.7736958E-09 Eh
 * total energy  :  -116.7988231 Eh     change       -0.1193024E-03 Eh
 * total energy  :  -116.7988966 Eh     change       -0.7355345E-04 Eh
 * total energy  :  -116.7989071 Eh     change       -0.1044175E-04 Eh
 * total energy  :  -116.7989185 Eh     change       -0.1138455E-04 Eh
 * total energy  :  -116.7988993 Eh     change        0.1915840E-04 Eh
 * total energy  :  -116.7989188 Eh     change       -0.1951164E-04 Eh
 * total energy  :  -116.7989227 Eh     change       -0.3858890E-05 Eh
 * total energy  :  -116.7989244 Eh     change       -0.1771984E-05 Eh
 * total energy  :  -116.7989265 Eh     change       -0.2036104E-05 Eh
 * total energy  :  -116.7989317 Eh     change       -0.7010834E-06 Eh
 * total energy  :  -116.7989323 Eh     change       -0.5304169E-06 Eh
 * total energy  :  -116.7989328 Eh     change       -0.5191196E-06 Eh
 * total energy  :  -116.7989333 Eh     change       -0.4929076E-06 Eh
 * total energy  :  -116.7989337 Eh     change       -0.4041032E-06 Eh
 * total energy  :  -116.7989340 Eh     change       -0.2748517E-06 Eh
 * total energy  :  -116.7989342 Eh     change       -0.2294910E-06 Eh
 * total energy  :  -116.7989344 Eh     change       -0.1914810E-06 Eh
 * total energy  :  -116.7989344 Eh     change       -0.5935121E-08 Eh
   *** GEOMETRY OPTIMIZATION CONVERGED AFTER 22 ITERATIONS ***

 final structure:
================
68
 xtb: 6.7.1 (edcfbbe)
C            5.80882647574451       -4.07179623258632        0.19079478038757
C            7.02664879192695       -3.40947586655609        0.05664358417467
C            7.08865525296671       -2.03343954357052       -0.04756169122459
C            5.89814401411034       -1.31544703932478       -0.01634097486033
C            4.67554963091066       -2.00173854384995        0.12129715267860
C            4.61020497303308       -3.37805898658498        0.22643683237867
O            3.61584054885833       -1.13621265348257        0.13021486444566
C            4.14569778928165        0.11343090512148       -0.00122675982388
C            5.55318750660156        0.07786896150107       -0.09272414330429
C            6.30576773953715        1.25033001238057       -0.20481856633572
C            5.66046391034968        2.46845381349278       -0.20260100944138
C            4.27062503842721        2.51630933627017       -0.10464000445126
C            3.34626700701809        3.61219427925415       -0.01789214400306
C            3.49882345272555        4.99272155275071       -0.02271349015685
C            2.36962561455253        5.78401764373302        0.08441954700879
C            1.10067200781071        5.21939942452120        0.19970766992395
C            0.92355030225233        3.84702060407523        0.20646277119867
C            2.05311092343892        3.05098782386849        0.10311514855157
N            2.14886896769767        1.66707857423998        0.07835756925860
C            1.08418100623526        0.79665014245062        0.07517884967277
C            1.04126661308437       -0.30312072053533       -0.76512391764175
N           -0.00530867982089       -1.10667493442409       -0.85335495813312
C           -1.08639620630301       -0.80962052352769       -0.06272867016724
N           -2.15436492006325       -1.67614349950154       -0.06810478114636
C           -2.06609579722112       -3.06053289762022       -0.08196269813824
C           -0.94024618826393       -3.86319287875984       -0.17344075924054
C           -1.12484145283171       -5.23451486444753       -0.15593549713285
C           -2.39740292015498       -5.79129139118189       -0.04224085812047
C           -3.52293175861218       -4.99321969320553        0.05273000787620
C           -3.36298793946556       -3.61362863374568        0.03691137138503
C           -4.28174855589646       -2.51194766742697        0.11046355224558
C           -5.67175345477086       -2.45475872528429        0.20072236116936
C           -6.30952563265165       -1.23263932811265        0.19037479065239
C           -5.54931369242447       -0.06552734906680        0.07391695544230
C           -5.88502641168076        1.32941642668384       -0.01422854099216
C           -7.07114482216209        2.05502601814902        0.00533060094899
C           -6.99993024230578        3.42991573170523       -0.10793866592925
C           -5.77724907370585        4.08360210469587       -0.24006473626494
C           -4.58283896941852        3.38216072901853       -0.26437024511639
C           -4.65735043645843        2.00702297634017       -0.14999713550575
O           -3.60306316888113        1.13480242496438       -0.14709769123935
C           -4.14167498383753       -0.11043163392709       -0.00984870443169
C           -3.49124079097228       -1.33462304733212        0.03187882825371
C           -1.04357576656816        0.28993187180553        0.77774645150322
N            0.00382124280806        1.09202849245836        0.86763007426353
C            3.48729435843411        1.33376251478348       -0.03072244899205
H            5.79614665712796       -5.14823073527147        0.26924010746202
H            7.93885683717501       -3.98658881018843        0.03398377850593
H            8.03327415256838       -1.52291686833174       -0.15144277986557
H            3.66249575588253       -3.88172424045763        0.33186100422187
H            7.37999596573212        1.19148053303202       -0.27514596895515
H            6.22238084584209        3.38692650722962       -0.26392753754987
H            4.47926216906642        5.43475844874066       -0.10797383508128
H            2.46903026450224        6.85905946592540        0.07822378714303
H            0.23876438615905        5.86419225992471        0.28163410555436
H           -0.05438145677529        3.40157070960304        0.29823030729790
H            1.84036726759936       -0.48734162700691       -1.46730329138081
H            0.04055367795562       -3.42369158646785       -0.26387683547355
H           -0.26609407211911       -5.88466549088183       -0.22806214479215
H           -2.50263622250953       -6.86568726905744       -0.02731227042248
H           -4.50609801317671       -5.42935117109008        0.13699004577016
H           -6.23980766830928       -3.36919400664703        0.26575417451645
H           -7.38374213104609       -1.16682286534488        0.25441368333712
H           -8.01951186048064        1.55116111074720        0.10750099857054
H           -7.90858721725041        4.01286798652255       -0.09426861807998
H           -5.75738509203926        5.15935208831109       -0.32599546207699
H           -3.63154900975463        3.87927826985388       -0.36849943060495
H           -1.84378603648562        0.47482611844626        1.47858908477745

          :  Hamiltonian                  GFN2-xTB          :
         :: gradient norm              0.000050609232 Eh/a0 ::
         :: HOMO-LUMO gap              0.358206400710 eV    ::
         :: SCC energy              -118.810688891946 Eh    ::
         :: -> dispersion             -0.098803070993 Eh    ::
         :: -> Gsolv                  -0.050546425913 Eh    ::
         :: repulsion energy           2.011754509242 Eh    ::

    * Orbital Energies and Occupations

         #    Occupation            Energy/Eh            Energy/eV
      -------------------------------------------------------------
         1        2.0000           -0.7476984             -20.3459
       ...           ...                  ...                  ...
        96        2.0000           -0.4254859             -11.5781
        97        2.0000           -0.4216527             -11.4738
        98        2.0000           -0.4203939             -11.4395
        99        2.0000           -0.4150862             -11.2951
       100        2.0000           -0.4150276             -11.2935
       101        2.0000           -0.4039781             -10.9928
       102        2.0000           -0.4020014             -10.9390
       103        2.0000           -0.3841071             -10.4521
       104        2.0000           -0.3839907             -10.4489
       105        2.0000           -0.3835242             -10.4362
       106        1.9999           -0.3815888             -10.3836
       107        1.0001           -0.3632014              -9.8832
       108        0.9989           -0.2804840              -7.6324 (HOMO)
       109        0.0008           -0.2673204              -7.2742 (LUMO)
       110        0.0003           -0.2663246              -7.2471
       111                         -0.2478488              -6.7443
       112                         -0.2395451              -6.5184
       113                         -0.2391829              -6.5085
       114                         -0.2325735              -6.3286
       115                         -0.2325240              -6.3273
       116                         -0.2223749              -6.0511
       117                         -0.2191993              -5.9647
       118                         -0.2064053              -5.6166
       119                         -0.1969747              -5.3600
       ...                                ...                  ...
       206                          0.7472692              20.3342
      -------------------------------------------------------------
                  HL-Gap            0.0131636 Eh            0.3582 eV

     #   Z          covCN         q      C6AA      α(0)
     1   6 C        2.926    -0.033    28.830     8.805
     2   6 C        2.920    -0.037    28.922     8.819
     3   6 C        2.913    -0.035    28.869     8.811
     4   6 C        3.056    -0.019    28.430     8.744
     5   6 C        3.091     0.125    25.154     8.221
     6   6 C        2.908    -0.053    29.313     8.878
     7   8 O        1.714    -0.251    18.162     5.754
     8   6 C        3.080     0.115    25.396     8.262
     9   6 C        3.051    -0.026    28.590     8.769
    10   6 C        2.912    -0.041    29.030     8.835
    11   6 C        2.912    -0.039    28.976     8.827
    12   6 C        3.060    -0.019    28.424     8.743
    13   6 C        3.065    -0.012    28.248     8.715
    14   6 C        2.912    -0.031    28.780     8.797
    15   6 C        2.919    -0.033    28.828     8.805
    16   6 C        2.923    -0.033    28.825     8.805
    17   6 C        2.909    -0.040    28.982     8.828
    18   6 C        3.073     0.050    26.804     8.489
    19   7 N        2.796    -0.023    21.699     6.918
    20   6 C        2.879     0.125    25.258     8.239
    21   6 C        2.886     0.048    26.922     8.506
    22   7 N        1.840    -0.276    28.015     7.844
    23   6 C        2.879     0.125    25.258     8.239
    24   7 N        2.797    -0.024    21.701     6.919
    25   6 C        3.073     0.050    26.804     8.489
    26   6 C        2.909    -0.040    28.982     8.828
    27   6 C        2.923    -0.033    28.824     8.804
    28   6 C        2.919    -0.033    28.827     8.805
    29   6 C        2.912    -0.031    28.779     8.797
    30   6 C        3.065    -0.012    28.247     8.715
    31   6 C        3.060    -0.019    28.423     8.743
    32   6 C        2.912    -0.039    28.976     8.827
    33   6 C        2.912    -0.041    29.030     8.835
    34   6 C        3.051    -0.026    28.589     8.769
    35   6 C        3.056    -0.019    28.430     8.744
    36   6 C        2.913    -0.035    28.868     8.810
    37   6 C        2.920    -0.037    28.922     8.819
    38   6 C        2.926    -0.033    28.829     8.805
    39   6 C        2.908    -0.053    29.313     8.878
    40   6 C        3.092     0.125    25.154     8.220
    41   8 O        1.714    -0.251    18.162     5.754
    42   6 C        3.080     0.115    25.395     8.262
    43   6 C        3.061     0.020    27.498     8.599
    44   6 C        2.886     0.048    26.919     8.506
    45   7 N        1.840    -0.276    28.013     7.844
    46   6 C        3.061     0.020    27.501     8.600
    47   1 H        0.926     0.047     2.352     2.398
    48   1 H        0.926     0.046     2.368     2.406
    49   1 H        0.926     0.047     2.359     2.402
    50   1 H        0.926     0.044     2.391     2.418
    51   1 H        0.926     0.052     2.290     2.366
    52   1 H        0.926     0.054     2.271     2.357
    53   1 H        0.926     0.048     2.344     2.394
    54   1 H        0.926     0.046     2.369     2.407
    55   1 H        0.926     0.044     2.402     2.424
    56   1 H        0.926     0.045     2.381     2.413
    57   1 H        0.926     0.046     2.374     2.410
    58   1 H        0.926     0.045     2.384     2.415
    59   1 H        0.926     0.044     2.402     2.424
    60   1 H        0.926     0.046     2.368     2.406
    61   1 H        0.926     0.048     2.343     2.394
    62   1 H        0.926     0.054     2.271     2.356
    63   1 H        0.926     0.052     2.289     2.366
    64   1 H        0.926     0.047     2.358     2.401
    65   1 H        0.926     0.046     2.367     2.406
    66   1 H        0.926     0.047     2.352     2.398
    67   1 H        0.926     0.044     2.390     2.418
    68   1 H        0.926     0.045     2.378     2.412

molecular dipole:
                 x           y           z       tot (Debye)
 q only:       -0.010       0.006      -0.001
   full:       -0.009       0.004      -0.001       0.026

 projected vibrational frequencies (cm⁻¹)
eigval :       -0.00    -0.00    -0.00    -0.00     0.00     0.00
eigval :       11.36    15.49    27.58    34.74    39.80    44.33
eigval :       50.69    87.05    88.46   103.11   107.94   114.69
eigval :      118.82   133.38   144.33   149.73   157.94   165.15
eigval :      216.49   239.20   247.23   255.46   258.85   270.91
eigval :      285.55   289.65   295.41   308.49   329.56   330.93
eigval :      340.45   357.27   369.08   401.15   404.04   407.77
eigval :      414.60   434.31   443.58   462.91   473.50   476.99
eigval :      491.99   494.32   494.55   505.29   533.14   536.94
eigval :      546.51   551.12   551.32   553.06   556.24   564.75
eigval :      572.11   588.88   608.43   611.82   612.70   621.58
eigval :      623.22   631.34   648.44   667.35   674.95   675.51
eigval :      696.68   697.72   707.12   708.74   709.28   738.18
eigval :      738.95   769.01   769.43   774.41   775.17   781.14
eigval :      797.28   813.29   816.35   816.94   827.00   841.61
eigval :      842.80   865.21   865.62   867.79   868.03   889.98
eigval :      890.39   895.68   899.15   899.59   899.77   900.13
eigval :      901.28   901.60   915.98   916.42   920.27   921.13
eigval :      923.81   940.39   952.15   978.98  1060.76  1061.05
eigval :     1064.02  1064.56  1079.35  1080.27  1086.34  1086.98
eigval :     1117.43  1136.31  1137.92  1139.72  1141.04  1161.67
eigval :     1169.31  1170.26  1175.45  1175.80  1178.83  1185.39
eigval :     1192.70  1197.74  1202.75  1218.56  1223.79  1224.69
eigval :     1242.11  1242.62  1251.95  1263.71  1273.91  1285.34
eigval :     1287.16  1290.22  1296.16  1303.00  1346.41  1346.81
eigval :     1350.71  1351.17  1373.38  1373.91  1384.89  1391.27
eigval :     1398.97  1401.57  1406.27  1409.55  1410.05  1427.64
eigval :     1441.14  1442.90  1455.46  1455.48  1469.69  1469.82
eigval :     1471.95  1473.66  1545.99  1546.11  1560.69  1574.42
eigval :     1574.99  1580.09  1584.70  1587.14  1587.87  1591.79
eigval :     1594.83  1598.48  3071.18  3072.33  3082.98  3083.13
eigval :     3083.32  3083.59  3089.73  3089.96  3091.72  3092.10
eigval :     3097.09  3097.48  3098.76  3099.07  3099.79  3100.10
eigval :     3104.08  3104.44  3106.38  3106.86  3108.85  3109.21

   temp. (K)  partition function   enthalpy   heat capacity  entropy
                                   cal/mol     cal/K/mol   cal/K/mol   J/K/mol
 298.15  VIB  0.436E+14            19170.674    127.599    115.765
         ROT  0.715E+08              888.752      2.981     38.920
         INT  0.312E+22            20059.426    130.580    154.686
         TR   0.139E+29             1481.254      4.968     44.992
         TOT                       21540.6800   135.5482   199.6772   835.4496

       T/K    H(0)-H(T)+PV         H(T)/Eh          T*S/Eh         G(T)/Eh
   ------------------------------------------------------------------------
    298.15    0.343273E-01    0.530920E+00    0.948731E-01    0.436047E+00
   ------------------------------------------------------------------------

         :::::::::::::::::::::::::::::::::::::::::::::::::::::
         ::                  THERMODYNAMIC                  ::
         :::::::::::::::::::::::::::::::::::::::::::::::::::::
         :: total free energy        -116.362887778492 Eh   ::
         ::.................................................::
         :: total energy             -116.798934377756 Eh   ::
         :: zero point energy           0.496592439650 Eh   ::
         :: G(RRHO) w/o ZPVE           -0.060545840385 Eh   ::
         :: G(RRHO) contrib.            0.436046599264 Eh   ::
         :::::::::::::::::::::::::::::::::::::::::::::::::::::

           -------------------------------------------------
          | TOTAL ENERGY             -116.798934377756 Eh   |
          | TOTAL ENTHALPY           -116.268014679547 Eh   |
          | TOTAL FREE ENERGY        -116.362887778492 Eh   |
          | GRADIENT NORM               0.000050735588 Eh/α |
          | HOMO-LUMO GAP               0.358200442665 eV   |
           -------------------------------------------------

 * finished run on 2025/08/21 at 19:48:02.715
