   * xtb version 6.7.1 (edcfbbe) compiled by 'albert@albert-system' on 2024-07-22

   ID    Z sym.   atoms
    1    6 C      1-6, 8-18, 20, 21, 23, 25-40, 42-44, 46
    2    8 O      7, 41
    3    7 N      19, 22, 24, 45
    4    1 H      47-68

          program call               : xtb data2507/toluene/BFCZPZ1/BFCZPZ1_toluene_S0_crest.xyz --gfn 2 --gbsa toluene --ohess vtight --parallel 40 --molden --ceasefiles --namespace data2507/toluene/BFCZPZ1/BFCZPZ1_toluene_S0_finalOpt
      * Solvation model:               GBSA
        Solvent                        toluene
        Solvent mass                       9.2140E+01 g/mol
          :  Hamiltonian                  GFN2-xTB          :
 * total energy  :  -116.8800999 Eh     change       -0.2295010E-08 Eh
 * total energy  :  -116.8801747 Eh     change       -0.7478852E-04 Eh
 * total energy  :  -116.8802053 Eh     change       -0.3055518E-04 Eh
 * total energy  :  -116.8802115 Eh     change       -0.6229966E-05 Eh
 * total energy  :  -116.8802184 Eh     change       -0.6880985E-05 Eh
 * total energy  :  -116.8802236 Eh     change       -0.5221756E-05 Eh
 * total energy  :  -116.8802284 Eh     change       -0.4799912E-05 Eh
 * total energy  :  -116.8802340 Eh     change       -0.5574822E-05 Eh
 * total energy  :  -116.8802407 Eh     change       -0.6686473E-05 Eh
 * total energy  :  -116.8802476 Eh     change       -0.6947373E-05 Eh
 * total energy  :  -116.8804337 Eh     change       -0.8947671E-06 Eh
 * total energy  :  -116.8804345 Eh     change       -0.8079401E-06 Eh
 * total energy  :  -116.8804352 Eh     change       -0.7345765E-06 Eh
 * total energy  :  -116.8804359 Eh     change       -0.6783076E-06 Eh
 * total energy  :  -116.8804365 Eh     change       -0.6230133E-06 Eh
 * total energy  :  -116.8804371 Eh     change       -0.6257772E-06 Eh
 * total energy  :  -116.8804377 Eh     change       -0.6072876E-06 Eh
 * total energy  :  -116.8804384 Eh     change       -0.6285261E-06 Eh
 * total energy  :  -116.8804384 Eh     change       -0.5952117E-08 Eh
   *** GEOMETRY OPTIMIZATION CONVERGED AFTER 94 ITERATIONS ***

 final structure:
================
68
 xtb: 6.7.1 (edcfbbe)
C            5.69093719767325       -4.13053224182608        0.39258516104986
C            6.92583947391034       -3.49739665600260        0.27222981969288
C            7.01774637865806       -2.12752438126845        0.12154826349611
C            5.84202364574408       -1.38720581331055        0.09331262924972
C            4.60225119905985       -2.04284616259630        0.21798248548798
C            4.50674676278720       -3.41423061382739        0.36834249124035
O            3.56074011968476       -1.15829793488187        0.17229680510550
C            4.12398209688866        0.07905895472898        0.01737070919562
C            5.52919656330215        0.01222819396681       -0.03411614044375
C            6.30992327017569        1.16407406307634       -0.15379508882496
C            5.69060346261359        2.39227447839181       -0.19899166929715
C            4.29778354626746        2.46862367720109       -0.14230403316961
C            3.39479031312295        3.58694033227521       -0.10390157559521
C            3.58362580055466        4.96291591756397       -0.15812771069388
C            2.47570562349025        5.78433229524512       -0.09512057230843
C            1.19281637929525        5.25227426360201        0.01689645081241
C            0.98080922267874        3.88708114818764        0.07303176206675
C            2.09086514271233        3.06022414854936        0.01516216835308
N            2.15643336078233        1.67215722605368        0.01068616178429
C            1.07073695817930        0.81419297098067       -0.00518359983121
C            1.03686356203751       -0.32988487660777       -0.80965541110224
N           -0.01283918737440       -1.12289622777268       -0.83320478766970
C           -1.05874044011950       -0.80860444633230       -0.06510324843586
N           -2.14571997307764       -1.66276224353611       -0.09324747134735
C           -2.07631008099570       -3.04990234645667       -0.17459951362683
C           -0.96801070851989       -3.87026018102290       -0.31077948122136
C           -1.17741630141697       -5.23702747618958       -0.33038440769875
C           -2.45581662839561       -5.77873936835756       -0.21578416929685
C           -3.56160421981421       -4.96473572596032       -0.07191671019665
C           -3.37452232724063       -3.58777001590458       -0.04860935975285
C           -4.27934619521567       -2.47771520789342        0.07789110603731
C           -5.66995869910066       -2.41789243456383        0.18256559341469
C           -6.29920724241461       -1.19489844477309        0.22615579970072
C           -5.53012485897628       -0.03258778965128        0.14264095889759
C           -5.85868731722160        1.36834553494757        0.10573361007015
C           -7.03996407061985        2.09770403453366        0.16831901267476
C           -6.96384008134542        3.47493844206962        0.09693688393481
C           -5.73938898736413        4.12597486828761       -0.03426666243236
C           -4.55013326215348        3.42078984735984       -0.09987584544435
C           -4.62994116283882        2.04209238037613       -0.02781125493390
O           -3.58103137488712        1.16654652690979       -0.07106288669212
C           -4.12653559410781       -0.08356858904322        0.03856763822319
C           -3.48136063695419       -1.31100919609610        0.03838224386309
C           -1.01875194820603        0.32946414100545        0.74910724387294
N            0.02756081384463        1.12717961853775        0.76606687406403
C            3.49166577303397        1.30971186401499       -0.06542534354694
H            5.65468673518874       -5.20307437995789        0.50877179528078
H            7.82638864787388       -4.09228128059915        0.29743034732415
H            7.97479647098855       -1.63837734154662        0.02877711095066
H            3.54662769629428       -3.89611911694123        0.46350549657780
H            7.38424031116879        1.08125012650985       -0.19135759234447
H            6.27102212430510        3.29880954009698       -0.26469595778278
H            4.57661433297580        5.37486594481017       -0.24963813991115
H            2.60072777803419        6.85597830750230       -0.13433191544184
H            0.34545042980009        5.91995902069010        0.06325406145124
H           -0.01006020326062        3.47283977637339        0.16924365719271
H            1.85363727333374       -0.60367453959775       -1.46087056860147
H            0.01963938005651       -3.45010113843935       -0.41112047738698
H           -0.33066376606120       -5.89796526096804       -0.44071721862764
H           -2.57911047326162       -6.85103710877592       -0.23948569768338
H           -4.55167093592600       -5.38301727926300        0.02214148940128
H           -6.24043271214396       -3.33234614607865        0.21773965227620
H           -7.37204325178695       -1.12303607492323        0.30519081115521
H           -7.98894242747004        1.59496003529872        0.27063625111796
H           -7.86878509983622        4.06177055248217        0.14424345251557
H           -5.71529374057133        5.20387982899284       -0.08601782617353
H           -3.59795921689459        3.91661994611586       -0.20200910576800
H           -1.82731407236314        0.59590029452414        1.41271714864204

          :  Hamiltonian                  GFN2-xTB          :
         :: gradient norm              0.000067451961 Eh/a0 ::
         :: HOMO-LUMO gap              2.129573723927 eV    ::
         :: SCC energy              -118.903920045208 Eh    ::
         :: -> dispersion             -0.098938704880 Eh    ::
         :: -> Gsolv                  -0.049513187287 Eh    ::
         :: repulsion energy           2.023481679620 Eh    ::

    * Orbital Energies and Occupations

         #    Occupation            Energy/Eh            Energy/eV
      -------------------------------------------------------------
         1        2.0000           -0.7477111             -20.3463
       ...           ...                  ...                  ...
        95        2.0000           -0.4283131             -11.6550
        96        2.0000           -0.4271311             -11.6228
        97        2.0000           -0.4211813             -11.4609
        98        2.0000           -0.4201419             -11.4326
        99        2.0000           -0.4145645             -11.2809
       100        2.0000           -0.4144514             -11.2778
       101        2.0000           -0.4035512             -10.9812
       102        2.0000           -0.4022656             -10.9462
       103        2.0000           -0.3839983             -10.4491
       104        2.0000           -0.3837307             -10.4418
       105        2.0000           -0.3834484             -10.4342
       106        2.0000           -0.3832137             -10.4278
       107        2.0000           -0.3676096             -10.0032 (HOMO)
       108                         -0.2893492              -7.8736 (LUMO)
       109                         -0.2730752              -7.4308
       110                         -0.2655814              -7.2268
       111                         -0.2558748              -6.9627
       112                         -0.2382885              -6.4842
       113                         -0.2378991              -6.4736
       114                         -0.2319095              -6.3106
       115                         -0.2317754              -6.3069
       116                         -0.2218094              -6.0357
       117                         -0.2196216              -5.9762
       118                         -0.2062832              -5.6133
       ...                                ...                  ...
       206                          0.7476943              20.3458
      -------------------------------------------------------------
                  HL-Gap            0.0782604 Eh            2.1296 eV

     #   Z          covCN         q      C6AA      α(0)
     1   6 C        2.927    -0.032    28.796     8.800
     2   6 C        2.920    -0.037    28.928     8.820
     3   6 C        2.913    -0.034    28.842     8.806
     4   6 C        3.058    -0.019    28.416     8.742
     5   6 C        3.090     0.126    25.132     8.217
     6   6 C        2.908    -0.053    29.323     8.879
     7   8 O        1.713    -0.258    18.274     5.772
     8   6 C        3.082     0.108    25.536     8.284
     9   6 C        3.052    -0.024    28.546     8.762
    10   6 C        2.913    -0.044    29.092     8.844
    11   6 C        2.914    -0.042    29.031     8.835
    12   6 C        3.063    -0.018    28.398     8.739
    13   6 C        3.069    -0.014    28.280     8.720
    14   6 C        2.913    -0.033    28.815     8.802
    15   6 C        2.920    -0.038    28.939     8.822
    16   6 C        2.925    -0.032    28.790     8.799
    17   6 C        2.910    -0.046    29.150     8.853
    18   6 C        3.070     0.053    26.749     8.480
    19   7 N        2.800    -0.051    22.222     7.001
    20   6 C        2.894     0.149    24.773     8.160
    21   6 C        2.900     0.048    26.927     8.508
    22   7 N        1.848    -0.247    27.283     7.741
    23   6 C        2.893     0.148    24.777     8.161
    24   7 N        2.799    -0.050    22.200     6.998
    25   6 C        3.068     0.053    26.754     8.481
    26   6 C        2.910    -0.046    29.153     8.854
    27   6 C        2.925    -0.032    28.788     8.799
    28   6 C        2.920    -0.037    28.932     8.821
    29   6 C        2.913    -0.033    28.816     8.802
    30   6 C        3.069    -0.013    28.275     8.719
    31   6 C        3.063    -0.018    28.386     8.737
    32   6 C        2.914    -0.041    29.029     8.835
    33   6 C        2.913    -0.044    29.083     8.843
    34   6 C        3.052    -0.023    28.538     8.761
    35   6 C        3.057    -0.019    28.417     8.742
    36   6 C        2.913    -0.034    28.841     8.806
    37   6 C        2.920    -0.037    28.927     8.820
    38   6 C        2.927    -0.032    28.794     8.800
    39   6 C        2.908    -0.053    29.321     8.879
    40   6 C        3.089     0.127    25.133     8.217
    41   8 O        1.713    -0.257    18.264     5.770
    42   6 C        3.080     0.108    25.538     8.285
    43   6 C        3.057     0.024    27.407     8.585
    44   6 C        2.901     0.047    26.944     8.511
    45   7 N        1.847    -0.246    27.273     7.740
    46   6 C        3.061     0.025    27.391     8.582
    47   1 H        0.926     0.048     2.339     2.392
    48   1 H        0.926     0.047     2.358     2.401
    49   1 H        0.926     0.048     2.349     2.397
    50   1 H        0.926     0.045     2.387     2.416
    51   1 H        0.926     0.050     2.314     2.379
    52   1 H        0.926     0.052     2.296     2.370
    53   1 H        0.926     0.045     2.383     2.414
    54   1 H        0.926     0.042     2.417     2.431
    55   1 H        0.926     0.041     2.430     2.438
    56   1 H        0.926     0.040     2.453     2.449
    57   1 H        0.926     0.049     2.333     2.389
    58   1 H        0.926     0.043     2.415     2.430
    59   1 H        0.926     0.042     2.425     2.435
    60   1 H        0.926     0.043     2.414     2.430
    61   1 H        0.926     0.045     2.381     2.413
    62   1 H        0.926     0.052     2.291     2.367
    63   1 H        0.926     0.051     2.310     2.376
    64   1 H        0.926     0.048     2.348     2.396
    65   1 H        0.926     0.047     2.358     2.401
    66   1 H        0.926     0.049     2.338     2.391
    67   1 H        0.926     0.045     2.384     2.414
    68   1 H        0.926     0.050     2.315     2.379

molecular dipole:
                 x           y           z       tot (Debye)
 q only:       -0.042      -0.040       0.010
   full:       -0.044      -0.036       0.011       0.146

 projected vibrational frequencies (cm⁻¹)
eigval :       -0.00    -0.00    -0.00     0.00     0.00     0.00
eigval :       11.34    14.70    27.32    34.21    38.75    43.81
eigval :       52.44    89.82    91.46   105.19   109.78   119.39
eigval :      120.60   141.18   145.83   150.92   158.21   167.32
eigval :      220.00   240.72   249.23   255.83   262.05   274.95
eigval :      282.66   295.03   298.59   312.92   332.12   333.86
eigval :      351.50   356.70   404.52   404.93   407.37   415.53
eigval :      416.07   436.18   446.96   464.62   475.17   480.63
eigval :      493.51   500.85   501.75   509.18   534.15   535.42
eigval :      550.70   552.04   554.23   554.94   558.67   566.90
eigval :      592.96   598.65   608.55   611.71   619.63   622.02
eigval :      638.96   652.70   668.08   676.81   677.51   701.43
eigval :      702.02   712.00   712.91   719.77   738.54   739.39
eigval :      741.00   773.10   774.86   776.83   777.71   785.44
eigval :      806.69   822.01   822.70   842.58   843.71   848.65
eigval :      869.48   870.06   871.05   871.35   892.73   895.27
eigval :      896.31   901.58   901.85   902.33   902.46   903.30
eigval :      903.75   914.73   920.94   922.80   923.34   923.56
eigval :      930.91   952.60   972.85  1032.23  1061.82  1062.13
eigval :     1068.00  1069.20  1087.07  1088.30  1089.03  1091.82
eigval :     1141.59  1141.90  1145.39  1145.95  1170.47  1170.68
eigval :     1175.73  1175.90  1177.78  1178.75  1192.13  1195.93
eigval :     1203.23  1205.92  1225.64  1229.15  1233.18  1240.63
eigval :     1244.49  1245.22  1266.05  1272.17  1289.08  1291.25
eigval :     1291.94  1308.80  1319.84  1349.20  1349.64  1352.22
eigval :     1353.87  1381.61  1383.49  1392.91  1393.45  1398.67
eigval :     1399.27  1410.28  1415.36  1417.50  1431.14  1443.36
eigval :     1467.93  1468.26  1473.01  1473.26  1478.71  1479.37
eigval :     1501.61  1567.10  1567.77  1572.90  1584.78  1585.53
eigval :     1589.97  1590.34  1601.23  1601.76  1609.14  1609.40
eigval :     1611.89  1614.28  3077.41  3080.78  3081.05  3083.51
eigval :     3084.21  3084.21  3088.33  3088.74  3091.71  3092.12
eigval :     3096.70  3097.76  3099.29  3099.75  3099.97  3100.47
eigval :     3106.08  3106.31  3107.58  3108.88  3109.50  3111.13

   temp. (K)  partition function   enthalpy   heat capacity  entropy
                                   cal/mol     cal/K/mol   cal/K/mol   J/K/mol
 298.15  VIB  0.322E+14            18931.635    126.081    114.279
         ROT  0.713E+08              888.752      2.981     38.915
         INT  0.230E+22            19820.387    129.062    153.193
         TR   0.139E+29             1481.254      4.968     44.992
         TOT                       21301.6411   134.0301   198.1848   829.2052

       T/K    H(0)-H(T)+PV         H(T)/Eh          T*S/Eh         G(T)/Eh
   ------------------------------------------------------------------------
    298.15    0.339463E-01    0.534344E+00    0.941640E-01    0.440180E+00
   ------------------------------------------------------------------------

         :::::::::::::::::::::::::::::::::::::::::::::::::::::
         ::                  THERMODYNAMIC                  ::
         :::::::::::::::::::::::::::::::::::::::::::::::::::::
         :: total free energy        -116.440258742842 Eh   ::
         ::.................................................::
         :: total energy             -116.880438361344 Eh   ::
         :: zero point energy           0.500397281476 Eh   ::
         :: G(RRHO) w/o ZPVE           -0.060217662975 Eh   ::
         :: G(RRHO) contrib.            0.440179618502 Eh   ::
         :::::::::::::::::::::::::::::::::::::::::::::::::::::

           -------------------------------------------------
          | TOTAL ENERGY             -116.880438361344 Eh   |
          | TOTAL ENTHALPY           -116.346094754075 Eh   |
          | TOTAL FREE ENERGY        -116.440258742842 Eh   |
          | GRADIENT NORM               0.000067452892 Eh/α |
          | HOMO-LUMO GAP               2.129573748061 eV   |
           -------------------------------------------------

 * finished run on 2025/08/21 at 19:44:11.686
