   * xtb version 6.7.1 (edcfbbe) compiled by 'albert@albert-system' on 2024-07-22

   ID    Z sym.   atoms
    1    6 C      1-5, 7-13, 15-19, 21-28, 30-46, 48-60, 62, 63
    2    7 N      6, 14, 20, 61
    3    8 O      29, 47
    4    1 H      64-97

          program call               : xtb data2507/gas/BDBFCz-Trz/BDBFCz-Trz_gas_S0_finalOpt.xtbopt.xyz --gfn 2 --spinpol --tblite --uhf 2 --ohess vtight --parallel 40 --molden --ceasefiles --namespace data2507/gas/BDBFCz-Trz/BDBFCz-Trz_gas_T1_preOpt
 * total energy  :  -159.2493042 Eh     change       -0.3880510E-07 Eh
 * total energy  :  -159.2520432 Eh     change       -0.2739090E-02 Eh
 * total energy  :  -159.2536395 Eh     change       -0.1596232E-02 Eh
 * total energy  :  -159.2537881 Eh     change       -0.1486173E-03 Eh
 * total energy  :  -159.2539076 Eh     change       -0.1195479E-03 Eh
 * total energy  :  -159.2539214 Eh     change       -0.1379622E-04 Eh
 * total energy  :  -159.2539326 Eh     change       -0.1113712E-04 Eh
 * total energy  :  -159.2539368 Eh     change       -0.4278371E-05 Eh
 * total energy  :  -159.2539391 Eh     change       -0.2200843E-05 Eh
 * total energy  :  -159.2539432 Eh     change       -0.4152039E-05 Eh
 * total energy  :  -159.2539900 Eh     change       -0.5243018E-06 Eh
 * total energy  :  -159.2539905 Eh     change       -0.4543226E-06 Eh
 * total energy  :  -159.2539911 Eh     change       -0.5870138E-06 Eh
 * total energy  :  -159.2539917 Eh     change       -0.6763617E-06 Eh
 * total energy  :  -159.2539923 Eh     change       -0.6040665E-06 Eh
 * total energy  :  -159.2539929 Eh     change       -0.5573315E-06 Eh
 * total energy  :  -159.2539933 Eh     change       -0.4482434E-06 Eh
 * total energy  :  -159.2539936 Eh     change       -0.2875200E-06 Eh
 * total energy  :  -159.2539936 Eh     change       -0.1887256E-07 Eh
   *** GEOMETRY OPTIMIZATION CONVERGED AFTER 44 ITERATIONS ***

 final structure:
================
97
 xtb: 6.7.1 (edcfbbe)
C          -10.21097660552301       -3.09139714138214       -3.66559033058698
C          -10.89116415966385       -2.31852283080682       -2.73688993052008
C          -10.19210216966689       -1.54992408554752       -1.82811815436146
C           -8.79628152350997       -1.54680768577715       -1.83956764335594
C           -8.05805765898917       -0.73999042495439       -0.87984226678032
N           -8.75982131758866       -0.00399132141954        0.01047803413490
C           -8.05689771702584        0.73274481108247        0.89900940996231
C           -8.79392669400434        1.53765782173704        1.86140461629176
C           -8.11386417399518        2.31745911157511        2.79875687131588
C           -8.81867218087503        3.08073313026087        3.70639541532218
C          -10.20616956957195        3.07785383594851        3.69296534524005
C          -10.88760841524139        2.30540129209355        2.76484288919764
C          -10.18974440637121        1.53895335883645        1.85331960555767
N           -6.75300833582418        0.73789537446477        0.91886188488078
C           -6.07228577068049       -0.00178554380501        0.00679202554009
C           -4.65339929939909       -0.00061296601337        0.00488298275723
C           -3.92992380448880       -0.75744749953489       -0.94046757247381
C           -2.55941377833087       -0.75325870442707       -0.94254731965737
C           -1.85320614193185        0.00119917947899        0.00149299878055
N           -0.45130571763624        0.00176358698999       -0.00005956713599
C            0.35272965454753        1.11802352932187        0.02365522625856
C            0.00575986325742        2.46360637665645        0.01110147167026
C            1.02260895247776        3.39467615426754        0.02981997249516
C            2.37512792483117        3.02250806466914        0.04502123742348
C            3.42377790816472        4.05101487032335        0.06940711078907
C            3.26891650265619        5.19192163778135        0.86976972072246
C            4.22808748084474        6.18353699978598        0.93084456396577
C            5.36566017756664        6.01937533888246        0.16027255339418
O            6.41984714031588        6.87444987901467        0.07314872890724
C            7.29941229294350        6.30733837139201       -0.79868481996210
C            8.51909000683340        6.82822094559398       -1.19110542079232
C            9.26368539275794        6.08772980275864       -2.09223791405075
C            8.80667310218845        4.86829295168775       -2.58502500049374
C            7.58857850461897        4.34871007958357       -2.19225107464116
C            6.82405462307270        5.07460940381179       -1.28900516014188
C            5.54632382613901        4.88324582630866       -0.65418741475056
C            4.57456334324987        3.89664571676840       -0.69640585441174
C            2.71668951234541        1.67253362671832        0.02459012905292
C            1.71239710734615        0.72156120058910        0.01269838900810
C            1.71276376165205       -0.71682149941927       -0.01780125347429
C            2.71753656531000       -1.66725170728968       -0.03157563505865
C            2.37668311049976       -3.01743669980333       -0.05043591028823
C            3.42587944843112       -4.04534223474895       -0.07584198372677
C            3.27006749911032       -5.18754700180768       -0.87416780326469
C            4.22968835592820       -6.17871000262562       -0.93567521675519
C            5.36876261491736       -6.01271133588603       -0.16771275576946
O            6.42365217874146       -6.86700956955999       -0.08140731155711
C            7.30471166120195       -6.29794339292681        0.78765124785543
C            8.52556871181334       -6.81737711308209        1.17832399736193
C            9.27163583565712       -6.07487293856068        2.07658304338239
C            8.81492011475890       -4.85489340860617        2.56830112859601
C            7.59562354656345       -4.33678355925348        2.17732337482153
C            6.82962683325449       -5.06471671809579        1.27697299088821
C            5.55043923038918       -4.87519096593875        0.64457074457152
C            4.57816406440609       -3.88914669295049        0.68734917136506
C            1.02440414964497       -3.39033925312378       -0.03213130866785
C            0.00709661132822       -2.45981178141371       -0.01168289228562
C            0.35330400381673       -1.11404347000121       -0.02552421340282
C           -2.55808140947639        0.75487088888304        0.94714050172554
C           -3.92860773878377        0.75729273170976        0.94836407721047
N           -6.75421767541782       -0.74271259023499       -0.90311166443929
C           -8.11748690069942       -2.32698208508767       -2.77757325050815
C           -8.82350371950185       -3.09243634940397       -3.68241251020701
H          -10.76043169150928       -3.69230192240969       -4.37528300445629
H          -11.97146300623382       -2.31783748500493       -2.72413848645182
H          -10.70780168208679       -0.94370913218016       -1.09932810541765
H           -7.03482919593060        2.30942336791091        2.79659619681251
H           -8.28880849355928        3.68305458784136        4.43004913904985
H          -10.75468323052255        3.67699370824065        4.40487705475737
H          -11.96793263002742        2.30330300898148        2.75472492358879
H          -10.70642162262807        0.93304370005261        1.12496711676863
H           -4.48175204451642       -1.32939930439694       -1.66983074733603
H           -2.01076438351228       -1.31032000023222       -1.68826972180706
H           -1.02759325084685        2.77203372856643       -0.02698635103396
H            0.77287318763489        4.44466503558455        0.00329075570363
H            2.38031597090719        5.28547381512916        1.47555451444129
H            4.10293035076229        7.05363138218815        1.55512160898620
H            8.86750605593196        7.77295110106874       -0.80587006583105
H           10.22060578283634        6.46462787412000       -2.42038728070618
H            9.41843143795155        4.32175937243227       -3.28709885641758
H            7.23499399911696        3.40366427903571       -2.57521699597566
H            4.70006830998628        3.03520935012511       -1.33430573208656
H            3.75293660686682        1.37061151764350        0.03910845099829
H            3.75357499376488       -1.36475125921297       -0.04858172715771
H            2.38029511114700       -5.28256021245649       -1.47800135694649
H            4.10372919597973       -7.04984579891384       -1.55833747420450
H            8.87378098964749       -7.76252506429327        0.79393184489449
H           10.22951808753147       -6.45058788363718        2.40327822599625
H            9.42786142216451       -4.30676012698937        3.26809236651536
H            7.24223637862467       -3.39132462854335        2.55945220996768
H            4.70446660086705       -3.02671894060462        1.32374503417483
H            0.77528498160254       -4.44044303003301       -0.00443873553394
H           -1.02600258199222       -2.76877866715068        0.02885583562256
H           -2.00836324212050        1.31265897263814        1.69153065030498
H           -4.47940472736607        1.32856872001600        1.67903347859567
H           -7.03846041189125       -2.31755658272654       -2.77805358102099
H           -8.29461806700339       -3.69508660423338       -4.40650897331860

 projected vibrational frequencies (cm⁻¹)
eigval :       -0.00    -0.00    -0.00     0.00     0.00     0.00
eigval :        6.49     7.81    10.38    11.46    20.33    20.76
eigval :       25.47    26.62    31.76    38.15    38.33    45.34
eigval :       51.52    60.53    70.57    83.48    87.10    96.06
eigval :      102.67   108.20   109.19   125.89   138.25   138.63
eigval :      148.27   156.95   172.24   177.59   185.16   208.49
eigval :      210.84   220.99   223.06   238.15   246.64   247.54
eigval :      259.24   277.92   277.99   282.66   295.67   321.62
eigval :      338.36   356.45   366.23   366.41   367.30   375.78
eigval :      382.12   385.61   388.32   391.08   392.26   397.71
eigval :      406.14   408.59   418.08   426.46   427.98   433.56
eigval :      437.12   440.23   455.41   474.73   484.53   513.09
eigval :      516.99   534.83   539.21   539.91   541.23   547.09
eigval :      556.83   556.90   563.65   573.30   579.76   582.45
eigval :      584.24   588.08   594.68   598.91   599.28   601.53
eigval :      605.80   620.18   627.53   636.11   641.47   646.41
eigval :      648.97   660.85   663.24   670.23   671.70   684.43
eigval :      693.24   697.26   706.26   707.84   715.72   715.75
eigval :      722.04   759.76   761.59   771.66   778.59   778.64
eigval :      796.50   799.28   803.75   804.05   815.54   815.62
eigval :      829.55   836.26   837.03   846.47   846.86   847.98
eigval :      859.30   867.83   868.33   868.55   870.69   872.37
eigval :      872.42   881.10   881.67   898.14   899.37   901.95
eigval :      903.62   903.64   905.58   906.20   908.53   913.07
eigval :      918.93   921.28   923.26   923.54   923.54   925.09
eigval :      925.98   928.09   928.33   931.98   950.96   982.81
eigval :      986.31   998.76   998.80  1008.25  1030.56  1060.97
eigval :     1061.84  1062.17  1064.59  1065.04  1073.83  1075.25
eigval :     1108.50  1108.86  1118.43  1118.69  1123.66  1125.28
eigval :     1139.03  1140.98  1142.68  1150.05  1154.43  1167.24
eigval :     1171.97  1172.27  1179.34  1179.83  1182.55  1187.77
eigval :     1189.39  1195.08  1196.51  1210.35  1211.31  1219.97
eigval :     1224.39  1238.55  1247.73  1249.22  1249.83  1252.46
eigval :     1253.54  1256.22  1260.68  1267.91  1273.49  1273.82
eigval :     1281.36  1284.98  1301.88  1302.69  1327.39  1331.21
eigval :     1332.29  1339.27  1339.81  1347.01  1348.60  1355.00
eigval :     1355.26  1356.12  1387.43  1405.20  1410.21  1410.23
eigval :     1416.44  1416.75  1418.03  1419.09  1425.71  1433.60
eigval :     1438.96  1442.15  1452.98  1462.67  1463.34  1468.74
eigval :     1473.75  1480.35  1486.25  1486.83  1488.27  1496.61
eigval :     1553.23  1558.16  1563.07  1565.01  1569.47  1570.96
eigval :     1571.03  1571.60  1584.98  1589.04  1590.01  1592.49
eigval :     1595.36  1598.82  1603.25  1616.29  1617.12  3072.95
eigval :     3073.07  3076.88  3077.64  3077.77  3078.37  3082.34
eigval :     3082.35  3086.44  3086.72  3088.27  3088.39  3088.76
eigval :     3089.49  3089.78  3090.54  3091.21  3091.38  3093.45
eigval :     3094.28  3097.90  3098.16  3098.19  3098.87  3098.91
eigval :     3099.45  3099.78  3100.69  3101.05  3102.58  3107.04
eigval :     3107.04  3108.65  3108.70

   temp. (K)  partition function   enthalpy   heat capacity  entropy
                                   cal/mol     cal/K/mol   cal/K/mol   J/K/mol
 298.15  VIB  0.104E+25            28895.729    180.952    181.091
         ROT  0.186E+09              888.752      2.981     40.818
         INT  0.193E+33            29784.481    183.933    221.909
         TR   0.222E+29             1481.254      4.968     45.921
         TOT                       31265.7354   188.9010   267.8300  1120.6007

       T/K    H(0)-H(T)+PV         H(T)/Eh          T*S/Eh         G(T)/Eh
   ------------------------------------------------------------------------
    298.15    0.498251E-01    0.772279E+00    0.127255E+00    0.645024E+00
   ------------------------------------------------------------------------

         :::::::::::::::::::::::::::::::::::::::::::::::::::::
         ::                  THERMODYNAMIC                  ::
         :::::::::::::::::::::::::::::::::::::::::::::::::::::
         :: total free energy        -158.608969429283 Eh   ::
         ::.................................................::
         :: total energy             -159.253993695103 Eh   ::
         :: zero point energy           0.722453816493 Eh   ::
         :: G(RRHO) w/o ZPVE           -0.077429550673 Eh   ::
         :: G(RRHO) contrib.            0.645024265820 Eh   ::
         :::::::::::::::::::::::::::::::::::::::::::::::::::::

           -------------------------------------------------
          | TOTAL ENERGY             -159.253993695103 Eh   |
          | TOTAL ENTHALPY           -158.481714757820 Eh   |
          | TOTAL FREE ENERGY        -158.608969429283 Eh   |
          | GRADIENT NORM               0.000075509284 Eh/α |
           -------------------------------------------------

 * finished run on 2025/09/03 at 17:34:33.795
