   * xtb version 6.7.1 (edcfbbe) compiled by 'albert@albert-system' on 2024-07-22

   ID    Z sym.   atoms
    1    6 C      1-5, 7-13, 15-19, 21-28, 30-46, 48-60, 62, 63
    2    7 N      6, 14, 20, 61
    3    8 O      29, 47
    4    1 H      64-97

          program call               : xtb data2507/gas/BDBFCz-Trz/BDBFCz-Trz_gas_S0_crest.xyz --gfn 2 --ohess vtight --parallel 40 --molden --ceasefiles --namespace data2507/gas/BDBFCz-Trz/BDBFCz-Trz_gas_S0_finalOpt
          :  Hamiltonian                  GFN2-xTB          :
 * total energy  :  -159.3296477 Eh     change       -0.3004146E-08 Eh
 * total energy  :  -159.3296481 Eh     change       -0.3780618E-06 Eh
 * total energy  :  -159.3296485 Eh     change       -0.3767495E-06 Eh
 * total energy  :  -159.3296493 Eh     change       -0.8095487E-06 Eh
 * total energy  :  -159.3296501 Eh     change       -0.7667615E-06 Eh
 * total energy  :  -159.3296506 Eh     change       -0.5033136E-06 Eh
 * total energy  :  -159.3296511 Eh     change       -0.5298650E-06 Eh
 * total energy  :  -159.3296518 Eh     change       -0.7289608E-06 Eh
 * total energy  :  -159.3296525 Eh     change       -0.6704020E-06 Eh
 * total energy  :  -159.3296529 Eh     change       -0.4300301E-06 Eh
 * total energy  :  -159.3296547 Eh     change       -0.3682893E-06 Eh
 * total energy  :  -159.3296551 Eh     change       -0.3252123E-06 Eh
 * total energy  :  -159.3296554 Eh     change       -0.3496621E-06 Eh
 * total energy  :  -159.3296557 Eh     change       -0.3345254E-06 Eh
 * total energy  :  -159.3296561 Eh     change       -0.3391390E-06 Eh
 * total energy  :  -159.3296565 Eh     change       -0.4493633E-06 Eh
 * total energy  :  -159.3296571 Eh     change       -0.5268906E-06 Eh
 * total energy  :  -159.3296574 Eh     change       -0.3787946E-06 Eh
 * total energy  :  -159.3296574 Eh     change       -0.4195982E-08 Eh
   *** GEOMETRY OPTIMIZATION CONVERGED AFTER 22 ITERATIONS ***

 final structure:
================
97
 xtb: 6.7.1 (edcfbbe)
C          -10.19269595863346       -3.19091825931028       -3.56395714148899
C          -10.88106487645685       -2.36871325613161       -2.68535611642078
C          -10.18833431904055       -1.57455319883354       -1.79245212409930
C           -8.79520734292899       -1.59781409772426       -1.77334174803138
C           -8.05830669081758       -0.75645390273939       -0.83004283965798
N           -8.75804124626342       -0.00549006526448        0.01564859937989
C           -8.04955229232100        0.74505686226383        0.85436834886817
C           -8.77601643350843        1.58804048658735        1.80428502885936
C           -8.07867594352316        2.41310907382132        2.68456000901814
C           -8.76729056877674        3.20817567241367        3.57976549158430
C          -10.15318287014949        3.18724954129030        3.60517507696964
C          -10.85162012837332        2.36801824173121        2.73175848952862
C          -10.16902694782184        1.57073675360893        1.83382275685793
N           -6.72026857286541        0.77654062494094        0.88156372073095
C           -6.10102872795944       -0.00626345334261        0.00234254426685
C           -4.64015922327707       -0.00581473402726       -0.00436853113643
C           -3.93952099402690       -0.76784246417968       -0.93830354477936
C           -2.56154183234627       -0.76578123255042       -0.94713559725923
C           -1.85671776047826       -0.00430939545672       -0.01484173936862
N           -0.45973337043898       -0.00346574318436       -0.01894785617416
C            0.34896578029239        1.11619226820413        0.03203919081425
C            0.00675881632605        2.46080362385273        0.03509912917207
C            1.02715071305447        3.38909909276525        0.06385407616400
C            2.37716371650388        3.01329225309824        0.07410206651022
C            3.42783450689524        4.04291243959961        0.10930547625900
C            3.28610816768373        5.15917061311791        0.94418243786273
C            4.24383654287944        6.15238750575379        1.01396861605606
C            5.36632773589228        6.01226727800120        0.21801483993833
O            6.41784011971711        6.87355912927396        0.13405519582630
C            7.28140918742232        6.33190568125732       -0.76865381814573
C            8.49237051620545        6.86608444907144       -1.17030764759870
C            9.22178036905565        6.15151038158713       -2.10406066979010
C            8.75846937348419        4.94401754794601       -2.61990734465199
C            7.54904062259981        4.41131044828039       -2.21838713709930
C            6.79968264719868        5.11114257233785       -1.28240177052411
C            5.53438843474214        4.89960627202068       -0.62966335858762
C            4.56286102244630        3.91230772138475       -0.68168860037775
C            2.71365831067771        1.66625102731055        0.03569222146965
C            1.70432483625172        0.71689964956624        0.01208960545103
C            1.70576112200449       -0.71946116039253       -0.04387241177699
C            2.71716558449231       -1.66664928973196       -0.06262390695578
C            2.38389127820953       -3.01455426841424       -0.09965087928969
C            3.43734973868658       -4.04158112069937       -0.12660647912490
C            3.30193991006041       -5.16254349568024       -0.95619160954127
C            4.26272023565091       -6.15340837290041       -1.01728967568534
C            5.38184234205772       -6.00613672460269       -0.21788247971489
O            6.43516423972737       -6.86431605718334       -0.12500844468874
C            7.29330641670861       -6.31606072616497        0.77892493640059
C            8.50331407930254       -6.84565801282918        1.18944628412187
C            9.22634636382741       -6.12502440724370        2.12350980604536
C            8.75792942090923       -4.91590829209105        2.63088961230889
C            7.54956315256316       -4.38767506111218        2.22036615322305
C            6.80640172804355       -5.09380211299229        1.28417097975376
C            5.54352013095189       -4.88871024671322        0.62472786995129
C            4.56909108818421       -3.90389729265135        0.66797285591902
C            1.03461750195095       -3.39313992172710       -0.09451574297246
C            0.01209093951124       -2.46696993087886       -0.07091723515529
C            0.35125064184076       -1.12160935539315       -0.06749728352000
C           -2.55539640820925        0.75668354334955        0.92252515729172
C           -3.93323723897474        0.75724658069805        0.92402831269442
N           -6.72928563933822       -0.78888288159236       -0.87058074224847
C           -8.10802446104736       -2.42623329147467       -2.65841953215878
C           -8.80676652645490       -3.21826844755099       -3.54847322813540
H          -10.73685540301322       -3.81100538399999       -4.26139689198634
H          -11.96100685684029       -2.34907257033275       -2.69930077482454
H          -10.70677635378030       -0.92815724664088       -1.10200054506246
H           -7.00066242984685        2.41682487785584        2.64980479824880
H           -8.22518899309106        3.84749346735260        4.26119021746204
H          -10.68944001490532        3.80998624787608        4.30636516756475
H          -11.93150520127548        2.35320816340532        2.75363423591964
H          -10.69540689604616        0.92663664115801        1.14724236960825
H           -4.49599380052730       -1.34755275749514       -1.65750746558459
H           -2.01839566385073       -1.33514791011420       -1.68642363792780
H           -1.02443560444940        2.77781811954321       -0.00023453170821
H            0.77996382236879        4.44020427247356        0.05170794698267
H            2.40777597132119        5.23381481425977        1.56764701266025
H            4.12807646706173        7.00510302430136        1.66368122744610
H            8.84588062864535        7.80148501613294       -0.76717259004069
H           10.17165644121649        6.53951309683549       -2.43988912673417
H            9.35851236619118        4.41749186549946       -3.34704750810339
H            7.19040265857197        3.47551273152881       -2.61906239951798
H            4.67812054624348        3.06749807585548       -1.34345588147733
H            3.74862082812599        1.35960241678328        0.04142356587359
H            3.75140741035169       -1.35755914519407       -0.06502419583904
H            2.42613763828994       -5.24309354390722       -1.58246129829788
H            4.15167244997503       -7.00985298491895       -1.66290631591235
H            8.86082231531992       -7.78235783869472        0.79289161276781
H           10.17511283667184       -6.50953493799482        2.46643664019554
H            9.35304307142539       -4.38460908053299        3.35861560374591
H            7.18699948805226       -3.45057421047046        2.61441970582032
H            4.67953934470406       -3.05559154113679        1.32606222733184
H            0.78944511429753       -4.44470727859070       -0.08185201368394
H           -1.01850517570220       -2.78628596663637       -0.03924926092997
H           -2.00734690043761        1.32670423334844        1.65767330226485
H           -4.48496927305072        1.33645398848480        1.64724284495029
H           -7.02980824775696       -2.43471594785680       -2.63156170300117
H           -8.27257042783653       -3.86007473945139       -4.23378798344747

          :  Hamiltonian                  GFN2-xTB          :
         :: gradient norm              0.000047556952 Eh/a0 ::
         :: HOMO-LUMO gap              1.992592628338 eV    ::
         :: SCC energy              -162.203655535973 Eh    ::
         :: -> dispersion             -0.131873919060 Eh    ::
         :: repulsion energy           2.873998099788 Eh    ::

    * Orbital Energies and Occupations

         #    Occupation            Energy/Eh            Energy/eV
      -------------------------------------------------------------
         1        2.0000           -0.7324941             -19.9322
       ...           ...                  ...                  ...
       135        2.0000           -0.4115048             -11.1976
       136        2.0000           -0.4092579             -11.1365
       137        2.0000           -0.4074556             -11.0874
       138        2.0000           -0.4065210             -11.0620
       139        2.0000           -0.4035545             -10.9813
       140        2.0000           -0.3877209             -10.5504
       141        2.0000           -0.3864953             -10.5171
       142        2.0000           -0.3864650             -10.5162
       143        2.0000           -0.3862930             -10.5116
       144        2.0000           -0.3761309             -10.2350
       145        2.0000           -0.3704968             -10.0817
       146        2.0000           -0.3700464             -10.0695
       147        2.0000           -0.3606203              -9.8130 (HOMO)
       148                         -0.2873938              -7.8204 (LUMO)
       149                         -0.2854883              -7.7685
       150                         -0.2521350              -6.8609
       151                         -0.2521242              -6.8606
       152                         -0.2498742              -6.7994
       153                         -0.2453651              -6.6767
       154                         -0.2445563              -6.6547
       155                         -0.2362282              -6.4281
       156                         -0.2342950              -6.3755
       157                         -0.2285821              -6.2200
       158                         -0.2285625              -6.2195
       ...                                ...                  ...
       286                          0.7533316              20.4992
      -------------------------------------------------------------
                  HL-Gap            0.0732264 Eh            1.9926 eV

     #   Z          covCN         q      C6AA      α(0)
     1   6 C        2.920    -0.023    28.589     8.768
     2   6 C        2.918    -0.027    28.685     8.783
     3   6 C        2.924    -0.023    28.587     8.768
     4   6 C        2.984    -0.000    28.025     8.684
     5   6 C        2.982     0.202    23.709     7.987
     6   7 N        1.844    -0.295    28.496     7.911
     7   6 C        2.982     0.202    23.709     7.987
     8   6 C        2.984    -0.000    28.025     8.684
     9   6 C        2.924    -0.024    28.592     8.769
    10   6 C        2.918    -0.027    28.688     8.783
    11   6 C        2.920    -0.023    28.589     8.768
    12   6 C        2.918    -0.027    28.685     8.783
    13   6 C        2.924    -0.023    28.587     8.768
    14   7 N        1.844    -0.296    28.530     7.916
    15   6 C        2.983     0.202    23.720     7.989
    16   6 C        2.984    -0.004    28.119     8.698
    17   6 C        2.923    -0.024    28.592     8.769
    18   6 C        2.920    -0.043    29.059     8.840
    19   6 C        2.913     0.069    26.454     8.434
    20   7 N        2.802    -0.038    21.973     6.962
    21   6 C        3.075     0.045    26.915     8.506
    22   6 C        2.908    -0.051    29.258     8.869
    23   6 C        2.929    -0.038    28.945     8.823
    24   6 C        2.977     0.001    27.995     8.679
    25   6 C        2.977     0.003    27.944     8.671
    26   6 C        2.931    -0.038    28.948     8.824
    27   6 C        2.907    -0.053    29.324     8.879
    28   6 C        3.103     0.127    25.098     8.209
    29   8 O        1.714    -0.225    17.738     5.687
    30   6 C        3.102     0.129    25.050     8.202
    31   6 C        2.909    -0.052    29.297     8.875
    32   6 C        2.926    -0.032    28.809     8.802
    33   6 C        2.921    -0.039    28.961     8.825
    34   6 C        2.913    -0.033    28.833     8.805
    35   6 C        3.056    -0.019    28.432     8.745
    36   6 C        3.053    -0.020    28.461     8.749
    37   6 C        2.918    -0.040    28.986     8.829
    38   6 C        2.918    -0.038    28.939     8.822
    39   6 C        3.065    -0.016    28.346     8.730
    40   6 C        3.065    -0.016    28.346     8.730
    41   6 C        2.918    -0.038    28.939     8.822
    42   6 C        2.977     0.001    27.995     8.679
    43   6 C        2.977     0.003    27.944     8.671
    44   6 C        2.931    -0.038    28.948     8.824
    45   6 C        2.907    -0.053    29.324     8.879
    46   6 C        3.103     0.127    25.098     8.209
    47   8 O        1.714    -0.226    17.738     5.687
    48   6 C        3.102     0.129    25.050     8.202
    49   6 C        2.909    -0.052    29.297     8.875
    50   6 C        2.926    -0.032    28.809     8.802
    51   6 C        2.921    -0.039    28.961     8.825
    52   6 C        2.913    -0.033    28.833     8.805
    53   6 C        3.056    -0.019    28.432     8.745
    54   6 C        3.053    -0.020    28.461     8.749
    55   6 C        2.918    -0.040    28.986     8.829
    56   6 C        2.929    -0.038    28.944     8.823
    57   6 C        2.908    -0.051    29.259     8.870
    58   6 C        3.075     0.045    26.915     8.506
    59   6 C        2.921    -0.043    29.059     8.840
    60   6 C        2.923    -0.024    28.593     8.769
    61   7 N        1.844    -0.296    28.530     7.916
    62   6 C        2.924    -0.024    28.592     8.769
    63   6 C        2.918    -0.027    28.687     8.783
    64   1 H        0.926     0.037     2.493     2.469
    65   1 H        0.926     0.037     2.491     2.468
    66   1 H        0.926     0.055     2.256     2.349
    67   1 H        0.926     0.054     2.266     2.354
    68   1 H        0.926     0.037     2.493     2.469
    69   1 H        0.926     0.037     2.493     2.469
    70   1 H        0.926     0.037     2.491     2.468
    71   1 H        0.926     0.055     2.256     2.349
    72   1 H        0.926     0.061     2.192     2.315
    73   1 H        0.926     0.046     2.367     2.406
    74   1 H        0.926     0.031     2.570     2.507
    75   1 H        0.926     0.034     2.528     2.487
    76   1 H        0.926     0.040     2.445     2.445
    77   1 H        0.926     0.045     2.377     2.411
    78   1 H        0.926     0.046     2.376     2.410
    79   1 H        0.926     0.038     2.469     2.457
    80   1 H        0.926     0.036     2.507     2.476
    81   1 H        0.926     0.037     2.487     2.466
    82   1 H        0.926     0.039     2.466     2.456
    83   1 H        0.926     0.035     2.517     2.481
    84   1 H        0.926     0.035     2.517     2.481
    85   1 H        0.926     0.040     2.445     2.445
    86   1 H        0.926     0.045     2.377     2.411
    87   1 H        0.926     0.046     2.376     2.410
    88   1 H        0.926     0.038     2.469     2.457
    89   1 H        0.926     0.036     2.507     2.476
    90   1 H        0.926     0.037     2.487     2.466
    91   1 H        0.926     0.039     2.466     2.456
    92   1 H        0.926     0.034     2.528     2.487
    93   1 H        0.926     0.031     2.570     2.507
    94   1 H        0.926     0.046     2.367     2.406
    95   1 H        0.926     0.061     2.191     2.314
    96   1 H        0.926     0.054     2.266     2.354
    97   1 H        0.926     0.037     2.493     2.469

molecular dipole:
                 x           y           z       tot (Debye)
 q only:       -0.592       0.001      -0.001
   full:       -0.650       0.001       0.000       1.651

 projected vibrational frequencies (cm⁻¹)
eigval :       -0.00    -0.00    -0.00    -0.00    -0.00     0.00
eigval :        4.12     8.10    10.98    11.09    16.22    20.22
eigval :       20.70    22.26    32.50    37.17    40.36    46.92
eigval :       53.98    60.57    68.03    83.42    87.31    93.30
eigval :       98.09   102.59   109.07   126.01   140.02   141.06
eigval :      149.56   156.92   173.17   180.51   182.48   204.53
eigval :      208.84   213.59   222.65   240.01   257.08   259.61
eigval :      265.01   278.45   280.45   288.04   296.57   321.49
eigval :      355.26   360.57   363.97   364.78   378.48   383.54
eigval :      387.71   391.81   392.83   399.56   401.85   413.32
eigval :      413.42   423.01   424.98   429.89   431.66   436.09
eigval :      446.14   457.60   460.60   484.61   490.69   512.76
eigval :      517.08   534.40   539.53   540.12   553.37   561.22
eigval :      569.39   569.99   584.16   587.56   588.08   598.96
eigval :      600.99   603.02   605.73   614.62   623.47   626.13
eigval :      626.44   628.33   639.77   642.75   649.16   663.33
eigval :      673.92   677.29   683.35   693.04   696.22   697.44
eigval :      708.23   711.66   715.52   715.54   730.46   752.09
eigval :      772.10   775.49   778.73   778.86   794.62   797.52
eigval :      814.35   815.38   828.66   829.59   837.34   838.28
eigval :      846.76   846.84   847.50   848.01   860.47   869.36
eigval :      871.47   872.49   872.74   874.63   876.92   877.26
eigval :      884.43   884.61   903.43   903.46   906.77   907.25
eigval :      909.17   910.18   910.63   913.68   917.02   921.25
eigval :      923.58   923.60   929.17   929.25   930.91   933.44
eigval :      933.81   935.91   941.47   976.03   990.75   999.33
eigval :     1008.59  1015.27  1032.24  1047.59  1062.37  1062.47
eigval :     1067.64  1068.65  1075.01  1075.70  1089.46  1107.62
eigval :     1111.81  1118.85  1118.93  1123.82  1129.08  1142.31
eigval :     1144.09  1160.64  1163.18  1166.85  1172.86  1173.11
eigval :     1180.34  1181.10  1182.68  1189.75  1193.65  1195.68
eigval :     1204.21  1205.06  1207.08  1210.55  1212.69  1221.08
eigval :     1226.96  1242.90  1248.44  1250.24  1251.10  1253.90
eigval :     1255.05  1262.49  1268.73  1270.18  1276.45  1287.79
eigval :     1306.60  1315.09  1326.59  1328.15  1329.85  1340.18
eigval :     1340.94  1347.02  1354.56  1355.25  1358.21  1360.79
eigval :     1371.09  1372.40  1386.41  1407.36  1412.45  1413.59
eigval :     1417.32  1418.12  1419.31  1432.09  1434.22  1435.91
eigval :     1459.11  1464.48  1468.28  1475.65  1479.14  1481.78
eigval :     1491.15  1492.87  1495.56  1512.76  1514.21  1559.90
eigval :     1567.45  1567.51  1571.17  1577.96  1584.26  1585.73
eigval :     1590.95  1591.27  1592.01  1595.32  1595.61  1595.80
eigval :     1599.16  1601.07  1611.98  1618.29  1619.71  3074.30
eigval :     3074.35  3080.52  3080.65  3081.48  3081.54  3082.12
eigval :     3082.34  3087.23  3088.29  3088.92  3089.13  3089.17
eigval :     3089.69  3090.03  3090.32  3090.53  3091.62  3092.93
eigval :     3093.74  3094.65  3095.02  3097.58  3097.63  3105.91
eigval :     3105.94  3107.44  3107.84  3107.87  3107.91  3107.97
eigval :     3109.45  3111.32  3111.83

   temp. (K)  partition function   enthalpy   heat capacity  entropy
                                   cal/mol     cal/K/mol   cal/K/mol   J/K/mol
 298.15  VIB  0.193E+25            28506.500    177.941    180.002
         ROT  0.186E+09              888.752      2.981     40.816
         INT  0.358E+33            29395.252    180.922    220.819
         TR   0.222E+29             1481.254      4.968     45.921
         TOT                       30876.5058   185.8899   266.7398  1116.0392

       T/K    H(0)-H(T)+PV         H(T)/Eh          T*S/Eh         G(T)/Eh
   ------------------------------------------------------------------------
    298.15    0.492048E-01    0.777380E+00    0.126737E+00    0.650644E+00
   ------------------------------------------------------------------------

         :::::::::::::::::::::::::::::::::::::::::::::::::::::
         ::                  THERMODYNAMIC                  ::
         :::::::::::::::::::::::::::::::::::::::::::::::::::::
         :: total free energy        -158.679013691949 Eh   ::
         ::.................................................::
         :: total energy             -159.329657436191 Eh   ::
         :: zero point energy           0.728175568486 Eh   ::
         :: G(RRHO) w/o ZPVE           -0.077531824244 Eh   ::
         :: G(RRHO) contrib.            0.650643744242 Eh   ::
         :::::::::::::::::::::::::::::::::::::::::::::::::::::

           -------------------------------------------------
          | TOTAL ENERGY             -159.329657436191 Eh   |
          | TOTAL ENTHALPY           -158.552277023670 Eh   |
          | TOTAL FREE ENERGY        -158.679013691949 Eh   |
          | GRADIENT NORM               0.000047553166 Eh/α |
          | HOMO-LUMO GAP               1.992592923611 eV   |
           -------------------------------------------------

 * finished run on 2025/09/03 at 17:34:10.942
