   * xtb version 6.7.1 (edcfbbe) compiled by 'albert@albert-system' on 2024-07-22

   ID    Z sym.   atoms
    1    6 C      1-5, 7-13, 15-19, 21-28, 30-46, 48-60, 62, 63
    2    7 N      6, 14, 20, 61
    3    8 O      29, 47
    4    1 H      64-97

          program call               : xtb data2507/gas/BDBFCz-Trz/BDBFCz-Trz.xyz --gfn 2 --ohess vtight --parallel 40 --molden --ceasefiles --namespace data2507/gas/BDBFCz-Trz/BDBFCz-Trz_gas_S0_preOpt
          :  Hamiltonian                  GFN2-xTB          :
 * total energy  :  -159.3048561 Eh     change       -0.2439663E-08 Eh
 * total energy  :  -159.3207311 Eh     change       -0.1587509E-01 Eh
 * total energy  :  -159.3249590 Eh     change       -0.4227840E-02 Eh
 * total energy  :  -159.3265045 Eh     change       -0.1545499E-02 Eh
 * total energy  :  -159.3276250 Eh     change       -0.1120518E-02 Eh
 * total energy  :  -159.3280056 Eh     change       -0.3805595E-03 Eh
 * total energy  :  -159.3281537 Eh     change       -0.1480899E-03 Eh
 * total energy  :  -159.3282712 Eh     change       -0.1175089E-03 Eh
 * total energy  :  -159.3283834 Eh     change       -0.1122770E-03 Eh
 * total energy  :  -159.3285003 Eh     change       -0.1168371E-03 Eh
 * total energy  :  -159.3296332 Eh     change       -0.5094527E-06 Eh
 * total energy  :  -159.3296338 Eh     change       -0.5871488E-06 Eh
 * total energy  :  -159.3296345 Eh     change       -0.6706674E-06 Eh
 * total energy  :  -159.3296351 Eh     change       -0.6521037E-06 Eh
 * total energy  :  -159.3296356 Eh     change       -0.5286537E-06 Eh
 * total energy  :  -159.3296361 Eh     change       -0.4464408E-06 Eh
 * total energy  :  -159.3296366 Eh     change       -0.4715444E-06 Eh
 * total energy  :  -159.3296370 Eh     change       -0.4536500E-06 Eh
 * total energy  :  -159.3296370 Eh     change       -0.4292673E-08 Eh
   *** GEOMETRY OPTIMIZATION CONVERGED AFTER 68 ITERATIONS ***

 final structure:
================
97
 xtb: 6.7.1 (edcfbbe)
C           -9.14039199315722       -3.81009654164898       -3.31715973983781
C           -9.90583046087559       -2.86976719472949       -2.64508009606403
C           -9.29685417790171       -1.93212861779217       -1.83398084626563
C           -7.91088070024253       -1.92907601388473       -1.69011680706306
C           -7.26234114301954       -0.93772097000478       -0.83139146708675
N           -8.03619058176321       -0.08281753360494       -0.16881241744313
C           -7.40616500237747        0.79950350965983        0.60149995064344
C           -8.21658730627943        1.75995941656002        1.35077492849189
C           -7.60215638903996        2.73004098289122        2.14025806932764
C           -8.37013639462264        3.63516084178464        2.84646319718754
C           -9.75335565716817        3.58069048832867        2.77214918519829
C          -10.36948301764704        2.61751868351624        1.98824015914952
C           -9.60729025444970        1.70972194307073        1.27914504266140
N           -6.08403512338282        0.86176933137943        0.73222215723447
C           -5.38736684940298       -0.02996789047134        0.03322443833857
C           -3.93098588175409       -0.00199288512699        0.14384419571886
C           -3.15105272750215       -0.86365717819855       -0.62633073790653
C           -1.77720040312948       -0.83855745136714       -0.52519578968635
C           -1.15594961218596        0.04603552409449        0.35667127879084
N            0.23673314012214        0.06682215896935        0.46398209814947
C            1.03701913520033        1.19340540948419        0.42864488394062
C            0.69316816221633        2.52373048625366        0.23655305865262
C            1.70873384751120        3.45759587831904        0.20507675682050
C            3.05514813243357        3.10068782479313        0.35660071382696
C            4.10051705100561        4.13581339782955        0.32090889424631
C            5.16354580123327        4.08523942479320        1.23215117224383
C            6.17090597983354        5.03063979983446        1.24086742258192
C            6.10108901034654        6.04463289018924        0.30265380724248
O            6.98765446510667        7.06532496374481        0.13885323791577
C            6.51940639377600        7.81257741392166       -0.89857350845117
C            7.10249953340732        8.95399678569754       -1.41847065638222
C            6.46122667516316        9.56570303027909       -2.48107633391322
C            5.27732082220285        9.05571424648531       -3.00751426412666
C            4.69555949815607        7.91599542262999       -2.48764894477896
C            5.32152391806087        7.28506387332678       -1.42116653343617
C            5.04442948689784        6.11763823094631       -0.62628619473641
C            4.04078338656910        5.16166736687249       -0.61428669187160
C            3.39520734899398        1.76467061698051        0.52536697089942
C            2.39149481745323        0.80974100919672        0.55293295534550
C            2.40088026351048       -0.62226939666828        0.67566069055754
C            3.41438376702634       -1.55241550913079        0.84302585343771
C            3.08830031131402       -2.89817795097093        0.95028954891504
C            4.14297883228677       -3.91138239682480        1.11224765477879
C            5.22455769732427       -3.66605057958244        1.96834019824335
C            6.23953668083147       -4.58478652475907        2.15357100308337
C            6.15797410044497       -5.77452905126061        1.45276208622684
O            7.04837269404104       -6.80432332907890        1.48944679420542
C            6.56318826890798       -7.75639962645863        0.64567623328910
C            7.14266542066549       -8.98127219697471        0.36813388773245
C            6.48274920821379       -9.80697285144601       -0.52475241421195
C            5.28440201252605       -9.42340902935867       -1.12113947168534
C            4.70626839009892       -8.20021542137587       -0.84328321842135
C            5.35063393512928       -7.35505025366429        0.04989850228387
C            5.08225068712148       -6.04598954458602        0.58452073881054
C            4.07175830610909       -5.11220024256323        0.41668378796927
C            1.74298922308720       -3.28871633203586        0.91187980736142
C            0.71816303810360       -2.37859660389772        0.75272575451816
C            1.05237331504199       -1.03938914185047        0.61126883510726
C           -1.93405081132209        0.90752485815203        1.13012736274744
C           -3.30755313052744        0.88490842329059        1.02053414868930
N           -5.93435987628696       -0.94693410327282       -0.76009926371494
C           -7.14597599429599       -2.87626006261160       -2.36809111719201
C           -7.76120757720256       -3.81155551710548       -3.17707795538547
H           -9.61916565704403       -4.54255758304698       -3.95066053891650
H          -10.98032761010875       -2.87047249722047       -2.75600602042656
H           -9.87596413477551       -1.19253193205607       -1.30391316494777
H           -6.52485205103126        2.75778279342988        2.18503362570362
H           -7.89228052710049        4.38681402200056        3.45769585117381
H          -10.35176236979034        4.28957603823172        3.32571180276924
H          -11.44747119121175        2.57691171726902        1.93211092530865
H          -10.06902122031308        0.95288138901369        0.66485941850192
H           -3.64290159530465       -1.53895806853082       -1.30826446962456
H           -1.17148846285176       -1.48681016428238       -1.14049519615495
H           -0.33476247457409        2.82493125757743        0.10365672447501
H            1.45843442437003        4.50023327029096        0.07686326048075
H            5.18296552290261        3.29090444144634        1.96323438647275
H            6.98169795508485        4.98699771142873        1.95035192458444
H            8.01945023876159        9.34408527951006       -1.00676615131630
H            6.88912142426897       10.45851674961980       -2.91163585117732
H            4.80876224497011        9.56317140174789       -3.83754532546245
H            3.77825202085917        7.52079326656092       -2.89665198591007
H            3.23900637955510        5.20318419958260       -1.33565195917076
H            4.43024172798124        1.46862556705525        0.60454685534962
H            4.44538913739719       -1.23401759420463        0.86999676637156
H            5.25289901931363       -2.73604661920692        2.51602137619214
H            7.06467985337534       -4.38947066121231        2.81962954274149
H            8.07083193581935       -9.27271510676541        0.83292422668616
H            6.90714665427062      -10.77036542859086       -0.76423100410716
H            4.80146644469581      -10.09731367029424       -1.81298460250395
H            3.77761387971830       -7.90330961479492       -1.30627828612548
H            3.25460929595728       -5.30831634186958       -0.26065251259564
H            1.50152384652593       -4.33386064708448        1.03676081011895
H           -0.31124975377477       -2.70333956642516        0.75505259990673
H           -1.45214371610344        1.57499601769269        1.82868877459543
H           -3.92041881706876        1.54128993185798        1.61767287057455
H           -6.07440165318959       -2.86285422150219       -2.24599747244252
H           -7.16687146358382       -4.54557162817875       -3.70142119401678

          :  Hamiltonian                  GFN2-xTB          :
         :: gradient norm              0.000047657384 Eh/a0 ::
         :: HOMO-LUMO gap              1.992281072677 eV    ::
         :: SCC energy              -162.203761826311 Eh    ::
         :: -> dispersion             -0.131896102046 Eh    ::
         :: repulsion energy           2.874124816553 Eh    ::

    * Orbital Energies and Occupations

         #    Occupation            Energy/Eh            Energy/eV
      -------------------------------------------------------------
         1        2.0000           -0.7324280             -19.9304
       ...           ...                  ...                  ...
       135        2.0000           -0.4115379             -11.1985
       136        2.0000           -0.4088840             -11.1263
       137        2.0000           -0.4074630             -11.0876
       138        2.0000           -0.4066049             -11.0643
       139        2.0000           -0.4035099             -10.9801
       140        2.0000           -0.3872249             -10.5369
       141        2.0000           -0.3866003             -10.5199
       142        2.0000           -0.3864439             -10.5157
       143        2.0000           -0.3863574             -10.5133
       144        2.0000           -0.3762153             -10.2373
       145        2.0000           -0.3705659             -10.0836
       146        2.0000           -0.3701194             -10.0715
       147        2.0000           -0.3606271              -9.8132 (HOMO)
       148                         -0.2874121              -7.8209 (LUMO)
       149                         -0.2855549              -7.7703
       150                         -0.2521191              -6.8605
       151                         -0.2521022              -6.8601
       152                         -0.2498759              -6.7995
       153                         -0.2453398              -6.6760
       154                         -0.2443495              -6.6491
       155                         -0.2362571              -6.4289
       156                         -0.2340761              -6.3695
       157                         -0.2287103              -6.2235
       158                         -0.2286104              -6.2208
       ...                                ...                  ...
       286                          0.7522293              20.4692
      -------------------------------------------------------------
                  HL-Gap            0.0732150 Eh            1.9923 eV

     #   Z          covCN         q      C6AA      α(0)
     1   6 C        2.920    -0.023    28.590     8.768
     2   6 C        2.918    -0.027    28.685     8.783
     3   6 C        2.924    -0.023    28.587     8.768
     4   6 C        2.984    -0.000    28.025     8.684
     5   6 C        2.982     0.202    23.709     7.987
     6   7 N        1.844    -0.295    28.497     7.911
     7   6 C        2.982     0.202    23.709     7.987
     8   6 C        2.984    -0.000    28.025     8.684
     9   6 C        2.924    -0.024    28.592     8.769
    10   6 C        2.918    -0.027    28.687     8.783
    11   6 C        2.920    -0.023    28.589     8.768
    12   6 C        2.918    -0.027    28.685     8.783
    13   6 C        2.924    -0.023    28.588     8.768
    14   7 N        1.844    -0.296    28.530     7.916
    15   6 C        2.983     0.202    23.720     7.989
    16   6 C        2.984    -0.004    28.120     8.698
    17   6 C        2.923    -0.024    28.594     8.769
    18   6 C        2.921    -0.043    29.060     8.840
    19   6 C        2.913     0.069    26.454     8.434
    20   7 N        2.802    -0.038    21.975     6.962
    21   6 C        3.074     0.045    26.916     8.506
    22   6 C        2.908    -0.051    29.261     8.870
    23   6 C        2.929    -0.038    28.939     8.822
    24   6 C        2.977     0.001    27.994     8.679
    25   6 C        2.978     0.003    27.943     8.671
    26   6 C        2.931    -0.038    28.943     8.823
    27   6 C        2.907    -0.053    29.321     8.879
    28   6 C        3.102     0.127    25.098     8.209
    29   8 O        1.714    -0.225    17.736     5.686
    30   6 C        3.102     0.129    25.049     8.201
    31   6 C        2.909    -0.052    29.296     8.875
    32   6 C        2.926    -0.032    28.810     8.802
    33   6 C        2.921    -0.039    28.962     8.825
    34   6 C        2.913    -0.033    28.834     8.805
    35   6 C        3.056    -0.019    28.433     8.745
    36   6 C        3.053    -0.020    28.462     8.749
    37   6 C        2.918    -0.040    28.987     8.829
    38   6 C        2.918    -0.038    28.943     8.822
    39   6 C        3.065    -0.016    28.344     8.730
    40   6 C        3.065    -0.016    28.345     8.730
    41   6 C        2.918    -0.038    28.944     8.822
    42   6 C        2.977     0.001    27.994     8.679
    43   6 C        2.978     0.003    27.943     8.671
    44   6 C        2.931    -0.038    28.943     8.823
    45   6 C        2.907    -0.053    29.321     8.879
    46   6 C        3.103     0.127    25.098     8.209
    47   8 O        1.714    -0.225    17.736     5.686
    48   6 C        3.102     0.129    25.049     8.201
    49   6 C        2.909    -0.052    29.296     8.875
    50   6 C        2.926    -0.032    28.810     8.802
    51   6 C        2.921    -0.039    28.963     8.825
    52   6 C        2.913    -0.034    28.835     8.805
    53   6 C        3.056    -0.019    28.433     8.745
    54   6 C        3.053    -0.020    28.463     8.750
    55   6 C        2.918    -0.040    28.988     8.829
    56   6 C        2.929    -0.038    28.939     8.822
    57   6 C        2.908    -0.051    29.260     8.870
    58   6 C        3.075     0.045    26.915     8.506
    59   6 C        2.920    -0.043    29.060     8.840
    60   6 C        2.923    -0.024    28.592     8.769
    61   7 N        1.844    -0.296    28.532     7.916
    62   6 C        2.924    -0.024    28.592     8.769
    63   6 C        2.918    -0.027    28.688     8.783
    64   1 H        0.926     0.037     2.494     2.469
    65   1 H        0.926     0.037     2.491     2.468
    66   1 H        0.926     0.055     2.256     2.349
    67   1 H        0.926     0.054     2.265     2.354
    68   1 H        0.926     0.037     2.493     2.469
    69   1 H        0.926     0.037     2.493     2.469
    70   1 H        0.926     0.037     2.491     2.468
    71   1 H        0.926     0.055     2.256     2.349
    72   1 H        0.926     0.061     2.192     2.315
    73   1 H        0.926     0.046     2.368     2.406
    74   1 H        0.926     0.031     2.570     2.507
    75   1 H        0.926     0.034     2.530     2.488
    76   1 H        0.926     0.041     2.440     2.443
    77   1 H        0.926     0.046     2.374     2.409
    78   1 H        0.926     0.046     2.375     2.410
    79   1 H        0.926     0.038     2.469     2.457
    80   1 H        0.926     0.036     2.509     2.477
    81   1 H        0.926     0.037     2.490     2.468
    82   1 H        0.926     0.038     2.471     2.458
    83   1 H        0.926     0.035     2.514     2.480
    84   1 H        0.926     0.035     2.512     2.479
    85   1 H        0.926     0.041     2.440     2.443
    86   1 H        0.926     0.046     2.374     2.409
    87   1 H        0.926     0.046     2.375     2.410
    88   1 H        0.926     0.038     2.469     2.457
    89   1 H        0.926     0.036     2.509     2.477
    90   1 H        0.926     0.037     2.491     2.468
    91   1 H        0.926     0.038     2.472     2.459
    92   1 H        0.926     0.034     2.531     2.488
    93   1 H        0.926     0.031     2.570     2.507
    94   1 H        0.926     0.046     2.366     2.405
    95   1 H        0.926     0.061     2.192     2.315
    96   1 H        0.926     0.054     2.266     2.354
    97   1 H        0.926     0.037     2.494     2.470

molecular dipole:
                 x           y           z       tot (Debye)
 q only:       -1.001      -0.037      -0.343
   full:       -0.996      -0.034      -0.308       2.651

 projected vibrational frequencies (cm⁻¹)
eigval :       -0.00    -0.00    -0.00     0.00     0.00     0.00
eigval :        4.34     8.79     9.98    12.07    16.86    20.79
eigval :       22.30    23.62    28.78    35.04    38.28    53.07
eigval :       55.60    63.56    71.58    80.02    86.54    92.61
eigval :      100.95   104.13   113.33   120.54   128.73   140.71
eigval :      151.06   152.55   162.81   182.56   190.78   196.17
eigval :      206.28   219.70   225.45   237.61   246.79   262.49
eigval :      269.64   279.98   281.32   287.27   295.99   320.73
eigval :      354.69   363.95   364.44   364.84   378.23   380.90
eigval :      392.01   392.83   396.92   399.19   401.96   413.24
eigval :      413.96   425.20   428.70   428.86   432.22   436.25
eigval :      446.33   456.04   460.61   480.87   490.31   515.76
eigval :      518.97   533.39   539.52   539.60   553.49   560.95
eigval :      566.44   573.04   578.47   587.55   588.07   599.52
eigval :      601.80   603.75   613.85   615.07   616.78   624.52
eigval :      625.11   626.40   640.59   644.67   647.18   663.55
eigval :      673.99   676.67   682.73   693.48   695.38   698.29
eigval :      708.37   711.49   715.48   715.55   729.57   752.14
eigval :      769.10   775.50   778.70   778.75   794.70   798.89
eigval :      812.65   816.21   829.03   834.71   835.06   838.43
eigval :      846.67   847.01   847.50   848.13   860.66   872.13
eigval :      872.21   872.52   874.99   875.32   875.68   877.31
eigval :      880.50   881.69   903.28   903.35   909.21   909.70
eigval :      910.62   910.79   912.27   912.95   914.39   920.30
eigval :      923.48   923.52   929.22   929.29   930.90   933.47
eigval :      933.83   936.01   941.42   976.01   990.75   999.48
eigval :     1009.03  1015.26  1031.79  1047.58  1062.46  1062.46
eigval :     1068.72  1069.16  1075.02  1075.71  1089.46  1107.66
eigval :     1111.81  1118.89  1119.11  1123.91  1130.40  1141.21
eigval :     1141.75  1158.62  1163.29  1166.89  1172.81  1173.13
eigval :     1180.35  1180.89  1181.91  1188.63  1193.83  1195.36
eigval :     1204.20  1204.89  1207.03  1209.53  1212.17  1222.59
eigval :     1228.13  1243.57  1248.53  1250.89  1251.15  1252.77
eigval :     1254.56  1260.62  1268.75  1270.05  1271.89  1292.09
eigval :     1310.30  1311.13  1326.63  1328.12  1329.83  1339.87
eigval :     1340.26  1347.46  1352.96  1354.71  1362.69  1364.77
eigval :     1371.03  1372.40  1386.98  1407.75  1413.14  1413.58
eigval :     1415.49  1420.13  1424.61  1432.07  1434.24  1435.19
eigval :     1451.46  1458.14  1468.28  1475.67  1476.52  1477.22
eigval :     1495.40  1496.94  1500.58  1512.72  1514.16  1559.81
eigval :     1567.50  1567.53  1570.60  1577.62  1584.26  1585.73
eigval :     1591.27  1591.40  1591.95  1595.31  1595.66  1595.81
eigval :     1599.25  1601.12  1612.07  1618.46  1619.96  3074.29
eigval :     3074.35  3080.52  3080.65  3081.36  3081.46  3081.69
eigval :     3082.17  3086.85  3087.81  3088.90  3088.95  3089.68
eigval :     3090.04  3090.25  3090.48  3091.37  3091.93  3092.21
eigval :     3092.90  3094.46  3094.99  3097.38  3097.52  3105.86
eigval :     3106.05  3107.41  3107.80  3107.88  3107.91  3107.96
eigval :     3109.42  3111.08  3111.56

   temp. (K)  partition function   enthalpy   heat capacity  entropy
                                   cal/mol     cal/K/mol   cal/K/mol   J/K/mol
 298.15  VIB  0.156E+25            28510.596    178.036    179.899
         ROT  0.407E+09              888.752      2.981     42.378
         INT  0.636E+33            29399.348    181.017    222.278
         TR   0.222E+29             1481.254      4.968     45.921
         TOT                       30880.6024   185.9855   268.1989  1122.1440

       T/K    H(0)-H(T)+PV         H(T)/Eh          T*S/Eh         G(T)/Eh
   ------------------------------------------------------------------------
    298.15    0.492114E-01    0.777375E+00    0.127430E+00    0.649945E+00
   ------------------------------------------------------------------------

         :::::::::::::::::::::::::::::::::::::::::::::::::::::
         ::                  THERMODYNAMIC                  ::
         :::::::::::::::::::::::::::::::::::::::::::::::::::::
         :: total free energy        -158.679691989389 Eh   ::
         ::.................................................::
         :: total energy             -159.329637009756 Eh   ::
         :: zero point energy           0.728163579992 Eh   ::
         :: G(RRHO) w/o ZPVE           -0.078218559625 Eh   ::
         :: G(RRHO) contrib.            0.649945020366 Eh   ::
         :::::::::::::::::::::::::::::::::::::::::::::::::::::

           -------------------------------------------------
          | TOTAL ENERGY             -159.329637009756 Eh   |
          | TOTAL ENTHALPY           -158.552262057368 Eh   |
          | TOTAL FREE ENERGY        -158.679691989389 Eh   |
          | GRADIENT NORM               0.000047653667 Eh/α |
          | HOMO-LUMO GAP               1.992280698198 eV   |
           -------------------------------------------------

 * finished run on 2025/09/03 at 17:26:30.800
