   * xtb version 6.7.1 (edcfbbe) compiled by 'albert@albert-system' on 2024-07-22

   ID    Z sym.   atoms
    1    6 C      1-5, 7-13, 15-19, 21-28, 30-46, 48-60, 62, 63
    2    7 N      6, 14, 20, 61
    3    8 O      29, 47
    4    1 H      64-97

          program call               : xtb data2507/gas/BDBFCz-Trz/BDBFCz-Trz_gas_T1_crest.xyz --gfn 2 --spinpol --tblite --uhf 2 --ohess vtight --parallel 40 --molden --ceasefiles --namespace data2507/gas/BDBFCz-Trz/BDBFCz-Trz_gas_T1_finalOpt
 * total energy  :  -159.2538874 Eh     change       -0.1812936E-08 Eh
 * total energy  :  -159.2539591 Eh     change       -0.7173992E-04 Eh
 * total energy  :  -159.2539880 Eh     change       -0.2883862E-04 Eh
 * total energy  :  -159.2539903 Eh     change       -0.2359753E-05 Eh
 * total energy  :  -159.2539921 Eh     change       -0.1758045E-05 Eh
 * total energy  :  -159.2539932 Eh     change       -0.1072331E-05 Eh
 * total energy  :  -159.2539945 Eh     change       -0.1298690E-05 Eh
 * total energy  :  -159.2539957 Eh     change       -0.1247467E-05 Eh
 * total energy  :  -159.2539967 Eh     change       -0.9651825E-06 Eh
 * total energy  :  -159.2539975 Eh     change       -0.8153808E-06 Eh
 * total energy  :  -159.2539984 Eh     change       -0.4446704E-06 Eh
 * total energy  :  -159.2539988 Eh     change       -0.3591750E-06 Eh
 * total energy  :  -159.2539991 Eh     change       -0.3327937E-06 Eh
 * total energy  :  -159.2539992 Eh     change       -0.7551333E-07 Eh
 * total energy  :  -159.2539991 Eh     change        0.8532729E-07 Eh
 * total energy  :  -159.2539993 Eh     change       -0.1545017E-06 Eh
 * total energy  :  -159.2539992 Eh     change        0.1012004E-06 Eh
 * total energy  :  -159.2539993 Eh     change       -0.1883510E-06 Eh
 * total energy  :  -159.2539994 Eh     change       -0.2089527E-07 Eh
   *** GEOMETRY OPTIMIZATION CONVERGED AFTER 21 ITERATIONS ***

 final structure:
================
97
 xtb: 6.7.1 (edcfbbe)
C          -10.22388262610234       -2.96248975402536       -3.76397686307586
C          -10.89998361918142       -2.22100797275242       -2.80712691520203
C          -10.19692203617680       -1.48546554992611       -1.87439161201022
C           -8.80112996423910       -1.48434995419522       -1.88983782740664
C           -8.05857570987593       -0.71038855855934       -0.90672005274291
N           -8.75645587395123        0.00238675121281        0.00553541380260
C           -8.04935882116254        0.71089446733167        0.91341062866901
C           -8.78102912443827        1.48785141325849        1.90257823417932
C           -8.09532269097251        2.22604898793448        2.86906501234379
C           -8.79446191138931        2.96132298634445        3.80377506747237
C          -10.18190069393981        2.97166745650816        3.78854801335542
C          -10.86892031472559        2.24093963113583        2.83121725147024
C          -10.17671684818716        1.50244325362282        1.89265433291180
N           -6.74545383617832        0.71268415709746        0.92957246355552
C           -6.06874461799675       -0.00413817339616       -0.00360949834236
C           -4.64988477693289       -0.00564815115032       -0.00811299443882
C           -3.92866676874389       -0.75084786436698       -0.96433264514570
C           -2.55806299960104       -0.74866055527713       -0.96784515331363
C           -1.84999076569263       -0.00632447633645       -0.01579083277058
N           -0.44802860537110       -0.00564999345200       -0.01881926806425
C            0.35483935509293        1.11098672662780        0.01458883339939
C            0.00591972919685        2.45609192518389        0.00975266251073
C            1.02146048234058        3.38826980858061        0.03729324014899
C            2.37440413551491        3.01761940507448        0.05429290270392
C            3.42108761064607        4.04780351507538        0.08899628592265
C            3.26068269559510        5.18336820241882        0.89589121242376
C            4.21708846456752        6.17699189391262        0.96637461294114
C            5.35773254059619        6.02036566219474        0.19878499027112
O            6.41000126024925        6.87862544270714        0.12053171169644
C            7.29423121293436        6.31884960552382       -0.75131515857295
C            8.51409243401382        6.84503146181032       -1.13600864867291
C            9.26408876888992        6.11151034304444       -2.03835886066832
C            8.81208005892225        4.89375900879999       -2.53985021301270
C            7.59370479167318        4.36897909476239       -2.15493512264680
C            6.82383130386631        5.08781121750801       -1.25058608251714
C            5.54421427122104        4.88953053327346       -0.62171655527004
C            4.57502905673531        3.90083339043736       -0.67349587479869
C            2.71791306847061        1.66822842484396        0.02611743588908
C            1.71492785429928        0.71598569447888        0.00496163481145
C            1.71659115739215       -0.72227542370685       -0.03468032918496
C            2.72190989732364       -1.67213488524620       -0.05015897839792
C            2.38172913094859       -3.02233308052772       -0.07848435187327
C            3.43127068636429       -4.04992064305746       -0.10419522726761
C            3.28081647029309       -5.18647950995548       -0.91151547154124
C            4.24032971265495       -6.17777083440655       -0.97258744546814
C            5.37350221157599       -6.01786000186629       -0.19466281060233
O            6.42687195572171       -6.87375843797180       -0.10569119357234
C            7.30143055992557       -6.31148408688406        0.77427902365253
C            8.51847185725937       -6.83491969023387        1.17146596572851
C            9.25793844432058       -6.09930060470008        2.08077785983215
C            8.79851361145451       -4.88213462147066        2.57692163880775
C            7.58301474283669       -4.36004601699628        2.17946717013246
C            6.82365623655997       -5.08104320444903        1.26798080233106
C            5.54976957645451       -4.88596642178857        0.62662954978771
C            4.57790469179291       -3.89945309052929        0.66854351561735
C            1.02966747387224       -3.39624500719690       -0.06866132253954
C            0.01175009395162       -2.46644385803456       -0.04634037586675
C            0.35744055553153       -1.12052454322997       -0.04953785056162
C           -2.55257983012121        0.73612186829383        0.94034594516048
C           -3.92300682195803        0.73896821112617        0.94432378422702
N           -6.75474853441724       -0.71837380892572       -0.93151200078179
C           -8.12646283596942       -2.23325750358004       -2.85591282426894
C           -8.83646173040058       -2.96572852542491       -3.78460946065632
H          -10.77648366683509       -3.53713623022208       -4.49271734335141
H          -11.98024070802277       -2.21874406163943       -2.79135793949867
H          -10.70938415348335       -0.90385661726223       -1.12359888533734
H           -7.01641622114961        2.20774565992917        2.86818518878769
H           -8.26018329027632        3.53103643751798        4.55022561471023
H          -10.72602189729916        3.54849541223208        4.52193178958697
H          -11.94919433116501        2.24932379751547        2.81968533581312
H          -10.69775933444361        0.92902126894357        1.14147267968356
H           -4.48219661546899       -1.31306531801282       -1.69994946266260
H           -2.01084774635120       -1.29782819393438       -1.72046427128565
H           -1.02785204587053        2.76308104004068       -0.02906593414188
H            0.77051546822914        4.43809317824860        0.01653896754478
H            2.36979808755563        5.27097519167415        1.49919825889392
H            4.08753580322229        7.04293859632569        1.59550004848232
H            8.85862092399612        7.78842110593044       -0.74405138761282
H           10.22135835276731        6.49263362072067       -2.36055158750691
H            9.42801074274804        4.35270606147705       -3.24252023557508
H            7.24397403809345        3.42526406710134       -2.54466146990111
H            4.70495567153277        3.04361330271074       -1.31617332643578
H            3.75454916224267        1.36769271586898        0.04188681632648
H            3.75792987681130       -1.36923912402625       -0.06089059452134
H            2.39546109219828       -5.27678241330292       -1.52253223787561
H            4.11861277230539       -7.04453565720860       -1.60215237010128
H            8.86879594531866       -7.77789255823524        0.78366700545330
H           10.21267043694730       -6.47832081114066        2.41283206067003
H            9.40625900904456       -4.33943330390964        3.28542520332275
H            7.22747737297786       -3.41680884029944        2.56507485167892
H            4.69986153159345       -3.04131461957565        1.31156402232429
H            0.78122705800519       -4.44669291052787       -0.04893150607189
H           -1.02143527128766       -2.77594314281487       -0.01232998299594
H           -2.00092264888706        1.28489695750294        1.69000223313534
H           -4.47229868441873        1.30144787677822        1.68289852103692
H           -7.04743116471158       -2.22555997223148       -2.85927611166821
H           -8.31074243135326       -3.54393982887911       -4.53060878540843

 projected vibrational frequencies (cm⁻¹)
eigval :       -0.00    -0.00    -0.00     0.00     0.00     0.00
eigval :        6.82     7.81    10.61    11.45    20.62    21.01
eigval :       25.78    26.93    31.71    38.22    38.32    45.50
eigval :       51.58    60.64    70.50    83.37    86.87    96.11
eigval :      102.81   108.31   109.19   125.92   138.27   138.80
eigval :      148.50   156.65   172.20   177.54   185.28   208.37
eigval :      210.95   221.14   223.24   238.15   246.47   247.28
eigval :      258.92   277.71   278.05   282.58   295.57   321.76
eigval :      337.45   356.71   365.39   366.33   367.40   376.27
eigval :      382.28   385.66   389.62   391.20   392.45   397.87
eigval :      406.27   408.71   418.36   426.61   428.02   433.51
eigval :      437.32   440.15   455.40   474.59   484.40   513.04
eigval :      516.85   534.83   539.30   539.98   542.08   547.35
eigval :      556.68   556.85   563.72   573.24   579.64   583.73
eigval :      584.20   588.29   595.08   599.01   599.37   601.54
eigval :      605.78   619.57   627.43   634.90   641.52   646.63
eigval :      649.13   660.93   663.16   669.57   671.73   684.43
eigval :      693.25   697.27   706.16   707.90   715.71   715.76
eigval :      722.14   759.92   761.75   771.57   778.90   779.01
eigval :      796.23   799.66   803.63   803.90   815.83   815.85
eigval :      829.46   836.47   837.01   846.05   846.60   847.38
eigval :      859.25   868.18   868.64   868.69   870.79   872.73
eigval :      872.77   881.46   882.02   898.17   899.45   901.98
eigval :      903.94   903.96   905.72   906.30   908.74   913.56
eigval :      918.76   921.42   923.09   923.96   923.96   925.27
eigval :      926.08   928.33   928.59   930.32   949.26   982.94
eigval :      988.78   998.64   999.25  1008.19  1030.29  1061.31
eigval :     1061.93  1062.17  1064.61  1064.95  1073.80  1076.00
eigval :     1108.80  1108.90  1118.40  1118.60  1123.60  1126.17
eigval :     1137.56  1141.33  1143.10  1150.32  1154.63  1168.55
eigval :     1172.52  1172.83  1179.89  1180.44  1182.60  1187.98
eigval :     1189.54  1195.19  1196.63  1210.19  1211.57  1220.28
eigval :     1224.41  1239.94  1247.97  1249.58  1250.18  1252.94
eigval :     1253.77  1256.31  1261.01  1268.13  1273.59  1274.04
eigval :     1281.74  1285.07  1301.72  1302.71  1327.33  1331.17
eigval :     1332.28  1339.24  1339.86  1346.97  1348.75  1354.97
eigval :     1355.33  1356.26  1388.06  1405.45  1409.77  1410.19
eigval :     1416.44  1416.85  1418.13  1418.99  1425.73  1433.75
eigval :     1439.06  1442.64  1452.86  1462.42  1463.41  1469.40
eigval :     1473.68  1480.21  1486.16  1486.63  1488.18  1496.35
eigval :     1553.27  1557.60  1563.01  1564.98  1569.45  1570.90
eigval :     1571.03  1571.50  1585.03  1589.02  1589.96  1592.70
eigval :     1594.95  1598.84  1603.40  1616.21  1617.05  3072.98
eigval :     3073.15  3076.54  3077.53  3077.69  3077.97  3082.58
eigval :     3082.59  3086.19  3086.53  3088.03  3088.32  3088.58
eigval :     3089.58  3089.91  3090.43  3091.28  3091.47  3093.56
eigval :     3094.09  3097.73  3098.11  3098.14  3098.56  3098.63
eigval :     3099.14  3099.62  3100.27  3100.80  3102.15  3107.28
eigval :     3107.30  3108.65  3108.69

   temp. (K)  partition function   enthalpy   heat capacity  entropy
                                   cal/mol     cal/K/mol   cal/K/mol   J/K/mol
 298.15  VIB  0.920E+24            28890.931    180.948    180.977
         ROT  0.372E+09              888.752      2.981     42.197
         INT  0.342E+33            29779.683    183.929    223.173
         TR   0.222E+29             1481.254      4.968     45.921
         TOT                       31260.9370   188.8971   269.0944  1125.8908

       T/K    H(0)-H(T)+PV         H(T)/Eh          T*S/Eh         G(T)/Eh
   ------------------------------------------------------------------------
    298.15    0.498175E-01    0.772309E+00    0.127855E+00    0.644453E+00
   ------------------------------------------------------------------------

         :::::::::::::::::::::::::::::::::::::::::::::::::::::
         ::                  THERMODYNAMIC                  ::
         :::::::::::::::::::::::::::::::::::::::::::::::::::::
         :: total free energy        -158.609546080924 Eh   ::
         ::.................................................::
         :: total energy             -159.253999420502 Eh   ::
         :: zero point energy           0.722491276276 Eh   ::
         :: G(RRHO) w/o ZPVE           -0.078037936698 Eh   ::
         :: G(RRHO) contrib.            0.644453339579 Eh   ::
         :::::::::::::::::::::::::::::::::::::::::::::::::::::

           -------------------------------------------------
          | TOTAL ENERGY             -159.253999420502 Eh   |
          | TOTAL ENTHALPY           -158.481690670058 Eh   |
          | TOTAL FREE ENERGY        -158.609546080924 Eh   |
          | GRADIENT NORM               0.000103799256 Eh/α |
           -------------------------------------------------

 * finished run on 2025/09/03 at 17:46:05.656
