   * xtb version 6.7.1 (edcfbbe) compiled by 'albert@albert-system' on 2024-07-22

   ID    Z sym.   atoms
    1    6 C      1-12, 14-30, 32
    2    7 N      13, 31
    3    1 H      33-50

          program call               : xtb data2507/toluene/5CzICz/5CzICz_toluene_S0_finalOpt.xtbopt.xyz --gfn 2 --uhf 2 --gbsa toluene --ohess vtight --parallel 40 --molden --ceasefiles --namespace data2507/toluene/5CzICz/5CzICz_toluene_T1_preOpt
      * Solvation model:               GBSA
        Solvent                        toluene
        Solvent mass                       9.2140E+01 g/mol
          :  Hamiltonian                  GFN2-xTB          :
 * total energy  :   -79.2642593 Eh     change       -0.5871215E-09 Eh
 * total energy  :   -79.2666775 Eh     change       -0.2418251E-02 Eh
 * total energy  :   -79.2676768 Eh     change       -0.9992263E-03 Eh
 * total energy  :   -79.2678300 Eh     change       -0.1532512E-03 Eh
 * total energy  :   -79.2679092 Eh     change       -0.7913319E-04 Eh
 * total energy  :   -79.2679431 Eh     change       -0.3390802E-04 Eh
 * total energy  :   -79.2679760 Eh     change       -0.3289294E-04 Eh
 * total energy  :   -79.2680022 Eh     change       -0.2624008E-04 Eh
 * total energy  :   -79.2680246 Eh     change       -0.2235659E-04 Eh
 * total energy  :   -79.2680465 Eh     change       -0.2192197E-04 Eh
 * total energy  :   -79.2682839 Eh     change       -0.6559545E-06 Eh
 * total energy  :   -79.2682846 Eh     change       -0.7435119E-06 Eh
 * total energy  :   -79.2682854 Eh     change       -0.7564046E-06 Eh
 * total energy  :   -79.2682861 Eh     change       -0.7201336E-06 Eh
 * total energy  :   -79.2682868 Eh     change       -0.6769666E-06 Eh
 * total energy  :   -79.2682874 Eh     change       -0.5898246E-06 Eh
 * total energy  :   -79.2682878 Eh     change       -0.4135061E-06 Eh
 * total energy  :   -79.2682880 Eh     change       -0.1852115E-06 Eh
 * total energy  :   -79.2682880 Eh     change       -0.2765071E-07 Eh
   *** GEOMETRY OPTIMIZATION CONVERGED AFTER 35 ITERATIONS ***

 final structure:
================
50
 xtb: 6.7.1 (edcfbbe)
C            5.29437578370222        2.79379392611897       -1.14353107781470
C            3.94447089770599        3.04614119509031       -1.37260488022196
C            2.97204028596963        2.11119930528551       -1.05209981983548
C            3.38369489833624        0.91668574885618       -0.47960175094777
C            4.75903207694884        0.63549611537693       -0.28493065205315
C            5.71578897252480        1.58660975277391       -0.61213065123640
C            4.83505919974216       -0.70310440864591        0.23208192613960
C            5.88999639753407       -1.50935618912210        0.63650809915754
C            5.60720091056372       -2.77000652767513        1.13471843686204
C            4.29425542567103       -3.21807095734920        1.25195628280422
C            3.22520013535949       -2.42820508332050        0.85778482343992
C            3.50305257400543       -1.17940964417656        0.32150894581339
N            2.63389993956646       -0.18848516150601       -0.10757970396303
C            1.25376432634543       -0.27865572985961       -0.14669488687507
C            0.65134020196698       -1.46650367651438       -0.66362332095663
C           -0.71955811464304       -1.58618728740654       -0.73297299794556
C           -1.51131097030582       -0.54724813620447       -0.26737362492388
C           -0.90557037765898        0.68451354226755        0.27029089042470
C            0.47447297911147        0.78504618621040        0.30310044242834
C           -1.97286002451303        1.55038408953425        0.67608237579004
C           -2.24681358265946        2.81310116000553        1.23830492435577
C           -3.59211174363969        3.17251050418264        1.41514709621777
C           -4.69479937194024        2.39398230912800        1.08429043936858
C           -4.45799364665741        1.11778841584433        0.51417294977550
C           -5.11833556211610       -0.05730135503881        0.00543438097357
C           -6.45079836362808       -0.42492572985222       -0.13404687489190
C           -6.76045267825000       -1.66301610520052       -0.67268333832008
C           -5.76390627064654       -2.55247013387850       -1.07933551710808
C           -4.42185460751472       -2.22189706214690       -0.95583335246174
C           -4.09586085249038       -0.99036935005381       -0.42030956020605
N           -2.86465707639727       -0.40765786992976       -0.18558530297970
C           -3.11482117296462        0.82720698495103        0.36556755131839
H            6.02344388678037        3.54774482358373       -1.40100179986481
H            3.64662797745119        3.98511891756535       -1.81414023393076
H            1.93178095767688        2.30798958531319       -1.25970204301681
H            6.76491268102027        1.38344899074424       -0.46191673386087
H            6.90726991354601       -1.15534955336260        0.57009365047102
H            6.41519361262582       -3.41267753850142        1.45146761964474
H            4.10200661953900       -4.19635833131246        1.66599196137272
H            2.21115432601272       -2.77369168309767        0.98354767642446
H            1.28622674705362       -2.23556065665115       -1.07089978978862
H           -1.16642676395803       -2.47290045770666       -1.15609707106362
H            0.94417930892359        1.65658827727638        0.73306016578587
H           -1.46266137060779        3.49235456093452        1.53399257030601
H           -3.78495304209437        4.14443813370861        1.85191715064496
H           -5.69408672732564        2.76021587090440        1.26162559710335
H           -7.23484381742088        0.25093293525319        0.17526950676606
H           -7.79628376888018       -1.95030936870744       -0.78206431785529
H           -6.04125924341704       -3.50929322933038       -1.49474480525918
H           -3.65408833001246       -2.91291890397861       -1.27044436959862

          :  Hamiltonian                  GFN2-xTB          :
         :: gradient norm              0.000030227806 Eh/a0 ::
         :: HOMO-LUMO gap              0.163912846106 eV    ::
         :: SCC energy               -80.752098280673 Eh    ::
         :: -> dispersion             -0.068450227648 Eh    ::
         :: -> Gsolv                  -0.032827393578 Eh    ::
         :: repulsion energy           1.483810297546 Eh    ::

    * Orbital Energies and Occupations

         #    Occupation            Energy/Eh            Energy/eV
      -------------------------------------------------------------
         1        2.0000           -0.6894323             -18.7604
       ...           ...                  ...                  ...
        63        2.0000           -0.4262046             -11.5976
        64        2.0000           -0.4225465             -11.4981
        65        2.0000           -0.4179567             -11.3732
        66        2.0000           -0.4161501             -11.3240
        67        2.0000           -0.4152648             -11.2999
        68        2.0000           -0.4104882             -11.1700
        69        2.0000           -0.4101634             -11.1611
        70        2.0000           -0.3882342             -10.5644
        71        2.0000           -0.3848133             -10.4713
        72        2.0000           -0.3764755             -10.2444
        73        1.9901           -0.3705674             -10.0837
        74        1.0100           -0.3618270              -9.8458
        75        0.9597           -0.2610562              -7.1037 (HOMO)
        76        0.0403           -0.2550328              -6.9398 (LUMO)
        77                         -0.2369054              -6.4465
        78                         -0.2329915              -6.3400
        79                         -0.2294658              -6.2441
        80                         -0.2118414              -5.7645
        81                         -0.1973609              -5.3705
        82                         -0.1959907              -5.3332
        83                         -0.1791316              -4.8744
        84                         -0.1740030              -4.7349
        85                         -0.1061052              -2.8873
        86                         -0.0914763              -2.4892
       ...                                ...                  ...
       146                          0.7706905              20.9716
      -------------------------------------------------------------
                  HL-Gap            0.0060234 Eh            0.1639 eV

     #   Z          covCN         q      C6AA      α(0)
     1   6 C        2.919    -0.031    28.781     8.797
     2   6 C        2.922    -0.035    28.873     8.812
     3   6 C        2.909    -0.041    29.024     8.834
     4   6 C        3.065     0.044    26.951     8.513
     5   6 C        3.061    -0.012    28.252     8.716
     6   6 C        2.911    -0.032    28.792     8.799
     7   6 C        3.062    -0.012    28.251     8.716
     8   6 C        2.911    -0.032    28.788     8.798
     9   6 C        2.919    -0.031    28.784     8.798
    10   6 C        2.922    -0.035    28.875     8.812
    11   6 C        2.909    -0.041    29.029     8.835
    12   6 C        3.064     0.044    26.945     8.512
    13   7 N        2.799     0.001    21.236     6.844
    14   6 C        2.909     0.057    26.718     8.476
    15   6 C        2.918    -0.067    29.664     8.931
    16   6 C        2.902    -0.039    28.958     8.823
    17   6 C        3.066     0.036    27.119     8.539
    18   6 C        3.111    -0.018    28.304     8.716
    19   6 C        2.908    -0.048    29.183     8.858
    20   6 C        3.010    -0.028    28.691     8.786
    21   6 C        2.927    -0.061    29.521     8.910
    22   6 C        2.917    -0.037    28.931     8.820
    23   6 C        2.926    -0.061    29.527     8.911
    24   6 C        3.016    -0.024    28.578     8.769
    25   6 C        3.111    -0.021    28.374     8.726
    26   6 C        2.908    -0.035    28.866     8.810
    27   6 C        2.916    -0.036    28.886     8.813
    28   6 C        2.920    -0.048    29.188     8.859
    29   6 C        2.906    -0.038    28.942     8.821
    30   6 C        3.069     0.033    27.197     8.551
    31   7 N        2.828    -0.001    21.276     6.851
    32   6 C        3.453     0.034    22.365     7.144
    33   1 H        0.926     0.040     2.455     2.450
    34   1 H        0.926     0.039     2.463     2.454
    35   1 H        0.926     0.042     2.419     2.432
    36   1 H        0.926     0.041     2.431     2.438
    37   1 H        0.926     0.041     2.434     2.440
    38   1 H        0.926     0.039     2.455     2.450
    39   1 H        0.926     0.039     2.459     2.452
    40   1 H        0.926     0.044     2.397     2.421
    41   1 H        0.926     0.042     2.427     2.436
    42   1 H        0.926     0.040     2.452     2.449
    43   1 H        0.926     0.045     2.387     2.416
    44   1 H        0.926     0.014     2.827     2.629
    45   1 H        0.925     0.018     2.762     2.599
    46   1 H        0.926     0.012     2.851     2.641
    47   1 H        0.926     0.029     2.600     2.521
    48   1 H        0.926     0.029     2.603     2.523
    49   1 H        0.926     0.028     2.611     2.527
    50   1 H        0.926     0.032     2.562     2.503

molecular dipole:
                 x           y           z       tot (Debye)
 q only:        2.150      -0.700      -0.317
   full:        2.057      -0.788      -0.363       5.675

 projected vibrational frequencies (cm⁻¹)
eigval :       -0.00     0.00     0.00     0.00     0.00     0.00
eigval :       19.91    29.19    38.10    68.94    96.78   102.76
eigval :      117.89   126.90   141.66   144.56   161.76   212.17
eigval :      239.46   257.72   267.50   273.66   276.30   294.73
eigval :      355.86   365.47   376.48   388.49   391.98   415.10
eigval :      419.27   435.33   453.59   471.96   492.83   499.94
eigval :      512.20   529.17   538.03   549.99   557.81   565.54
eigval :      581.86   585.20   615.13   620.85   624.65   653.52
eigval :      665.20   667.56   670.39   680.32   684.07   704.92
eigval :      734.91   739.82   750.30   753.86   763.06   768.29
eigval :      780.64   787.76   827.67   849.44   851.66   863.45
eigval :      870.08   876.08   881.77   890.28   890.67   892.87
eigval :      895.63   898.58   902.65   903.36   913.35   918.19
eigval :      949.93   989.27  1008.28  1033.51  1049.46  1056.12
eigval :     1066.04  1067.18  1071.96  1101.92  1131.76  1136.63
eigval :     1148.12  1168.28  1172.42  1175.02  1180.08  1185.72
eigval :     1203.43  1213.58  1219.66  1227.22  1234.53  1243.03
eigval :     1268.94  1271.70  1285.82  1303.85  1323.24  1330.99
eigval :     1334.33  1339.81  1361.18  1367.45  1374.86  1389.50
eigval :     1398.67  1403.70  1410.35  1429.99  1438.07  1452.14
eigval :     1460.07  1470.46  1473.43  1485.13  1495.56  1524.60
eigval :     1540.17  1549.56  1563.16  1568.12  1569.96  1625.09
eigval :     3047.87  3070.15  3077.33  3079.63  3079.94  3080.82
eigval :     3083.62  3086.99  3087.36  3087.94  3089.37  3091.72
eigval :     3094.08  3094.42  3095.97  3100.58  3101.82  3114.61

   temp. (K)  partition function   enthalpy   heat capacity  entropy
                                   cal/mol     cal/K/mol   cal/K/mol   J/K/mol
 298.15  VIB  0.134E+09            12729.897     89.392     74.675
         ROT  0.235E+08              888.752      2.981     36.711
         INT  0.315E+16            13618.649     92.373    111.385
         TR   0.793E+28             1481.254      4.968     43.878
         TOT                       15099.9030    97.3414   155.2637   649.6232

       T/K    H(0)-H(T)+PV         H(T)/Eh          T*S/Eh         G(T)/Eh
   ------------------------------------------------------------------------
    298.15    0.240632E-01    0.398946E+00    0.737708E-01    0.325175E+00
   ------------------------------------------------------------------------

         :::::::::::::::::::::::::::::::::::::::::::::::::::::
         ::                  THERMODYNAMIC                  ::
         :::::::::::::::::::::::::::::::::::::::::::::::::::::
         :: total free energy         -78.943113049414 Eh   ::
         ::.................................................::
         :: total energy              -79.268287983091 Eh   ::
         :: zero point energy           0.374882490480 Eh   ::
         :: G(RRHO) w/o ZPVE           -0.049707556804 Eh   ::
         :: G(RRHO) contrib.            0.325174933677 Eh   ::
         :::::::::::::::::::::::::::::::::::::::::::::::::::::

           -------------------------------------------------
          | TOTAL ENERGY              -79.268287983091 Eh   |
          | TOTAL ENTHALPY            -78.869342265456 Eh   |
          | TOTAL FREE ENERGY         -78.943113049414 Eh   |
          | GRADIENT NORM               0.000029824833 Eh/α |
          | HOMO-LUMO GAP               0.163904689942 eV   |
           -------------------------------------------------

 * finished run on 2025/09/08 at 05:57:39.695
