   * xtb version 6.7.1 (edcfbbe) compiled by 'albert@albert-system' on 2024-07-22

   ID    Z sym.   atoms
    1    6 C      1-12, 14-30, 32
    2    7 N      13, 31
    3    1 H      33-50

          program call               : xtb data2507/toluene/5CzICz/5CzICz_toluene_T1_crest.xyz --gfn 2 --uhf 2 --gbsa toluene --ohess vtight --parallel 40 --molden --ceasefiles --namespace data2507/toluene/5CzICz/5CzICz_toluene_T1_finalOpt
      * Solvation model:               GBSA
        Solvent                        toluene
        Solvent mass                       9.2140E+01 g/mol
          :  Hamiltonian                  GFN2-xTB          :
 * total energy  :   -79.2682557 Eh     change       -0.2519570E-07 Eh
 * total energy  :   -79.2682788 Eh     change       -0.2312358E-04 Eh
 * total energy  :   -79.2682854 Eh     change       -0.6556441E-05 Eh
 * total energy  :   -79.2682867 Eh     change       -0.1284689E-05 Eh
 * total energy  :   -79.2682871 Eh     change       -0.4272867E-06 Eh
 * total energy  :   -79.2682870 Eh     change        0.7077550E-07 Eh
 * total energy  :   -79.2682873 Eh     change       -0.2259461E-06 Eh
 * total energy  :   -79.2682874 Eh     change       -0.1022792E-06 Eh
 * total energy  :   -79.2682874 Eh     change        0.9512817E-08 Eh
 * total energy  :   -79.2682874 Eh     change       -0.5760579E-07 Eh
   *** GEOMETRY OPTIMIZATION CONVERGED AFTER 10 ITERATIONS ***

 final structure:
================
50
 xtb: 6.7.1 (edcfbbe)
C            5.30227037684153        2.79356379090556        1.12717702585725
C            3.95374571238232        3.04741266142158        1.36268902461170
C            2.97893315264814        2.11263034921705        1.04897731547291
C            3.38664105101634        0.91672177574810        0.47654077266268
C            4.76082482178388        0.63387761396976        0.27594672823682
C            5.72001130272623        1.58487996079845        0.59631859449283
C            4.83327539347788       -0.70567370867834       -0.23897585878008
C            5.88577741479399       -1.51380058194204       -0.64606083595101
C            5.59969278499407       -2.77498193235162       -1.14102085835666
C            4.28579554478976       -3.22161128650930       -1.25281440319445
C            3.21914069707839       -2.42988678682948       -0.85580558274916
C            3.50040121676791       -1.18071010615710       -0.32218782797739
N            2.63407672930263       -0.18824714891482        0.10939436906716
C            1.25403486085252       -0.27684362104981        0.15233659672190
C            0.65164407059386       -1.46480869463831        0.66919280024249
C           -0.71920909505448       -1.58519442493049        0.73764217216731
C           -1.51115322100201       -0.54624911715025        0.27232557521497
C           -0.90552134804606        0.68709964744465       -0.26184959596115
C            0.47446615629885        0.78771878955641       -0.29515549487046
C           -1.97289914311993        1.55305825585962       -0.66740933512774
C           -2.24691570181567        2.81629913164234       -1.22837261935140
C           -3.59215124907565        3.17402664561102       -1.40894563870265
C           -4.69471602542686        2.39311056077187       -1.08329764829663
C           -4.45781959195119        1.11635203275524       -0.51453928139797
C           -5.11799675800449       -0.06165530818103       -0.01224594853122
C           -6.45031182427779       -0.43304239048884        0.11849130172183
C           -6.75982834295092       -1.67394152695827        0.65070773697931
C           -5.76329213947151       -2.56241831615081        1.05953301921362
C           -4.42139821346500       -2.22812351092860        0.94465131323176
C           -4.09550133225176       -0.99390358510620        0.41526183083927
N           -2.86446881418709       -0.40799509777687        0.18768793017021
C           -3.11474370503462        0.82792583357597       -0.36104069112791
H            6.03322823477118        3.54758662707600        1.37905163483399
H            3.65892399170625        3.98755415691564        1.80378515531082
H            1.93994456131226        2.31076096781456        1.26159549734117
H            6.76815691171304        1.38047887162243        0.44109535552055
H            6.90367117412396       -1.16077348272368       -0.58405342611719
H            6.40577715937198       -3.41916402795227       -1.45960994889701
H            4.09077842901953       -4.20026708029822       -1.66468923292579
H            2.20428249457700       -2.77443609661415       -0.97753296157340
H            1.28661348187442       -2.23379265278276        1.07647066470375
H           -1.16590711495096       -2.47258538847750        1.15952540759735
H            0.94379734581527        1.65967899325937       -0.72463479803730
H           -1.46282133331140        3.49709228227689       -1.52070728980911
H           -3.78501343478568        4.14642424617821       -1.84469348378111
H           -5.69399470334509        2.75788222679034       -1.26379381327583
H           -7.23429504459582        0.24199019374039       -0.19278953911295
H           -7.79553141284355       -1.96429883629100        0.75306855344409
H           -6.04052459726637       -3.52150384218415        1.46982494767356
H           -3.65368359659928       -2.91853325708555        1.26071426987630

          :  Hamiltonian                  GFN2-xTB          :
         :: gradient norm              0.000088084407 Eh/a0 ::
         :: HOMO-LUMO gap              0.163960915755 eV    ::
         :: SCC energy               -80.752035283941 Eh    ::
         :: -> dispersion             -0.068450529989 Eh    ::
         :: -> Gsolv                  -0.032831052221 Eh    ::
         :: repulsion energy           1.483747864184 Eh    ::

    * Orbital Energies and Occupations

         #    Occupation            Energy/Eh            Energy/eV
      -------------------------------------------------------------
         1        2.0000           -0.6894218             -18.7601
       ...           ...                  ...                  ...
        63        2.0000           -0.4261924             -11.5973
        64        2.0000           -0.4225428             -11.4980
        65        2.0000           -0.4179575             -11.3732
        66        2.0000           -0.4161556             -11.3242
        67        2.0000           -0.4152528             -11.2996
        68        2.0000           -0.4104868             -11.1699
        69        2.0000           -0.4101592             -11.1610
        70        2.0000           -0.3882178             -10.5639
        71        2.0000           -0.3848250             -10.4716
        72        2.0000           -0.3764781             -10.2445
        73        1.9902           -0.3705694             -10.0837
        74        1.0098           -0.3618059              -9.8452
        75        0.9597           -0.2610569              -7.1037 (HOMO)
        76        0.0403           -0.2550319              -6.9398 (LUMO)
        77                         -0.2369187              -6.4469
        78                         -0.2329860              -6.3399
        79                         -0.2294643              -6.2440
        80                         -0.2118580              -5.7649
        81                         -0.1973409              -5.3699
        82                         -0.1959799              -5.3329
        83                         -0.1791263              -4.8743
        84                         -0.1739998              -4.7348
        85                         -0.1061191              -2.8876
        86                         -0.0914642              -2.4889
       ...                                ...                  ...
       146                          0.7706468              20.9704
      -------------------------------------------------------------
                  HL-Gap            0.0060249 Eh            0.1639 eV

     #   Z          covCN         q      C6AA      α(0)
     1   6 C        2.919    -0.031    28.780     8.797
     2   6 C        2.922    -0.035    28.874     8.812
     3   6 C        2.909    -0.041    29.023     8.834
     4   6 C        3.065     0.044    26.952     8.513
     5   6 C        3.061    -0.012    28.253     8.716
     6   6 C        2.911    -0.032    28.792     8.799
     7   6 C        3.062    -0.012    28.251     8.716
     8   6 C        2.911    -0.032    28.789     8.798
     9   6 C        2.919    -0.031    28.784     8.798
    10   6 C        2.922    -0.035    28.876     8.812
    11   6 C        2.909    -0.041    29.030     8.835
    12   6 C        3.064     0.044    26.946     8.512
    13   7 N        2.799     0.001    21.235     6.844
    14   6 C        2.909     0.057    26.718     8.476
    15   6 C        2.918    -0.067    29.664     8.931
    16   6 C        2.902    -0.039    28.958     8.823
    17   6 C        3.066     0.036    27.120     8.539
    18   6 C        3.111    -0.018    28.304     8.716
    19   6 C        2.908    -0.048    29.183     8.858
    20   6 C        3.010    -0.028    28.691     8.786
    21   6 C        2.927    -0.061    29.521     8.910
    22   6 C        2.917    -0.037    28.931     8.820
    23   6 C        2.926    -0.061    29.526     8.911
    24   6 C        3.016    -0.024    28.578     8.769
    25   6 C        3.111    -0.021    28.374     8.726
    26   6 C        2.908    -0.035    28.866     8.810
    27   6 C        2.916    -0.036    28.886     8.813
    28   6 C        2.920    -0.048    29.188     8.859
    29   6 C        2.906    -0.038    28.943     8.821
    30   6 C        3.069     0.033    27.197     8.551
    31   7 N        2.828    -0.001    21.276     6.851
    32   6 C        3.453     0.034    22.365     7.144
    33   1 H        0.926     0.040     2.455     2.450
    34   1 H        0.926     0.039     2.463     2.454
    35   1 H        0.926     0.042     2.419     2.432
    36   1 H        0.926     0.041     2.431     2.438
    37   1 H        0.926     0.041     2.434     2.440
    38   1 H        0.926     0.039     2.456     2.450
    39   1 H        0.926     0.039     2.459     2.452
    40   1 H        0.926     0.044     2.397     2.421
    41   1 H        0.926     0.042     2.426     2.436
    42   1 H        0.926     0.040     2.452     2.449
    43   1 H        0.926     0.045     2.387     2.416
    44   1 H        0.926     0.014     2.826     2.629
    45   1 H        0.925     0.018     2.762     2.599
    46   1 H        0.926     0.012     2.851     2.641
    47   1 H        0.926     0.029     2.600     2.521
    48   1 H        0.926     0.029     2.604     2.523
    49   1 H        0.926     0.028     2.611     2.527
    50   1 H        0.926     0.032     2.562     2.503

molecular dipole:
                 x           y           z       tot (Debye)
 q only:        2.149      -0.700       0.315
   full:        2.056      -0.788       0.361       5.672

 projected vibrational frequencies (cm⁻¹)
eigval :       -0.00    -0.00    -0.00     0.00     0.00     0.00
eigval :       22.10    29.33    38.23    70.62    96.76   103.41
eigval :      117.93   127.10   142.43   144.81   161.95   212.24
eigval :      239.55   259.32   267.56   273.70   276.53   294.66
eigval :      355.87   366.28   377.06   388.92   392.18   415.05
eigval :      419.29   435.37   453.57   472.54   492.76   500.53
eigval :      512.20   529.19   538.09   550.96   557.87   565.62
eigval :      581.89   585.26   615.09   620.87   624.69   653.49
eigval :      665.49   667.62   670.40   680.61   684.10   704.94
eigval :      735.56   739.90   750.79   753.87   763.05   768.31
eigval :      780.87   788.78   827.73   849.84   851.50   863.54
eigval :      870.09   876.25   882.63   890.38   890.72   892.87
eigval :      896.39   899.10   902.78   903.46   913.24   918.22
eigval :      949.92   989.36  1008.24  1033.62  1049.75  1056.18
eigval :     1066.05  1067.31  1072.08  1101.95  1132.04  1136.63
eigval :     1147.69  1168.58  1172.46  1175.08  1180.37  1185.80
eigval :     1203.61  1213.74  1219.59  1227.15  1234.59  1243.03
eigval :     1268.84  1272.03  1285.87  1303.83  1323.22  1330.97
eigval :     1334.50  1339.75  1361.29  1367.49  1374.91  1389.56
eigval :     1398.74  1403.69  1410.46  1430.06  1438.26  1452.10
eigval :     1460.15  1470.63  1473.41  1485.15  1495.79  1524.42
eigval :     1540.07  1549.60  1563.10  1568.05  1569.92  1625.15
eigval :     3047.84  3070.37  3077.40  3079.53  3079.78  3080.95
eigval :     3083.56  3087.00  3087.36  3087.94  3089.33  3091.80
eigval :     3094.07  3094.43  3095.96  3100.58  3101.77  3114.63

   temp. (K)  partition function   enthalpy   heat capacity  entropy
                                   cal/mol     cal/K/mol   cal/K/mol   J/K/mol
 298.15  VIB  0.116E+09            12716.711     89.399     74.502
         ROT  0.235E+08              888.752      2.981     36.711
         INT  0.272E+16            13605.463     92.380    111.212
         TR   0.793E+28             1481.254      4.968     43.878
         TOT                       15086.7169    97.3479   155.0906   648.8990

       T/K    H(0)-H(T)+PV         H(T)/Eh          T*S/Eh         G(T)/Eh
   ------------------------------------------------------------------------
    298.15    0.240422E-01    0.398974E+00    0.736885E-01    0.325285E+00
   ------------------------------------------------------------------------

         :::::::::::::::::::::::::::::::::::::::::::::::::::::
         ::                  THERMODYNAMIC                  ::
         :::::::::::::::::::::::::::::::::::::::::::::::::::::
         :: total free energy         -78.943002085604 Eh   ::
         ::.................................................::
         :: total energy              -79.268287416253 Eh   ::
         :: zero point energy           0.374931662692 Eh   ::
         :: G(RRHO) w/o ZPVE           -0.049646332043 Eh   ::
         :: G(RRHO) contrib.            0.325285330649 Eh   ::
         :::::::::::::::::::::::::::::::::::::::::::::::::::::

           -------------------------------------------------
          | TOTAL ENERGY              -79.268287416253 Eh   |
          | TOTAL ENTHALPY            -78.869313539889 Eh   |
          | TOTAL FREE ENERGY         -78.943002085604 Eh   |
          | GRADIENT NORM               0.000086350782 Eh/α |
          | HOMO-LUMO GAP               0.163947144688 eV   |
           -------------------------------------------------

 * finished run on 2025/09/08 at 05:59:07.803
