   * xtb version 6.7.1 (edcfbbe) compiled by 'albert@albert-system' on 2024-07-22

   ID    Z sym.   atoms
    1    6 C      1-12, 14-30, 32
    2    7 N      13, 31
    3    1 H      33-50

          program call               : xtb data2507/toluene/5CzICz/5CzICz.xyz --gfn 2 --gbsa toluene --ohess vtight --parallel 40 --molden --ceasefiles --namespace data2507/toluene/5CzICz/5CzICz_toluene_S0_preOpt
      * Solvation model:               GBSA
        Solvent                        toluene
        Solvent mass                       9.2140E+01 g/mol
          :  Hamiltonian                  GFN2-xTB          :
 * total energy  :   -79.3406199 Eh     change       -0.6252066E-09 Eh
 * total energy  :   -79.3610318 Eh     change       -0.2041190E-01 Eh
 * total energy  :   -79.3658353 Eh     change       -0.4803520E-02 Eh
 * total energy  :   -79.3666710 Eh     change       -0.8356431E-03 Eh
 * total energy  :   -79.3671225 Eh     change       -0.4515607E-03 Eh
 * total energy  :   -79.3672741 Eh     change       -0.1515600E-03 Eh
 * total energy  :   -79.3673543 Eh     change       -0.8020124E-04 Eh
 * total energy  :   -79.3673923 Eh     change       -0.3798591E-04 Eh
 * total energy  :   -79.3674144 Eh     change       -0.2213300E-04 Eh
 * total energy  :   -79.3674386 Eh     change       -0.2419060E-04 Eh
 * total energy  :   -79.3676927 Eh     change       -0.2656503E-05 Eh
 * total energy  :   -79.3676940 Eh     change       -0.1318546E-05 Eh
 * total energy  :   -79.3676944 Eh     change       -0.3708764E-06 Eh
 * total energy  :   -79.3676946 Eh     change       -0.1744184E-06 Eh
 * total energy  :   -79.3676947 Eh     change       -0.1074109E-06 Eh
 * total energy  :   -79.3676946 Eh     change        0.3538190E-07 Eh
 * total energy  :   -79.3676947 Eh     change       -0.1015109E-06 Eh
 * total energy  :   -79.3676947 Eh     change        0.1083663E-08 Eh
 * total energy  :   -79.3676948 Eh     change       -0.5983921E-07 Eh
   *** GEOMETRY OPTIMIZATION CONVERGED AFTER 37 ITERATIONS ***

 final structure:
================
50
 xtb: 6.7.1 (edcfbbe)
C            5.24770987938081        2.71680430051982        1.37992080172769
C            3.89388491287861        2.95851678930819        1.60757432819724
C            2.92418570997246        2.05559073406871        1.21583290117109
C            3.33948677374538        0.89395647743241        0.57944474263474
C            4.71225130977313        0.63023604117515        0.36171126565535
C            5.66813566152444        1.55504503757497        0.76340754471396
C            4.78374405740812       -0.65679386818926       -0.27165688152822
C            5.83342972636490       -1.43786059540554       -0.73887944763804
C            5.54372211995055       -2.65040272409238       -1.33242549862370
C            4.22620040711026       -3.08341095991420       -1.47276823812876
C            3.16525799999858       -2.32553680638224       -1.01556810782480
C            3.45119323807616       -1.11411611519861       -0.40110175014956
N            2.59103287392412       -0.16788867515380        0.11589687594231
C            1.18851284852846       -0.26451613184047        0.15647649775046
C            0.59304321874993       -1.38113750396790        0.74707110050571
C           -0.78262676927179       -1.51750581350064        0.80115276472014
C           -1.56458308237621       -0.51110089417615        0.26371788792800
C           -0.96593962966649        0.64301228471824       -0.33876075690916
C            0.41231916759806        0.75172366475740       -0.39085273049423
C           -2.04001862190320        1.50227158567418       -0.80750467329184
C           -2.30450943395665        2.70942686743076       -1.44908176460501
C           -3.63878171773942        3.06813668752689       -1.65736378523189
C           -4.74745827785008        2.30854367121828       -1.27125088787611
C           -4.52375757122131        1.09568802691372       -0.62642753587622
C           -5.19349131740696       -0.04762377519939       -0.02700492192646
C           -6.52836084493233       -0.38064139386592        0.13601656177387
C           -6.85113208235620       -1.56941657784035        0.76872289335721
C           -5.86116609191314       -2.42460817178537        1.23716242119627
C           -4.51696734922086       -2.12141602958274        1.08908315769317
C           -4.18284711845090       -0.93725206764225        0.45925858346738
N           -2.94108053210153       -0.38377343777175        0.17950154913106
C           -3.18025598729686        0.79753740994785       -0.45052168298163
H            5.97542363226912        3.44886275966101        1.69878397088125
H            3.59657490292982        3.87117469894542        2.10365519458352
H            1.87835591243898        2.24469161362436        1.40692549600822
H            6.71818067785276        1.36331238307001        0.59895004109093
H            6.85383527357941       -1.09760463219283       -0.64223065370244
H            6.34600086555689       -3.27281406648777       -1.70126086149406
H            4.03055409385809       -4.03126558791440       -1.95318606173420
H            2.14681775540530       -2.66181478808124       -1.14054087358392
H            1.22520304325577       -2.14462854413465        1.17483965072570
H           -1.22803939291631       -2.38672352936044        1.25897207444172
H            0.88253024958919        1.60463111726187       -0.85629668659483
H           -1.51500221970664        3.36517961895854       -1.78426153931371
H           -3.82923296634348        4.00805774261096       -2.15663490238562
H           -5.74264387115420        2.67293161122360       -1.47742743421133
H           -7.30229641159835        0.27975546339185       -0.22587469503209
H           -7.88866500330471       -1.83837183871471        0.90124881857190
H           -6.14322918153073       -3.34497878479337        1.72698068033922
H           -3.75550183750145       -2.79188127382074        1.45657756693155

          :  Hamiltonian                  GFN2-xTB          :
         :: gradient norm              0.000039384085 Eh/a0 ::
         :: HOMO-LUMO gap              2.479481683571 eV    ::
         :: SCC energy               -80.870427839382 Eh    ::
         :: -> dispersion             -0.068309941535 Eh    ::
         :: -> Gsolv                  -0.031812590971 Eh    ::
         :: repulsion energy           1.502733054506 Eh    ::

    * Orbital Energies and Occupations

         #    Occupation            Energy/Eh            Energy/eV
      -------------------------------------------------------------
         1        2.0000           -0.6889815             -18.7481
       ...           ...                  ...                  ...
        62        2.0000           -0.4262842             -11.5998
        63        2.0000           -0.4221392             -11.4870
        64        2.0000           -0.4215636             -11.4713
        65        2.0000           -0.4206124             -11.4454
        66        2.0000           -0.4180604             -11.3760
        67        2.0000           -0.4162647             -11.3271
        68        2.0000           -0.4149061             -11.2902
        69        2.0000           -0.4039425             -10.9918
        70        2.0000           -0.3908612             -10.6359
        71        2.0000           -0.3867156             -10.5231
        72        2.0000           -0.3772331             -10.2650
        73        2.0000           -0.3771056             -10.2616
        74        2.0000           -0.3589023              -9.7662 (HOMO)
        75                         -0.2677830              -7.2867 (LUMO)
        76                         -0.2446860              -6.6582
        77                         -0.2385834              -6.4922
        78                         -0.2341610              -6.3718
        79                         -0.2206291              -6.0036
        80                         -0.2151055              -5.8533
        81                         -0.1969831              -5.3602
        82                         -0.1853225              -5.0429
        83                         -0.1848004              -5.0287
        84                         -0.1811079              -4.9282
        85                         -0.0987947              -2.6883
       ...                                ...                  ...
       146                          0.7626102              20.7517
      -------------------------------------------------------------
                  HL-Gap            0.0911193 Eh            2.4795 eV

     #   Z          covCN         q      C6AA      α(0)
     1   6 C        2.919    -0.043    29.077     8.843
     2   6 C        2.924    -0.035    28.880     8.813
     3   6 C        2.909    -0.052    29.293     8.875
     4   6 C        3.077     0.047    26.857     8.496
     5   6 C        3.067    -0.019    28.421     8.742
     6   6 C        2.912    -0.035    28.877     8.812
     7   6 C        3.067    -0.019    28.420     8.742
     8   6 C        2.912    -0.035    28.876     8.812
     9   6 C        2.919    -0.043    29.078     8.843
    10   6 C        2.924    -0.035    28.882     8.813
    11   6 C        2.909    -0.052    29.300     8.876
    12   6 C        3.077     0.047    26.860     8.497
    13   7 N        2.803    -0.047    22.148     6.990
    14   6 C        2.911     0.056    26.753     8.481
    15   6 C        2.925    -0.045    29.117     8.849
    16   6 C        2.908    -0.046    29.131     8.850
    17   6 C        3.085     0.048    26.834     8.492
    18   6 C        3.113    -0.010    28.115     8.686
    19   6 C        2.914    -0.045    29.117     8.848
    20   6 C        3.022    -0.017    28.413     8.744
    21   6 C        2.932    -0.032    28.804     8.802
    22   6 C        2.922    -0.041    29.028     8.835
    23   6 C        2.932    -0.032    28.800     8.801
    24   6 C        3.021    -0.017    28.401     8.742
    25   6 C        3.111    -0.012    28.153     8.692
    26   6 C        2.911    -0.032    28.803     8.800
    27   6 C        2.919    -0.038    28.956     8.824
    28   6 C        2.923    -0.032    28.802     8.801
    29   6 C        2.908    -0.046    29.153     8.853
    30   6 C        3.084     0.050    26.786     8.484
    31   7 N        2.832    -0.031    21.845     6.942
    32   6 C        3.468     0.036    22.048     7.049
    33   1 H        0.926     0.027     2.632     2.537
    34   1 H        0.926     0.029     2.600     2.521
    35   1 H        0.926     0.028     2.609     2.526
    36   1 H        0.926     0.029     2.599     2.521
    37   1 H        0.926     0.029     2.599     2.521
    38   1 H        0.926     0.027     2.633     2.537
    39   1 H        0.926     0.029     2.601     2.522
    40   1 H        0.926     0.029     2.607     2.525
    41   1 H        0.926     0.045     2.380     2.413
    42   1 H        0.926     0.043     2.408     2.427
    43   1 H        0.926     0.046     2.374     2.409
    44   1 H        0.926     0.035     2.513     2.479
    45   1 H        0.926     0.036     2.505     2.475
    46   1 H        0.926     0.035     2.510     2.478
    47   1 H        0.926     0.038     2.481     2.463
    48   1 H        0.926     0.035     2.520     2.483
    49   1 H        0.926     0.037     2.494     2.470
    50   1 H        0.926     0.036     2.509     2.477

molecular dipole:
                 x           y           z       tot (Debye)
 q only:       -0.907      -0.142       0.071
   full:       -0.923      -0.223       0.113       2.430

 projected vibrational frequencies (cm⁻¹)
eigval :       -0.00    -0.00    -0.00    -0.00    -0.00     0.00
eigval :       19.55    24.93    34.02    65.55    97.20   102.15
eigval :      117.43   125.60   141.63   148.53   154.08   215.08
eigval :      239.22   264.02   270.69   272.01   277.62   308.71
eigval :      359.16   384.38   395.88   397.42   407.19   421.20
eigval :      426.05   433.00   457.68   496.70   506.74   518.00
eigval :      527.11   536.27   539.70   552.43   570.53   576.25
eigval :      588.68   597.49   622.13   630.15   637.97   673.05
eigval :      681.16   683.22   691.71   704.59   707.92   709.00
eigval :      748.54   759.30   768.54   771.54   779.46   792.53
eigval :      819.65   839.21   865.38   866.87   870.88   880.64
eigval :      881.49   897.14   900.08   901.83   902.70   903.13
eigval :      909.01   915.66   919.76   920.79   921.66   923.07
eigval :      977.17  1011.17  1018.59  1064.90  1068.53  1071.40
eigval :     1072.14  1086.42  1107.85  1115.56  1148.67  1150.28
eigval :     1170.44  1175.44  1180.12  1183.70  1188.62  1190.68
eigval :     1225.50  1235.85  1238.11  1243.19  1256.04  1269.35
eigval :     1298.10  1302.35  1315.71  1323.73  1338.36  1351.42
eigval :     1354.30  1356.97  1362.13  1386.42  1410.85  1414.24
eigval :     1427.20  1432.04  1446.71  1462.62  1474.63  1480.37
eigval :     1487.07  1497.59  1561.08  1571.61  1574.17  1587.38
eigval :     1588.60  1597.07  1605.97  1607.80  1613.35  1639.66
eigval :     3069.55  3069.81  3070.23  3075.08  3075.70  3076.56
eigval :     3082.00  3082.34  3083.38  3083.75  3089.04  3089.62
eigval :     3090.22  3090.78  3091.96  3094.46  3097.21  3101.68

   temp. (K)  partition function   enthalpy   heat capacity  entropy
                                   cal/mol     cal/K/mol   cal/K/mol   J/K/mol
 298.15  VIB  0.146E+09            12471.023     87.095     73.469
         ROT  0.235E+08              888.752      2.981     36.713
         INT  0.344E+16            13359.775     90.076    110.182
         TR   0.793E+28             1481.254      4.968     43.878
         TOT                       14841.0290    95.0438   154.0600   644.5869

       T/K    H(0)-H(T)+PV         H(T)/Eh          T*S/Eh         G(T)/Eh
   ------------------------------------------------------------------------
    298.15    0.236507E-01    0.403654E+00    0.731989E-01    0.330455E+00
   ------------------------------------------------------------------------

         :::::::::::::::::::::::::::::::::::::::::::::::::::::
         ::                  THERMODYNAMIC                  ::
         :::::::::::::::::::::::::::::::::::::::::::::::::::::
         :: total free energy         -79.037239390755 Eh   ::
         ::.................................................::
         :: total energy              -79.367694786002 Eh   ::
         :: zero point energy           0.380003574021 Eh   ::
         :: G(RRHO) w/o ZPVE           -0.049548178774 Eh   ::
         :: G(RRHO) contrib.            0.330455395247 Eh   ::
         :::::::::::::::::::::::::::::::::::::::::::::::::::::

           -------------------------------------------------
          | TOTAL ENERGY              -79.367694786002 Eh   |
          | TOTAL ENTHALPY            -78.964040526833 Eh   |
          | TOTAL FREE ENERGY         -79.037239390755 Eh   |
          | GRADIENT NORM               0.000039386781 Eh/α |
          | HOMO-LUMO GAP               2.479481621438 eV   |
           -------------------------------------------------

 * finished run on 2025/09/08 at 05:56:34.721
