   * xtb version 6.7.1 (edcfbbe) compiled by 'albert@albert-system' on 2024-07-22

   ID    Z sym.   atoms
    1    6 C      1-12, 14-30, 32
    2    7 N      13, 31
    3    1 H      33-50

          program call               : xtb data2507/toluene/5CzICz/5CzICz_toluene_S0_crest.xyz --gfn 2 --gbsa toluene --ohess vtight --parallel 40 --molden --ceasefiles --namespace data2507/toluene/5CzICz/5CzICz_toluene_S0_finalOpt
      * Solvation model:               GBSA
        Solvent                        toluene
        Solvent mass                       9.2140E+01 g/mol
          :  Hamiltonian                  GFN2-xTB          :
 * total energy  :   -79.3676374 Eh     change       -0.4931735E-09 Eh
 * total energy  :   -79.3676561 Eh     change       -0.1869692E-04 Eh
 * total energy  :   -79.3676615 Eh     change       -0.5415669E-05 Eh
 * total energy  :   -79.3676655 Eh     change       -0.3963384E-05 Eh
 * total energy  :   -79.3676689 Eh     change       -0.3403966E-05 Eh
 * total energy  :   -79.3676725 Eh     change       -0.3602679E-05 Eh
 * total energy  :   -79.3676765 Eh     change       -0.4032158E-05 Eh
 * total energy  :   -79.3676813 Eh     change       -0.4722888E-05 Eh
 * total energy  :   -79.3676864 Eh     change       -0.5173229E-05 Eh
 * total energy  :   -79.3676907 Eh     change       -0.4303017E-05 Eh
 * total energy  :   -79.3676972 Eh     change       -0.8324720E-06 Eh
 * total energy  :   -79.3676977 Eh     change       -0.5345785E-06 Eh
 * total energy  :   -79.3676981 Eh     change       -0.4012614E-06 Eh
 * total energy  :   -79.3676985 Eh     change       -0.3411001E-06 Eh
 * total energy  :   -79.3676988 Eh     change       -0.3081652E-06 Eh
 * total energy  :   -79.3676991 Eh     change       -0.3326231E-06 Eh
 * total energy  :   -79.3676995 Eh     change       -0.3445090E-06 Eh
 * total energy  :   -79.3676998 Eh     change       -0.3646893E-06 Eh
 * total energy  :   -79.3676998 Eh     change       -0.5055171E-08 Eh
   *** GEOMETRY OPTIMIZATION CONVERGED AFTER 22 ITERATIONS ***

 final structure:
================
50
 xtb: 6.7.1 (edcfbbe)
C            5.29341158599824        2.72740011153155       -1.34730656234144
C            3.93861006112585        2.96098912950394       -1.57757952768476
C            2.97468176216848        2.04609009418359       -1.19969527224890
C            3.39666418734181        0.88103961510334       -0.57397797904488
C            4.77058037696222        0.62539090012066       -0.35435530400083
C            5.72065807758986        1.56203982027372       -0.74234197094284
C            4.84944126403276       -0.66749610382580        0.26612626395439
C            5.90338457033692       -1.44486982243403        0.72989451785242
C            5.62098509285622       -2.66551488086176        1.31019288284482
C            4.30640481773013       -3.11045088912915        1.44038884542619
C            3.24127536995273       -2.35617860249890        0.98691006282151
C            3.51988390880504       -1.13612140346272        0.38633562665323
N            2.65444613330534       -0.19102974943306       -0.12391441261046
C            1.25221296900825       -0.29116630248191       -0.16394401166930
C            0.65710872880970       -1.40349367277832       -0.76285464979995
C           -0.71866525343039       -1.53900947216478       -0.81925361948681
C           -1.50111370867939       -0.53586767841443       -0.27640167854653
C           -0.90265604555242        0.61320618455824        0.33580263587925
C            0.47544094411170        0.72063510489702        0.39093367469690
C           -1.97668121329528        1.47100547015372        0.80712329552873
C           -2.24100827561425        2.67500518295726        1.45461100855312
C           -3.57530388421818        3.03567439031733        1.65926189889082
C           -4.68406008655844        2.28104288968561        1.26378576210626
C           -4.46046178837679        1.07126307917235        0.61313614995465
C           -5.13027871477356       -0.06639764722080        0.00317310714051
C           -6.46521171643873       -0.39486061010958       -0.16833062595549
C           -6.78809421058370       -1.57840825685072       -0.81070620218150
C           -5.79814178345143       -2.43288891740614       -1.28047783689671
C           -4.45389070910103       -2.13427246466241       -1.12388302048292
C           -4.11962858828727       -0.95530949156496       -0.48445764869457
N           -2.87773568416863       -0.40692993295613       -0.19529478406158
C           -3.11692319915060        0.77070176009060        0.44165731192472
H            6.01647546626903        3.46870803950445       -1.65517226284571
H            3.63580492678069        3.87664354729762       -2.06474024168777
H            1.92815132274780        2.22897839099573       -1.39300599115990
H            6.77159320746460        1.37678251964346       -0.57622688019866
H            6.92144600551121       -1.09561368550761        0.64085792341706
H            6.42669258841650       -3.28506783919617        1.67635380751700
H            4.11647466295457       -4.06481858972433        1.91010859169868
H            2.22508755242252       -2.70174324921874        1.10452152546503
H            1.28928656262255       -2.16393566751283       -1.19597002808978
H           -1.16373138210791       -2.40479023959570       -1.28391114653229
H            0.94539152365504        1.56967238148218        0.86362063189101
H           -1.45139180676899        3.32704416894682        1.79670863867793
H           -3.76567586855825        3.97324120072073        2.16296178790854
H           -5.67923403665219        2.64703545937601        1.46714961191604
H           -7.23919654986324        0.26501296808045        0.19441762199739
H           -7.82569893631970       -1.84370083418537       -0.94987588957152
H           -6.08025365642494       -3.34913616507849       -1.77793692448918
H           -3.69241686770440       -2.80415172552033       -1.49244223309226

          :  Hamiltonian                  GFN2-xTB          :
         :: gradient norm              0.000055364321 Eh/a0 ::
         :: HOMO-LUMO gap              2.479460642301 eV    ::
         :: SCC energy               -80.870407295919 Eh    ::
         :: -> dispersion             -0.068313028788 Eh    ::
         :: -> Gsolv                  -0.031814838906 Eh    ::
         :: repulsion energy           1.502707469324 Eh    ::

    * Orbital Energies and Occupations

         #    Occupation            Energy/Eh            Energy/eV
      -------------------------------------------------------------
         1        2.0000           -0.6889617             -18.7476
       ...           ...                  ...                  ...
        62        2.0000           -0.4262754             -11.5995
        63        2.0000           -0.4221248             -11.4866
        64        2.0000           -0.4215594             -11.4712
        65        2.0000           -0.4206085             -11.4453
        66        2.0000           -0.4180556             -11.3759
        67        2.0000           -0.4162736             -11.3274
        68        2.0000           -0.4148933             -11.2898
        69        2.0000           -0.4039459             -10.9919
        70        2.0000           -0.3908580             -10.6358
        71        2.0000           -0.3867047             -10.5228
        72        2.0000           -0.3772471             -10.2654
        73        2.0000           -0.3771100             -10.2617
        74        2.0000           -0.3588879              -9.7658 (HOMO)
        75                         -0.2677694              -7.2864 (LUMO)
        76                         -0.2446903              -6.6584
        77                         -0.2385877              -6.4923
        78                         -0.2341489              -6.3715
        79                         -0.2206379              -6.0039
        80                         -0.2150980              -5.8531
        81                         -0.1970020              -5.3607
        82                         -0.1853072              -5.0425
        83                         -0.1848094              -5.0289
        84                         -0.1810733              -4.9273
        85                         -0.0988050              -2.6886
       ...                                ...                  ...
       146                          0.7626796              20.7536
      -------------------------------------------------------------
                  HL-Gap            0.0911185 Eh            2.4795 eV

     #   Z          covCN         q      C6AA      α(0)
     1   6 C        2.919    -0.043    29.076     8.843
     2   6 C        2.924    -0.035    28.880     8.813
     3   6 C        2.909    -0.052    29.293     8.875
     4   6 C        3.078     0.047    26.857     8.496
     5   6 C        3.067    -0.019    28.421     8.742
     6   6 C        2.912    -0.035    28.877     8.812
     7   6 C        3.068    -0.019    28.420     8.742
     8   6 C        2.912    -0.035    28.876     8.812
     9   6 C        2.919    -0.043    29.078     8.843
    10   6 C        2.924    -0.035    28.882     8.813
    11   6 C        2.909    -0.052    29.300     8.876
    12   6 C        3.077     0.047    26.860     8.497
    13   7 N        2.803    -0.047    22.147     6.990
    14   6 C        2.911     0.056    26.753     8.481
    15   6 C        2.925    -0.045    29.118     8.849
    16   6 C        2.908    -0.046    29.131     8.850
    17   6 C        3.085     0.048    26.835     8.492
    18   6 C        3.113    -0.010    28.115     8.686
    19   6 C        2.914    -0.045    29.118     8.849
    20   6 C        3.022    -0.017    28.413     8.744
    21   6 C        2.932    -0.032    28.805     8.802
    22   6 C        2.922    -0.041    29.028     8.835
    23   6 C        2.932    -0.032    28.800     8.801
    24   6 C        3.021    -0.017    28.401     8.742
    25   6 C        3.111    -0.012    28.153     8.692
    26   6 C        2.911    -0.032    28.803     8.800
    27   6 C        2.919    -0.038    28.956     8.824
    28   6 C        2.923    -0.032    28.802     8.801
    29   6 C        2.908    -0.046    29.153     8.853
    30   6 C        3.084     0.050    26.785     8.484
    31   7 N        2.832    -0.031    21.845     6.942
    32   6 C        3.468     0.036    22.047     7.049
    33   1 H        0.926     0.027     2.632     2.537
    34   1 H        0.926     0.029     2.600     2.521
    35   1 H        0.926     0.028     2.608     2.526
    36   1 H        0.926     0.029     2.599     2.521
    37   1 H        0.926     0.029     2.599     2.521
    38   1 H        0.926     0.027     2.633     2.537
    39   1 H        0.926     0.029     2.600     2.522
    40   1 H        0.926     0.029     2.606     2.525
    41   1 H        0.926     0.045     2.380     2.412
    42   1 H        0.926     0.043     2.408     2.427
    43   1 H        0.926     0.046     2.374     2.409
    44   1 H        0.926     0.035     2.513     2.479
    45   1 H        0.926     0.036     2.505     2.475
    46   1 H        0.926     0.035     2.510     2.478
    47   1 H        0.926     0.038     2.481     2.463
    48   1 H        0.926     0.035     2.520     2.483
    49   1 H        0.926     0.037     2.495     2.470
    50   1 H        0.926     0.035     2.509     2.477

molecular dipole:
                 x           y           z       tot (Debye)
 q only:       -0.904      -0.144      -0.074
   full:       -0.920      -0.224      -0.116       2.425

 projected vibrational frequencies (cm⁻¹)
eigval :       -0.00    -0.00    -0.00    -0.00     0.00     0.00
eigval :       19.25    24.53    33.78    65.86    95.32   101.93
eigval :      116.81   125.96   141.65   148.90   154.02   214.98
eigval :      239.39   264.47   269.96   271.76   277.86   309.04
eigval :      358.84   384.32   396.41   398.18   407.85   421.00
eigval :      426.02   432.96   457.57   496.81   506.68   517.95
eigval :      526.67   535.98   539.44   552.72   570.58   576.32
eigval :      588.71   597.49   622.16   630.09   638.14   673.05
eigval :      681.08   683.43   691.77   704.90   708.05   708.97
eigval :      748.55   759.28   768.12   771.16   779.01   792.02
eigval :      820.08   839.23   865.62   866.88   870.64   880.34
eigval :      882.71   897.20   899.27   901.61   902.65   903.10
eigval :      909.24   914.87   919.56   920.70   921.10   923.39
eigval :      977.15  1011.13  1018.62  1065.01  1068.45  1071.31
eigval :     1072.02  1086.45  1107.79  1115.59  1148.63  1150.32
eigval :     1170.35  1175.47  1180.23  1183.63  1188.79  1190.21
eigval :     1225.43  1235.69  1237.98  1243.16  1255.99  1269.22
eigval :     1298.02  1302.24  1315.71  1323.66  1338.22  1351.38
eigval :     1354.37  1356.93  1362.10  1386.49  1410.84  1414.13
eigval :     1427.13  1431.91  1446.60  1462.47  1474.52  1480.35
eigval :     1487.00  1497.57  1561.16  1571.59  1574.21  1587.31
eigval :     1588.60  1597.01  1606.03  1607.88  1613.27  1639.68
eigval :     3069.37  3069.71  3070.60  3075.18  3075.83  3076.55
eigval :     3081.92  3082.41  3083.36  3083.50  3089.06  3089.73
eigval :     3090.17  3090.69  3092.08  3095.79  3097.17  3101.66

   temp. (K)  partition function   enthalpy   heat capacity  entropy
                                   cal/mol     cal/K/mol   cal/K/mol   J/K/mol
 298.15  VIB  0.153E+09            12474.130     87.087     73.524
         ROT  0.235E+08              888.752      2.981     36.712
         INT  0.361E+16            13362.883     90.068    110.236
         TR   0.793E+28             1481.254      4.968     43.878
         TOT                       14844.1368    95.0363   154.1144   644.8148

       T/K    H(0)-H(T)+PV         H(T)/Eh          T*S/Eh         G(T)/Eh
   ------------------------------------------------------------------------
    298.15    0.236556E-01    0.403649E+00    0.732247E-01    0.330424E+00
   ------------------------------------------------------------------------

         :::::::::::::::::::::::::::::::::::::::::::::::::::::
         ::                  THERMODYNAMIC                  ::
         :::::::::::::::::::::::::::::::::::::::::::::::::::::
         :: total free energy         -79.037275713514 Eh   ::
         ::.................................................::
         :: total energy              -79.367699821428 Eh   ::
         :: zero point energy           0.379993208235 Eh   ::
         :: G(RRHO) w/o ZPVE           -0.049569100321 Eh   ::
         :: G(RRHO) contrib.            0.330424107914 Eh   ::
         :::::::::::::::::::::::::::::::::::::::::::::::::::::

           -------------------------------------------------
          | TOTAL ENERGY              -79.367699821428 Eh   |
          | TOTAL ENTHALPY            -78.964050975530 Eh   |
          | TOTAL FREE ENERGY         -79.037275713514 Eh   |
          | GRADIENT NORM               0.000055355902 Eh/α |
          | HOMO-LUMO GAP               2.479460795320 eV   |
           -------------------------------------------------

 * finished run on 2025/09/08 at 05:57:36.770
