   * xtb version 6.7.1 (edcfbbe) compiled by 'albert@albert-system' on 2024-07-22

   ID    Z sym.   atoms
    1    7 N      1, 11, 17, 35, 45
    2    6 C      2-10, 12-16, 18-34, 36-44, 46-52
    3    1 H      53-81

          program call               : xtb data2507/gas/2PyCNICz/2PyCNICz.xyz --gfn 2 --ohess vtight --parallel 40 --molden --ceasefiles --namespace data2507/gas/2PyCNICz/2PyCNICz_gas_S0_preOpt
          :  Hamiltonian                  GFN2-xTB          :
 * total energy  :  -130.0496457 Eh     change       -0.2494090E-08 Eh
 * total energy  :  -130.0689215 Eh     change       -0.1927589E-01 Eh
 * total energy  :  -130.0747787 Eh     change       -0.5857193E-02 Eh
 * total energy  :  -130.0769691 Eh     change       -0.2190376E-02 Eh
 * total energy  :  -130.0787712 Eh     change       -0.1802130E-02 Eh
 * total energy  :  -130.0799037 Eh     change       -0.1132484E-02 Eh
 * total energy  :  -130.0807370 Eh     change       -0.8332456E-03 Eh
 * total energy  :  -130.0814268 Eh     change       -0.6898037E-03 Eh
 * total energy  :  -130.0820381 Eh     change       -0.6113546E-03 Eh
 * total energy  :  -130.0826193 Eh     change       -0.5811746E-03 Eh
 * total energy  :  -130.0851645 Eh     change       -0.3557961E-06 Eh
 * total energy  :  -130.0851648 Eh     change       -0.3279702E-06 Eh
 * total energy  :  -130.0851651 Eh     change       -0.2606562E-06 Eh
 * total energy  :  -130.0851654 Eh     change       -0.2933787E-06 Eh
 * total energy  :  -130.0851657 Eh     change       -0.3822473E-06 Eh
 * total energy  :  -130.0851661 Eh     change       -0.3262934E-06 Eh
 * total energy  :  -130.0851663 Eh     change       -0.2526242E-06 Eh
 * total energy  :  -130.0851665 Eh     change       -0.1445885E-06 Eh
 * total energy  :  -130.0851665 Eh     change       -0.3037167E-07 Eh
   *** GEOMETRY OPTIMIZATION CONVERGED AFTER 62 ITERATIONS ***

 final structure:
================
81
 xtb: 6.7.1 (edcfbbe)
N           -7.96083096767553        1.80955243933845       -0.19231952325801
C           -6.90102679393304        1.36644998990707       -0.21877630275865
C           -5.60520774529605        0.82294801540100       -0.25045632484951
C           -5.29307456834356       -0.39564629771013        0.39071216084685
C           -6.28544553450368       -1.19149890513511        1.12289822574431
C           -5.89837839827856       -1.81107184966507        2.30991512221830
C           -6.80410067248685       -2.56682895685458        3.02800028223182
C           -8.09876379534819       -2.72717422242001        2.56056793482086
C           -8.48097074024913       -2.13605431316069        1.36789745771406
C           -7.58201863526974       -1.36970475915004        0.64907135654758
N           -4.05997026679656       -0.87401846739409        0.37603040818705
C           -3.12863227690523       -0.21981245033341       -0.31220913240346
C           -1.78560238312010       -0.78750867377494       -0.34726653329858
C           -0.75508600056290       -0.11946367337575       -1.01015777818704
C            0.51341456791962       -0.65518420234017       -1.03956501488891
C            0.77603076523355       -1.86895166995936       -0.40237248948020
N            2.05989307867127       -2.41965664588320       -0.45539089525916
C            2.33929525667984       -3.64985439003127       -1.03135138566998
C            1.47399426553410       -4.65423125805480       -1.43616056864150
C            2.02321675261804       -5.78788190007112       -2.00586576798961
C            3.39817869413763       -5.91899540776634       -2.18275365305416
C            4.26110359830938       -4.90810953549676       -1.80983494999459
C            3.73184486055320       -3.76073108392529       -1.23356853643420
C            4.31320804800583       -2.53356958275230       -0.76903399131093
C            5.63261532556215       -2.08258964820144       -0.75476844300172
C            5.91446295762200       -0.82546798471351       -0.27310913993488
C            4.87146723494152       -0.05862681873739        0.24682485650943
C            3.53070280276084       -0.51029708574987        0.32158179338692
C            2.80788681090302        0.48584009584699        1.06732191726416
C            1.51698057825377        0.58504823340153        1.57924533889425
C            1.15479834796809        1.72415140203886        2.26916385357498
C            2.05366371764426        2.76954041692677        2.46340184145372
C            3.35623188546333        2.67689294557575        2.01641741737137
C            3.73376870949860        1.52045639998697        1.34917246924240
N            4.96836704081181        1.18013573615362        0.84358199206689
C            6.13636899004231        1.95113583133051        0.94041165047149
C            6.88169071945378        2.23337319678807       -0.20056417178078
C            8.03385484875996        2.99109499422241       -0.10236197753502
C            8.44561040453854        3.47991504269563        1.12639625093221
C            7.70291945807328        3.20270313392375        2.26208001937129
C            6.55478830781351        2.43721681842826        2.17530331436940
C            3.25027938037424       -1.74028395712597       -0.28194602965269
C           -0.25199228137978       -2.54063385618281        0.25825708052876
C           -1.52081173681844       -2.00257782256796        0.28567382519389
N           -3.33963800303359        0.91600549530257       -0.97069514522532
C           -4.54284062482788        1.46360067946336       -0.92488746024423
C           -4.69786395887716        2.74162194997588       -1.62961317833369
C           -4.02799479632678        2.92056872880659       -2.83879176633554
C           -4.15166256549737        4.10738736225650       -3.53394658650708
C           -4.92947718021902        5.13364585645471       -3.02189301177551
C           -5.57524254535805        4.97129757866796       -1.80757834652259
C           -5.46367539610044        3.78191617921601       -1.11112585496270
H           -4.88588416842162       -1.67912801382596        2.66016271479071
H           -6.50080920044540       -3.03395406074878        3.95337039017586
H           -8.80730776951039       -3.31802585724524        3.12191314533775
H           -9.48435302450553       -2.27181907961017        0.99321249578034
H           -7.88315547676675       -0.93176142151192       -0.29042632052914
H           -0.97109713424029        0.81872857228139       -1.49595155180765
H            1.31475132368242       -0.14303380832490       -1.55034320764498
H            0.40497372157673       -4.55666972761756       -1.32359771080075
H            1.37036972338418       -6.58735610133466       -2.32366673490904
H            3.78939558063871       -6.82174732928857       -2.62795119388067
H            5.32548509569457       -5.00152910048153       -1.96399813225552
H            6.42115178011443       -2.71697447021298       -1.12850142246505
H            6.92495148124398       -0.44734948545036       -0.26328941534711
H            0.80735539041535       -0.21648231526040        1.46389836328560
H            0.15323281455422        1.80698200687116        2.66425846072216
H            1.73272481079521        3.65774268464881        2.98706877752420
H            4.06050302971166        3.47843829638710        2.18099843491804
H            6.54633816964625        1.86528650660243       -1.15882151582195
H            8.60852270936891        3.20736437519466       -0.99078757528434
H            9.34348556976887        4.07480953108908        1.19882802348841
H            8.02362422939933        3.57744249963059        3.22282287554632
H            5.98458179081693        2.20011295682204        3.06105028475951
H           -0.03866818031816       -3.46849102544193        0.76757423376963
H           -2.32434284374945       -2.50649477808375        0.79957329992141
H           -3.42392670837483        2.11305492957702       -3.22379744573387
H           -3.63983529389294        4.23442167292564       -4.47650444977069
H           -5.02668882118650        6.06173249329790       -3.56548129066483
H           -6.16910195420587        5.77469343414934       -1.39829104640071
H           -5.95261018613950        3.67393451132909       -0.15488409635808

          :  Hamiltonian                  GFN2-xTB          :
         :: gradient norm              0.000089368932 Eh/a0 ::
         :: HOMO-LUMO gap              1.632586666654 eV    ::
         :: SCC energy              -132.547840383889 Eh    ::
         :: -> dispersion             -0.117864354862 Eh    ::
         :: repulsion energy           2.462673888546 Eh    ::

    * Orbital Energies and Occupations

         #    Occupation            Energy/Eh            Energy/eV
      -------------------------------------------------------------
         1        2.0000           -0.6881431             -18.7253
       ...           ...                  ...                  ...
       109        2.0000           -0.4138697             -11.2620
       110        2.0000           -0.4136093             -11.2549
       111        2.0000           -0.4133002             -11.2465
       112        2.0000           -0.4116230             -11.2008
       113        2.0000           -0.4096361             -11.1468
       114        2.0000           -0.4086593             -11.1202
       115        2.0000           -0.4041529             -10.9976
       116        2.0000           -0.4018945             -10.9361
       117        2.0000           -0.3914534             -10.6520
       118        2.0000           -0.3835957             -10.4382
       119        2.0000           -0.3709727             -10.0947
       120        2.0000           -0.3607111              -9.8154
       121        2.0000           -0.3557672              -9.6809 (HOMO)
       122                         -0.2957709              -8.0483 (LUMO)
       123                         -0.2835146              -7.7148
       124                         -0.2489370              -6.7739
       125                         -0.2480256              -6.7491
       126                         -0.2358358              -6.4174
       127                         -0.2343952              -6.3782
       128                         -0.2337872              -6.3617
       129                         -0.2331899              -6.3454
       130                         -0.2321252              -6.3164
       131                         -0.2314403              -6.2978
       132                         -0.2187939              -5.9537
       ...                                ...                  ...
       237                          1.1688753              31.8067
      -------------------------------------------------------------
                  HL-Gap            0.0599963 Eh            1.6326 eV

     #   Z          covCN         q      C6AA      α(0)
     1   7 N        0.911    -0.250    26.504     7.446
     2   6 C        1.904     0.112    28.350     8.599
     3   6 C        2.962    -0.026    28.637     8.778
     4   6 C        2.970     0.119    25.373     8.262
     5   6 C        2.983     0.005    27.912     8.666
     6   6 C        2.926    -0.023    28.578     8.767
     7   6 C        2.919    -0.027    28.666     8.780
     8   6 C        2.920    -0.024    28.606     8.771
     9   6 C        2.919    -0.025    28.628     8.774
    10   6 C        2.922    -0.026    28.649     8.778
    11   7 N        1.851    -0.267    27.789     7.813
    12   6 C        2.942     0.187    24.015     8.037
    13   6 C        2.985    -0.002    28.070     8.691
    14   6 C        2.922    -0.023    28.586     8.768
    15   6 C        2.920    -0.037    28.912     8.818
    16   6 C        2.915     0.074    26.350     8.418
    17   7 N        2.803    -0.042    22.042     6.973
    18   6 C        3.075     0.044    26.925     8.508
    19   6 C        2.910    -0.051    29.262     8.870
    20   6 C        2.924    -0.035    28.866     8.811
    21   6 C        2.920    -0.040    28.996     8.830
    22   6 C        2.913    -0.034    28.856     8.809
    23   6 C        3.068    -0.015    28.307     8.724
    24   6 C        3.068    -0.028    28.617     8.772
    25   6 C        2.916    -0.036    28.898     8.815
    26   6 C        2.912    -0.061    29.509     8.908
    27   6 C        3.080     0.043    26.942     8.510
    28   6 C        3.053    -0.037    28.879     8.813
    29   6 C        3.062    -0.017    28.369     8.734
    30   6 C        2.914    -0.038    28.937     8.821
    31   6 C        2.919    -0.041    29.013     8.833
    32   6 C        2.923    -0.034    28.844     8.807
    33   6 C        2.910    -0.052    29.280     8.873
    34   6 C        3.080     0.045    26.897     8.503
    35   7 N        2.803    -0.042    22.048     6.974
    36   6 C        2.914     0.065    26.537     8.447
    37   6 C        2.922    -0.041    29.028     8.835
    38   6 C        2.920    -0.028    28.697     8.785
    39   6 C        2.919    -0.033    28.813     8.802
    40   6 C        2.920    -0.028    28.694     8.784
    41   6 C        2.922    -0.041    29.030     8.836
    42   6 C        3.061     0.043    26.979     8.518
    43   6 C        2.920    -0.042    29.039     8.837
    44   6 C        2.923    -0.025    28.637     8.776
    45   7 N        1.851    -0.267    27.777     7.811
    46   6 C        2.970     0.119    25.371     8.262
    47   6 C        2.982     0.005    27.911     8.666
    48   6 C        2.926    -0.023    28.575     8.766
    49   6 C        2.919    -0.027    28.665     8.780
    50   6 C        2.920    -0.024    28.605     8.771
    51   6 C        2.919    -0.025    28.629     8.774
    52   6 C        2.922    -0.026    28.649     8.778
    53   1 H        0.926     0.048     2.351     2.398
    54   1 H        0.926     0.038     2.476     2.461
    55   1 H        0.926     0.038     2.474     2.460
    56   1 H        0.926     0.040     2.443     2.444
    57   1 H        0.926     0.039     2.457     2.451
    58   1 H        0.926     0.062     2.179     2.308
    59   1 H        0.926     0.045     2.381     2.413
    60   1 H        0.926     0.028     2.621     2.532
    61   1 H        0.926     0.029     2.605     2.524
    62   1 H        0.926     0.028     2.617     2.530
    63   1 H        0.926     0.030     2.585     2.514
    64   1 H        0.926     0.033     2.544     2.494
    65   1 H        0.926     0.028     2.612     2.527
    66   1 H        0.926     0.026     2.637     2.539
    67   1 H        0.926     0.025     2.658     2.549
    68   1 H        0.926     0.028     2.610     2.527
    69   1 H        0.926     0.027     2.625     2.534
    70   1 H        0.926     0.041     2.432     2.439
    71   1 H        0.926     0.037     2.491     2.468
    72   1 H        0.926     0.036     2.505     2.475
    73   1 H        0.926     0.037     2.492     2.469
    74   1 H        0.926     0.041     2.430     2.438
    75   1 H        0.926     0.047     2.354     2.399
    76   1 H        0.926     0.061     2.183     2.310
    77   1 H        0.926     0.048     2.349     2.397
    78   1 H        0.926     0.038     2.478     2.462
    79   1 H        0.926     0.038     2.475     2.460
    80   1 H        0.926     0.040     2.443     2.444
    81   1 H        0.926     0.040     2.454     2.450

molecular dipole:
                 x           y           z       tot (Debye)
 q only:        1.271       0.101       0.044
   full:        1.301       0.173       0.055       3.339

 projected vibrational frequencies (cm⁻¹)
eigval :       -0.00    -0.00     0.00     0.00     0.00     0.00
eigval :        6.23    10.81    16.14    23.24    30.17    35.51
eigval :       38.04    39.43    46.04    58.04    60.57    65.33
eigval :       69.70    74.61    93.87   102.59   110.95   123.00
eigval :      131.41   133.52   152.60   161.44   169.58   200.57
eigval :      215.13   218.54   221.40   231.86   237.73   240.12
eigval :      243.43   262.74   275.83   298.02   302.78   322.48
eigval :      324.28   355.88   371.95   373.09   376.15   378.46
eigval :      381.28   387.16   391.61   409.07   420.17   431.28
eigval :      437.49   448.38   454.43   471.09   479.63   490.52
eigval :      501.26   518.36   527.70   536.33   554.08   559.36
eigval :      576.83   583.50   584.97   585.43   591.20   596.49
eigval :      598.55   608.42   614.05   620.23   622.22   626.56
eigval :      643.76   649.87   670.05   673.07   673.73   674.78
eigval :      681.02   688.20   699.41   702.49   707.42   725.28
eigval :      748.96   757.56   766.35   772.40   772.96   773.79
eigval :      775.86   819.68   827.91   832.73   842.32   867.02
eigval :      870.21   873.75   875.69   876.29   877.93   881.08
eigval :      882.81   895.73   901.36   904.15   906.68   906.84
eigval :      909.04   916.46   920.26   922.28   924.18   929.00
eigval :      929.14   932.65   933.16   933.27   933.45   934.44
eigval :      935.13   971.26   986.52   988.97  1008.01  1014.51
eigval :     1066.58  1072.13  1074.14  1079.66  1082.50  1084.35
eigval :     1086.45  1103.38  1118.03  1120.50  1121.39  1123.92
eigval :     1140.59  1146.18  1153.55  1171.58  1177.68  1178.23
eigval :     1180.56  1181.06  1181.19  1181.62  1183.98  1190.72
eigval :     1197.82  1199.30  1208.08  1226.78  1242.06  1245.85
eigval :     1252.21  1254.46  1263.22  1274.66  1278.75  1279.62
eigval :     1288.65  1310.18  1312.82  1317.96  1321.55  1322.32
eigval :     1325.87  1346.73  1360.21  1363.54  1364.70  1376.56
eigval :     1386.41  1389.06  1397.62  1406.62  1412.87  1429.28
eigval :     1430.59  1430.65  1434.06  1436.27  1465.78  1474.79
eigval :     1476.72  1479.13  1483.24  1484.64  1486.51  1493.02
eigval :     1508.27  1560.64  1569.69  1575.86  1581.80  1582.25
eigval :     1582.90  1588.38  1590.34  1595.64  1595.83  1595.92
eigval :     1598.01  1606.86  1609.51  2344.72  3076.79  3077.57
eigval :     3078.12  3078.23  3079.32  3081.44  3082.57  3084.32
eigval :     3084.43  3084.53  3088.99  3090.06  3090.87  3091.51
eigval :     3091.77  3091.93  3093.43  3094.00  3094.66  3096.54
eigval :     3097.78  3097.91  3099.53  3100.85  3100.99  3101.67
eigval :     3108.27  3111.72  3130.35

   temp. (K)  partition function   enthalpy   heat capacity  entropy
                                   cal/mol     cal/K/mol   cal/K/mol   J/K/mol
 298.15  VIB  0.976E+19            23750.172    148.937    148.770
         ROT  0.121E+09              888.752      2.981     39.963
         INT  0.118E+28            24638.925    151.918    188.732
         TR   0.165E+29             1481.254      4.968     45.339
         TOT                       26120.1785   156.8865   234.0718   979.3564

       T/K    H(0)-H(T)+PV         H(T)/Eh          T*S/Eh         G(T)/Eh
   ------------------------------------------------------------------------
    298.15    0.416252E-01    0.652469E+00    0.111215E+00    0.541254E+00
   ------------------------------------------------------------------------

         :::::::::::::::::::::::::::::::::::::::::::::::::::::
         ::                  THERMODYNAMIC                  ::
         :::::::::::::::::::::::::::::::::::::::::::::::::::::
         :: total free energy        -129.543912099229 Eh   ::
         ::.................................................::
         :: total energy             -130.085166495339 Eh   ::
         :: zero point energy           0.610844305639 Eh   ::
         :: G(RRHO) w/o ZPVE           -0.069589909528 Eh   ::
         :: G(RRHO) contrib.            0.541254396110 Eh   ::
         :::::::::::::::::::::::::::::::::::::::::::::::::::::

           -------------------------------------------------
          | TOTAL ENERGY             -130.085166495339 Eh   |
          | TOTAL ENTHALPY           -129.432697035653 Eh   |
          | TOTAL FREE ENERGY        -129.543912099229 Eh   |
          | GRADIENT NORM               0.000089191388 Eh/α |
          | HOMO-LUMO GAP               1.632583092486 eV   |
           -------------------------------------------------

 * finished run on 2025/09/08 at 14:50:27.720
