   * xtb version 6.7.1 (edcfbbe) compiled by 'albert@albert-system' on 2024-07-22

   ID    Z sym.   atoms
    1    7 N      1, 11, 17, 35, 45
    2    6 C      2-10, 12-16, 18-34, 36-44, 46-52
    3    1 H      53-81

          program call               : xtb data2507/gas/2PyCNICz/2PyCNICz_gas_S0_finalOpt.xtbopt.xyz --gfn 2 --spinpol --tblite --uhf 2 --ohess vtight --parallel 40 --molden --ceasefiles --namespace data2507/gas/2PyCNICz/2PyCNICz_gas_T1_preOpt
 * total energy  :  -130.0083488 Eh     change        0.1334044E-07 Eh
 * total energy  :  -130.0125320 Eh     change       -0.4183240E-02 Eh
 * total energy  :  -130.0147684 Eh     change       -0.2236425E-02 Eh
 * total energy  :  -130.0149765 Eh     change       -0.2080653E-03 Eh
 * total energy  :  -130.0150654 Eh     change       -0.8888716E-04 Eh
 * total energy  :  -130.0151077 Eh     change       -0.4235383E-04 Eh
 * total energy  :  -130.0151391 Eh     change       -0.3132225E-04 Eh
 * total energy  :  -130.0151651 Eh     change       -0.2601560E-04 Eh
 * total energy  :  -130.0151875 Eh     change       -0.2245168E-04 Eh
 * total energy  :  -130.0151964 Eh     change       -0.8912251E-05 Eh
 * total energy  :  -130.0152858 Eh     change       -0.1066528E-05 Eh
 * total energy  :  -130.0152872 Eh     change       -0.1384544E-05 Eh
 * total energy  :  -130.0152892 Eh     change       -0.1940026E-05 Eh
 * total energy  :  -130.0152910 Eh     change       -0.1860266E-05 Eh
 * total energy  :  -130.0152923 Eh     change       -0.1296335E-05 Eh
 * total energy  :  -130.0152931 Eh     change       -0.7643553E-06 Eh
 * total energy  :  -130.0152937 Eh     change       -0.6086946E-06 Eh
 * total energy  :  -130.0152943 Eh     change       -0.6298284E-06 Eh
 * total energy  :  -130.0152943 Eh     change       -0.8005145E-08 Eh
   *** GEOMETRY OPTIMIZATION CONVERGED AFTER 44 ITERATIONS ***

 final structure:
================
81
 xtb: 6.7.1 (edcfbbe)
N           -7.78455103413083        1.80562608386308       -0.44977658809915
C           -6.78350363865413        1.27177285108753       -0.21909453992354
C           -5.57193315173748        0.65397446953870        0.03066088864799
C           -4.58113778885471        1.19744553869137        0.92246498019677
C           -4.87833520494592        2.32915185702712        1.80531334460514
C           -6.13725988000299        2.51309606689842        2.37194428300029
C           -6.36989545568770        3.58902687676652        3.20805647120422
C           -5.35663074508202        4.49067274315477        3.48836038904140
C           -4.09791570870202        4.30511455433516        2.93844979159028
C           -3.85605839790906        3.23078870553770        2.10650995825701
N           -3.38431651948604        0.70410923021518        0.97189374744785
C           -2.98430238133038       -0.35118807993635        0.23135044503319
C           -1.65688292427311       -0.84284334522837        0.30733985872318
C           -1.25807472717316       -1.95891797895573       -0.45523925181180
C            0.03316617865502       -2.42092674978445       -0.39922192264369
C            0.97253757684279       -1.77910992659914        0.41184583935552
N            2.29158340478948       -2.25963509109951        0.48939330055465
C            2.61064313883377       -3.50142590665423        1.01100174350698
C            1.77176938868757       -4.54574959042554        1.36448206937604
C            2.35421217394563       -5.69084183636706        1.88006849301233
C            3.73171965557299       -5.79039022680811        2.04948777147290
C            4.56941704190838       -4.74039242896075        1.71865332001983
C            4.00749416984941       -3.58397291678408        1.19714313512731
C            4.54641907232852       -2.32109544985610        0.77671132994016
C            5.84146406248562       -1.81642249516577        0.80398279724615
C            6.07934764650593       -0.53108050079815        0.36389063991774
C            5.01612062409694        0.20507564763323       -0.15869525280530
C            3.68356035396140       -0.27242350709172       -0.21913607985695
C            2.91356682209152        0.75503817730743       -0.86635831363288
C            1.60663836389717        0.85487949402099       -1.33714342061143
C            1.20742262236935        2.01712537528876       -1.96383677924314
C            2.09070974816202        3.07745999655292       -2.16231049080614
C            3.40412663085848        2.99156218262977       -1.75108210240186
C            3.80723633022510        1.83074170178587       -1.10370973820638
N            5.06493228431942        1.48348776921244       -0.67197123211741
C            6.21238013947575        2.28523022182807       -0.78148836201596
C            7.34730214783369        1.80186449436052       -1.42521971813587
C            8.47207104968650        2.59930413644111       -1.52910619668120
C            8.47071080954107        3.88100428257651       -1.00407565718456
C            7.33872379263643        4.36538750440022       -0.36971079433799
C            6.21214536744529        3.57239617487621       -0.25296788533070
C            3.44589390085594       -1.54228802753761        0.32316516644155
C            0.58743029689176       -0.68087122981667        1.18764579389123
C           -0.70319478496669       -0.22011738613635        1.13755940011722
N           -3.90047819504944       -0.93032037991617       -0.57420627195862
C           -5.12023451806264       -0.50895484840675       -0.68665809880078
C           -6.00721127872776       -1.24745776009645       -1.59042009293077
C           -5.45999904837362       -1.84674864433968       -2.72613545313260
C           -6.26469176982068       -2.55298379167222       -3.59706487579240
C           -7.62163967676241       -2.67933268062093       -3.34413314447527
C           -8.16693158075147       -2.10294397754366       -2.20893338740404
C           -7.36870031066910       -1.38978399483180       -1.33418219818586
H           -6.93073759808325        1.80892752275297        2.17555483840245
H           -7.34918482565666        3.72289478168318        3.64264550363958
H           -5.54594127274323        5.33358456750813        4.13634208066138
H           -3.30259817653169        5.00223978562361        3.15868018363777
H           -2.88022432126090        3.08057851678724        1.66933145597684
H           -1.99053255988043       -2.43843051892585       -1.08645364572449
H            0.34238457481169       -3.26596928687993       -0.99731227231810
H            0.70166200049053       -4.46753551633499        1.24864345857612
H            1.72525524941027       -6.52269160660411        2.15973734285998
H            4.14960352253056       -6.70050020084519        2.45310089008130
H            5.63638238316472       -4.81577080252620        1.86413784339006
H            6.64857530783095       -2.42404829996271        1.18224542545746
H            7.06749203386924       -0.10153458960116        0.41567178991106
H            0.91501721965460        0.03684620286717       -1.23840559961543
H            0.19243627874776        2.10167362920394       -2.32175771248600
H            1.74692090538351        3.96938084966389       -2.66425777398083
H            4.10370924999192        3.79099315234423       -1.94300156319153
H            7.33515979654198        0.81063807110261       -1.85341111837860
H            9.35053595987482        2.22070498104507       -2.03001410467026
H            9.34955826807567        4.50163364445566       -1.09048971400309
H            7.33463492558720        5.36339196136831        0.04243290240409
H            5.33270650398985        3.93773313885795        0.25611489231293
H            1.32011453779215       -0.20449670637719        1.82260255459771
H           -1.01392683851244        0.62272547570984        1.73529876107435
H           -4.40289016430085       -1.73797914017476       -2.91720228054714
H           -5.83356353878809       -3.00576900871613       -4.47802658333924
H           -8.25135431173200       -3.22836015199736       -4.02840713134144
H           -9.22141076932042       -2.20772100812605       -2.00184128822235
H           -7.80294858679749       -0.95954814821624       -0.44513912910873

 projected vibrational frequencies (cm⁻¹)
eigval :       -0.00    -0.00    -0.00     0.00     0.00     0.00
eigval :        7.11    10.29    15.88    23.35    25.84    31.00
eigval :       35.13    40.16    41.26    57.47    62.02    65.81
eigval :       72.17    80.26    91.81    97.64   109.00   124.07
eigval :      126.15   139.38   148.47   158.79   164.14   190.19
eigval :      210.71   221.85   224.45   228.15   230.98   238.76
eigval :      249.45   263.75   279.52   295.33   306.41   320.88
eigval :      331.25   356.16   372.17   372.79   374.82   379.71
eigval :      380.02   385.36   394.53   402.66   413.66   422.68
eigval :      425.43   442.07   448.93   464.87   469.87   474.83
eigval :      479.72   498.16   517.05   535.16   551.05   554.79
eigval :      560.33   569.03   573.97   583.73   584.37   586.79
eigval :      589.68   593.37   597.59   604.09   611.02   613.20
eigval :      623.24   644.51   646.63   663.72   667.14   670.14
eigval :      670.58   676.16   680.92   687.54   700.86   707.37
eigval :      709.67   753.65   757.10   757.80   768.02   771.88
eigval :      773.94   803.21   815.41   823.78   826.60   840.20
eigval :      848.49   866.75   867.96   869.46   869.75   877.91
eigval :      881.03   892.10   898.86   899.51   900.40   902.82
eigval :      904.60   909.00   910.65   913.70   914.77   920.23
eigval :      922.70   924.81   926.17   926.23   929.54   929.70
eigval :      933.56   933.85   958.34   985.21   986.68   999.00
eigval :     1007.28  1040.09  1069.67  1070.43  1078.63  1081.95
eigval :     1082.82  1083.96  1100.38  1105.86  1117.56  1120.95
eigval :     1124.12  1126.08  1138.18  1144.51  1145.72  1165.24
eigval :     1175.04  1179.46  1180.32  1180.59  1180.87  1181.23
eigval :     1189.85  1196.64  1197.63  1205.68  1222.19  1235.86
eigval :     1251.83  1255.55  1259.98  1273.24  1275.83  1278.87
eigval :     1279.29  1283.25  1301.48  1304.22  1315.37  1317.22
eigval :     1323.80  1324.77  1326.63  1341.75  1352.07  1356.61
eigval :     1362.10  1387.33  1397.48  1401.43  1419.38  1421.04
eigval :     1427.19  1429.18  1431.66  1435.69  1453.13  1461.67
eigval :     1462.13  1470.73  1474.67  1480.31  1480.80  1484.68
eigval :     1507.94  1536.42  1553.69  1560.48  1564.54  1574.94
eigval :     1575.27  1581.13  1583.79  1585.69  1588.33  1591.40
eigval :     1593.31  1596.24  1597.90  2248.34  3075.68  3076.05
eigval :     3078.66  3080.57  3080.88  3081.59  3082.29  3082.90
eigval :     3083.15  3083.79  3086.29  3088.68  3091.25  3091.75
eigval :     3091.83  3092.84  3094.28  3094.85  3095.25  3095.69
eigval :     3095.75  3097.78  3097.99  3099.59  3101.47  3104.05
eigval :     3104.15  3104.50  3146.22

   temp. (K)  partition function   enthalpy   heat capacity  entropy
                                   cal/mol     cal/K/mol   cal/K/mol   J/K/mol
 298.15  VIB  0.174E+20            24037.587    150.718    150.230
         ROT  0.121E+09              888.752      2.981     39.974
         INT  0.211E+28            24926.339    153.698    190.204
         TR   0.165E+29             1481.254      4.968     45.339
         TOT                       26407.5929   158.6666   235.5434   985.5134

       T/K    H(0)-H(T)+PV         H(T)/Eh          T*S/Eh         G(T)/Eh
   ------------------------------------------------------------------------
    298.15    0.420832E-01    0.648752E+00    0.111914E+00    0.536837E+00
   ------------------------------------------------------------------------

         :::::::::::::::::::::::::::::::::::::::::::::::::::::
         ::                  THERMODYNAMIC                  ::
         :::::::::::::::::::::::::::::::::::::::::::::::::::::
         :: total free energy        -129.478456847151 Eh   ::
         ::.................................................::
         :: total energy             -130.015294312013 Eh   ::
         :: zero point energy           0.606668536164 Eh   ::
         :: G(RRHO) w/o ZPVE           -0.069831071302 Eh   ::
         :: G(RRHO) contrib.            0.536837464862 Eh   ::
         :::::::::::::::::::::::::::::::::::::::::::::::::::::

           -------------------------------------------------
          | TOTAL ENERGY             -130.015294312013 Eh   |
          | TOTAL ENTHALPY           -129.366542597931 Eh   |
          | TOTAL FREE ENERGY        -129.478456847151 Eh   |
          | GRADIENT NORM               0.000099989108 Eh/α |
           -------------------------------------------------

 * finished run on 2025/09/08 at 14:57:07.576
