   * xtb version 6.7.1 (edcfbbe) compiled by 'albert@albert-system' on 2024-07-22

   ID    Z sym.   atoms
    1    7 N      1, 11, 17, 35, 45
    2    6 C      2-10, 12-16, 18-34, 36-44, 46-52
    3    1 H      53-81

          program call               : xtb data2507/gas/2PyCNICz/2PyCNICz_gas_S0_crest.xyz --gfn 2 --ohess vtight --parallel 40 --molden --ceasefiles --namespace data2507/gas/2PyCNICz/2PyCNICz_gas_S0_finalOpt
          :  Hamiltonian                  GFN2-xTB          :
 * total energy  :  -130.0854948 Eh     change       -0.1832973E-08 Eh
 * total energy  :  -130.0854966 Eh     change       -0.1823293E-05 Eh
 * total energy  :  -130.0855005 Eh     change       -0.3851840E-05 Eh
 * total energy  :  -130.0855035 Eh     change       -0.2998147E-05 Eh
 * total energy  :  -130.0855060 Eh     change       -0.2499213E-05 Eh
 * total energy  :  -130.0855094 Eh     change       -0.3442663E-05 Eh
 * total energy  :  -130.0855142 Eh     change       -0.4746319E-05 Eh
 * total energy  :  -130.0855183 Eh     change       -0.4106407E-05 Eh
 * total energy  :  -130.0855210 Eh     change       -0.2756345E-05 Eh
 * total energy  :  -130.0855230 Eh     change       -0.1983234E-05 Eh
 * total energy  :  -130.0855619 Eh     change       -0.1177359E-05 Eh
 * total energy  :  -130.0855630 Eh     change       -0.1089805E-05 Eh
 * total energy  :  -130.0855639 Eh     change       -0.9165041E-06 Eh
 * total energy  :  -130.0855646 Eh     change       -0.7317345E-06 Eh
 * total energy  :  -130.0855652 Eh     change       -0.6040123E-06 Eh
 * total energy  :  -130.0855658 Eh     change       -0.5510495E-06 Eh
 * total energy  :  -130.0855664 Eh     change       -0.5947357E-06 Eh
 * total energy  :  -130.0855671 Eh     change       -0.7029614E-06 Eh
 * total energy  :  -130.0855671 Eh     change       -0.4306287E-08 Eh
   *** GEOMETRY OPTIMIZATION CONVERGED AFTER 44 ITERATIONS ***

 final structure:
================
81
 xtb: 6.7.1 (edcfbbe)
N           -7.69155182624617        1.82896820496812       -0.44610599908908
C           -6.71790527104269        1.26988285487651       -0.20190572410723
C           -5.49182128788692        0.62893890003803        0.04638238416542
C           -4.55259686936221        1.15646745836488        0.95953369291546
C           -4.86075881905607        2.27715090075576        1.85321632757584
C           -6.11482666726108        2.42006506513817        2.44118376856638
C           -6.36512462650509        3.48437558346013        3.28719177158963
C           -5.37268169865021        4.41309361373027        3.55328091047437
C           -4.11815532477764        4.26758922079129        2.98276718210989
C           -3.85915698081507        3.20207632090994        2.14343050966144
N           -3.32861363560162        0.66023220253092        1.03534963310543
C           -3.00765290011640       -0.36896681090036        0.25708506777488
C           -1.64040549543933       -0.87374374808965        0.32454527975846
C           -1.28353593116622       -2.02710337448327       -0.37486765162641
C            0.01059031250519       -2.49985395347688       -0.32472521552778
C            0.97310647883298       -1.81595505455461        0.41626928217104
N            2.28608809676313       -2.29426419303725        0.48161166507092
C            2.62018700471477       -3.52282625973665        1.02935615991954
C            1.80136604880074       -4.58453683998999        1.38057416406667
C            2.39804949426395       -5.70256786119852        1.93294110435895
C            3.77335985756312       -5.76260596304443        2.14349075969499
C            4.58868357034593       -4.69640893254281        1.82067531023263
C            4.01157794426238       -3.56315215839718        1.26257149323648
C            4.53414701770888       -2.29390578846130        0.84347859027561
C            5.82155932012411       -1.76138939394573        0.89574750679804
C            6.04617267053664       -0.48300741455970        0.44043065201475
C            4.98449500632800        0.22081305310528       -0.12827149235140
C            3.66490584491202       -0.28848112809658       -0.21577908663323
C            2.89168934582747        0.70481073170621       -0.91398338364096
C            1.60244885762774        0.75688221126151       -1.43657360662155
C            1.19476439746786        1.89213578727654       -2.10749094459784
C            2.05552867175596        2.96956322080141       -2.29793672155017
C            3.35629155589474        2.92703416615809       -1.83826604472227
C            3.76545721672106        1.79490482219981       -1.14858527705840
N            5.01879070914458        1.48833223509179       -0.66802454208359
C            6.15023372845549        2.31228601160079       -0.77041312950464
C            7.31420267257668        1.83699133746689       -1.36669568749201
C            8.42314870230398        2.65688423626771       -1.46451510790856
C            8.37779558016644        3.95436037832134       -0.98202573838744
C            7.21723744261971        4.43121176949067       -0.39565723882853
C            6.10667952685285        3.61527079013168       -0.28391499858134
C            3.44011777495837       -1.54685254057005        0.35091994907507
C            0.61818590477375       -0.66620242153475        1.12275100860479
C           -0.67799523023069       -0.20217283575839        1.07947932614332
N           -3.84998699358015       -0.97571164098824       -0.57396099072011
C           -5.07926451590100       -0.50078963141695       -0.69299185789285
C           -5.95720191138920       -1.19387786216855       -1.64091607782677
C           -5.39939833909570       -1.72843753719334       -2.80143825913178
C           -6.19704508486904       -2.38039667364967       -3.72086265260984
C           -7.55566594877855       -2.51963668101961       -3.48566730620919
C           -8.11147808525400       -2.01240798492312       -2.32286617966520
C           -7.31979102302424       -1.35152164783172       -1.40208126859416
H           -6.88836977484507        1.68939447779396        2.25781799451589
H           -7.33919543242467        3.58753035182491        3.74127313228012
H           -5.57517541854443        5.24627018008562        4.20982747846251
H           -3.34073181305982        4.98674599867441        3.19458134927740
H           -2.88731141777139        3.07553552916506        1.69138441737994
H           -2.03648120662811       -2.53635749655106       -0.95572662836094
H            0.29501642034601       -3.38259308286517       -0.87778608177016
H            0.73207907679962       -4.54137592993455        1.23887716127171
H            1.78322806524126       -6.54604719606163        2.21025426159325
H            4.20254643481231       -6.65488557401729        2.57462927940681
H            5.65253656723892       -4.73695952360867        1.99959354585405
H            6.62883177123446       -2.34804194759288        1.30582294621870
H            7.02348520133369       -0.03176168375943        0.51171904798886
H            0.93097417776923       -0.08021776168142       -1.35101528432675
H            0.19251119518441        1.93850127708296       -2.50708130549625
H            1.70866745904908        3.84028135415072       -2.83432549800933
H            4.04156424382667        3.73939142666584       -2.02819642870368
H            7.33742471642451        0.83243677076290       -1.76202172332219
H            9.32423240537816        2.28339551119583       -1.92803875589978
H            9.24439586279109        4.59278381490178       -1.06415271254594
H            7.17835667519385        5.44175750101234       -0.01668673467091
H            5.20493377926657        3.97612575060183        0.18817000762571
H            1.37033128600066       -0.14765821013644        1.69801737309249
H           -0.96825034764587        0.68063738456044        1.62632590223382
H           -4.33985347398883       -1.61106817164757       -2.97045558127922
H           -5.76009604305587       -2.78156855245561       -4.62342116120487
H           -8.17990904021198       -3.02829959468679       -4.20525433223396
H           -9.16711689941996       -2.13186251442738       -2.13054087470013
H           -7.75918524116379       -0.97887636162797       -0.48897636447704

          :  Hamiltonian                  GFN2-xTB          :
         :: gradient norm              0.000096117557 Eh/a0 ::
         :: HOMO-LUMO gap              1.619373648846 eV    ::
         :: SCC energy              -132.548521545960 Eh    ::
         :: -> dispersion             -0.118159281856 Eh    ::
         :: repulsion energy           2.462954483778 Eh    ::

    * Orbital Energies and Occupations

         #    Occupation            Energy/Eh            Energy/eV
      -------------------------------------------------------------
         1        2.0000           -0.6882074             -18.7271
       ...           ...                  ...                  ...
       109        2.0000           -0.4144064             -11.2766
       110        2.0000           -0.4141845             -11.2705
       111        2.0000           -0.4128709             -11.2348
       112        2.0000           -0.4109044             -11.1813
       113        2.0000           -0.4105059             -11.1704
       114        2.0000           -0.4098203             -11.1518
       115        2.0000           -0.4049185             -11.0184
       116        2.0000           -0.4009268             -10.9098
       117        2.0000           -0.3917200             -10.6592
       118        2.0000           -0.3837417             -10.4421
       119        2.0000           -0.3713148             -10.1040
       120        2.0000           -0.3605909              -9.8122
       121        2.0000           -0.3556973              -9.6790 (HOMO)
       122                         -0.2961865              -8.0596 (LUMO)
       123                         -0.2846769              -7.7465
       124                         -0.2504027              -6.8138
       125                         -0.2471399              -6.7250
       126                         -0.2363719              -6.4320
       127                         -0.2345416              -6.3822
       128                         -0.2344124              -6.3787
       129                         -0.2328446              -6.3360
       130                         -0.2328194              -6.3353
       131                         -0.2321104              -6.3160
       132                         -0.2185107              -5.9460
       ...                                ...                  ...
       237                          1.1678417              31.7786
      -------------------------------------------------------------
                  HL-Gap            0.0595109 Eh            1.6194 eV

     #   Z          covCN         q      C6AA      α(0)
     1   7 N        0.911    -0.250    26.510     7.447
     2   6 C        1.905     0.111    28.366     8.601
     3   6 C        2.963    -0.025    28.631     8.777
     4   6 C        2.970     0.119    25.375     8.263
     5   6 C        2.982     0.005    27.908     8.666
     6   6 C        2.922    -0.025    28.629     8.774
     7   6 C        2.919    -0.025    28.629     8.774
     8   6 C        2.920    -0.024    28.594     8.769
     9   6 C        2.918    -0.026    28.658     8.779
    10   6 C        2.926    -0.022    28.562     8.764
    11   7 N        1.850    -0.266    27.773     7.811
    12   6 C        2.942     0.187    24.014     8.037
    13   6 C        2.985    -0.001    28.056     8.689
    14   6 C        2.923    -0.025    28.634     8.775
    15   6 C        2.920    -0.041    29.023     8.834
    16   6 C        2.916     0.074    26.344     8.417
    17   7 N        2.803    -0.043    22.064     6.976
    18   6 C        3.076     0.045    26.919     8.507
    19   6 C        2.910    -0.051    29.261     8.870
    20   6 C        2.925    -0.035    28.865     8.811
    21   6 C        2.920    -0.040    28.999     8.831
    22   6 C        2.913    -0.034    28.856     8.809
    23   6 C        3.067    -0.015    28.313     8.725
    24   6 C        3.069    -0.028    28.618     8.772
    25   6 C        2.916    -0.036    28.895     8.815
    26   6 C        2.912    -0.061    29.524     8.910
    27   6 C        3.078     0.044    26.938     8.509
    28   6 C        3.053    -0.038    28.884     8.814
    29   6 C        3.061    -0.017    28.371     8.735
    30   6 C        2.914    -0.038    28.950     8.823
    31   6 C        2.919    -0.041    29.019     8.834
    32   6 C        2.923    -0.034    28.846     8.808
    33   6 C        2.910    -0.052    29.282     8.873
    34   6 C        3.080     0.045    26.896     8.502
    35   7 N        2.803    -0.042    22.055     6.975
    36   6 C        2.914     0.065    26.537     8.447
    37   6 C        2.922    -0.041    29.026     8.835
    38   6 C        2.920    -0.028    28.694     8.784
    39   6 C        2.919    -0.033    28.812     8.802
    40   6 C        2.920    -0.028    28.696     8.785
    41   6 C        2.923    -0.041    29.028     8.835
    42   6 C        3.060     0.043    26.975     8.517
    43   6 C        2.920    -0.036    28.902     8.816
    44   6 C        2.923    -0.023    28.578     8.767
    45   7 N        1.851    -0.267    27.792     7.813
    46   6 C        2.969     0.119    25.382     8.264
    47   6 C        2.982     0.005    27.911     8.666
    48   6 C        2.926    -0.023    28.570     8.766
    49   6 C        2.918    -0.026    28.660     8.779
    50   6 C        2.920    -0.024    28.594     8.769
    51   6 C        2.919    -0.025    28.629     8.774
    52   6 C        2.922    -0.025    28.633     8.775
    53   1 H        0.926     0.038     2.482     2.464
    54   1 H        0.926     0.040     2.444     2.445
    55   1 H        0.926     0.038     2.469     2.457
    56   1 H        0.926     0.038     2.472     2.459
    57   1 H        0.926     0.049     2.335     2.390
    58   1 H        0.926     0.061     2.183     2.311
    59   1 H        0.926     0.047     2.353     2.399
    60   1 H        0.926     0.027     2.631     2.536
    61   1 H        0.926     0.029     2.607     2.525
    62   1 H        0.926     0.028     2.619     2.531
    63   1 H        0.926     0.030     2.587     2.515
    64   1 H        0.926     0.033     2.545     2.495
    65   1 H        0.926     0.028     2.609     2.526
    66   1 H        0.926     0.026     2.638     2.540
    67   1 H        0.926     0.025     2.665     2.553
    68   1 H        0.926     0.028     2.611     2.527
    69   1 H        0.926     0.027     2.631     2.536
    70   1 H        0.926     0.042     2.424     2.435
    71   1 H        0.926     0.037     2.490     2.468
    72   1 H        0.926     0.036     2.505     2.475
    73   1 H        0.926     0.037     2.493     2.469
    74   1 H        0.926     0.041     2.439     2.442
    75   1 H        0.926     0.045     2.379     2.412
    76   1 H        0.926     0.061     2.188     2.313
    77   1 H        0.926     0.049     2.331     2.387
    78   1 H        0.926     0.038     2.471     2.458
    79   1 H        0.926     0.038     2.469     2.457
    80   1 H        0.926     0.040     2.444     2.445
    81   1 H        0.926     0.038     2.478     2.462

molecular dipole:
                 x           y           z       tot (Debye)
 q only:        1.160       0.064       0.088
   full:        1.151       0.086       0.136       2.954

 projected vibrational frequencies (cm⁻¹)
eigval :       -0.00    -0.00     0.00     0.00     0.00     0.00
eigval :        5.83    10.45    15.85    24.60    30.01    35.85
eigval :       40.42    41.98    42.41    57.70    62.86    65.90
eigval :       73.04    81.10    90.08    94.87   109.03   125.52
eigval :      127.13   134.24   151.28   161.98   167.33   197.45
eigval :      211.93   222.29   224.78   230.22   231.54   235.69
eigval :      245.88   264.69   271.96   298.59   309.08   321.19
eigval :      338.71   354.90   372.28   372.56   374.91   375.78
eigval :      380.58   385.46   395.19   408.45   415.61   426.61
eigval :      438.29   448.03   454.54   472.28   478.72   489.66
eigval :      502.06   517.77   527.00   535.85   553.89   559.85
eigval :      577.19   583.23   583.85   586.97   590.38   596.22
eigval :      599.15   610.60   614.12   615.63   622.85   633.45
eigval :      638.98   648.21   667.21   671.03   675.85   676.48
eigval :      680.86   687.55   698.75   701.43   706.63   726.55
eigval :      748.98   759.72   767.16   770.61   772.76   773.70
eigval :      776.03   820.10   826.70   832.87   842.39   867.01
eigval :      870.22   873.81   874.48   875.70   877.22   881.50
eigval :      882.42   895.60   901.18   904.17   905.87   906.33
eigval :      908.67   916.19   919.96   921.73   923.41   928.37
eigval :      928.75   932.98   933.07   933.21   933.31   933.59
eigval :      934.83   971.48   986.46   988.86  1007.81  1014.63
eigval :     1066.39  1072.31  1073.41  1079.73  1082.15  1084.10
eigval :     1086.73  1103.32  1117.85  1120.53  1120.68  1123.44
eigval :     1140.68  1146.04  1153.13  1171.37  1177.72  1178.19
eigval :     1180.62  1181.07  1181.25  1181.66  1184.00  1190.65
eigval :     1197.97  1199.43  1208.31  1226.80  1241.96  1246.90
eigval :     1252.07  1254.12  1263.41  1274.56  1278.21  1279.50
eigval :     1288.98  1309.80  1313.21  1317.81  1322.62  1323.32
eigval :     1325.59  1346.46  1360.17  1363.85  1364.56  1376.30
eigval :     1386.49  1388.99  1397.40  1406.95  1412.67  1429.77
eigval :     1430.78  1431.27  1434.31  1436.06  1465.84  1474.55
eigval :     1476.55  1479.24  1482.79  1485.12  1486.87  1493.11
eigval :     1507.46  1561.31  1569.94  1576.20  1581.77  1581.98
eigval :     1582.90  1588.63  1590.53  1595.62  1595.82  1595.99
eigval :     1598.22  1607.06  1609.92  2344.49  3076.53  3077.05
eigval :     3078.48  3078.51  3079.25  3081.34  3081.97  3083.49
eigval :     3083.88  3083.99  3088.66  3089.90  3090.01  3090.46
eigval :     3090.54  3091.19  3092.59  3093.82  3094.31  3096.09
eigval :     3097.46  3097.82  3099.47  3100.14  3100.48  3102.00
eigval :     3108.25  3112.31  3133.88

   temp. (K)  partition function   enthalpy   heat capacity  entropy
                                   cal/mol     cal/K/mol   cal/K/mol   J/K/mol
 298.15  VIB  0.993E+19            23758.608    149.080    148.972
         ROT  0.121E+09              888.752      2.981     39.959
         INT  0.120E+28            24647.361    152.061    188.932
         TR   0.165E+29             1481.254      4.968     45.339
         TOT                       26128.6148   157.0288   234.2710   980.1898

       T/K    H(0)-H(T)+PV         H(T)/Eh          T*S/Eh         G(T)/Eh
   ------------------------------------------------------------------------
    298.15    0.416386E-01    0.652425E+00    0.111310E+00    0.541115E+00
   ------------------------------------------------------------------------

         :::::::::::::::::::::::::::::::::::::::::::::::::::::
         ::                  THERMODYNAMIC                  ::
         :::::::::::::::::::::::::::::::::::::::::::::::::::::
         :: total free energy        -129.544452102590 Eh   ::
         ::.................................................::
         :: total energy             -130.085567062183 Eh   ::
         :: zero point energy           0.610786070215 Eh   ::
         :: G(RRHO) w/o ZPVE           -0.069671110623 Eh   ::
         :: G(RRHO) contrib.            0.541114959592 Eh   ::
         :::::::::::::::::::::::::::::::::::::::::::::::::::::

           -------------------------------------------------
          | TOTAL ENERGY             -130.085567062183 Eh   |
          | TOTAL ENTHALPY           -129.433142393923 Eh   |
          | TOTAL FREE ENERGY        -129.544452102590 Eh   |
          | GRADIENT NORM               0.000096074562 Eh/α |
          | HOMO-LUMO GAP               1.619373354366 eV   |
           -------------------------------------------------

 * finished run on 2025/09/08 at 14:56:55.192
