   * xtb version 6.7.1 (edcfbbe) compiled by 'albert@albert-system' on 2024-07-22

   ID    Z sym.   atoms
    1    7 N      1, 11, 17, 35, 45
    2    6 C      2-10, 12-16, 18-34, 36-44, 46-52
    3    1 H      53-81

          program call               : xtb data2507/gas/2PyCNICz/2PyCNICz_gas_T1_crest.xyz --gfn 2 --spinpol --tblite --uhf 2 --ohess vtight --parallel 40 --molden --ceasefiles --namespace data2507/gas/2PyCNICz/2PyCNICz_gas_T1_finalOpt
 * total energy  :  -130.0154373 Eh     change        0.4564504E-07 Eh
 * total energy  :  -130.0154626 Eh     change       -0.2521840E-04 Eh
 * total energy  :  -130.0154766 Eh     change       -0.1403515E-04 Eh
 * total energy  :  -130.0154778 Eh     change       -0.1199049E-05 Eh
 * total energy  :  -130.0154792 Eh     change       -0.1443974E-05 Eh
 * total energy  :  -130.0154810 Eh     change       -0.1808316E-05 Eh
 * total energy  :  -130.0154837 Eh     change       -0.2686027E-05 Eh
 * total energy  :  -130.0154865 Eh     change       -0.2774055E-05 Eh
 * total energy  :  -130.0154898 Eh     change       -0.3335747E-05 Eh
 * total energy  :  -130.0154928 Eh     change       -0.3004239E-05 Eh
 * total energy  :  -130.0155115 Eh     change       -0.3273333E-06 Eh
 * total energy  :  -130.0155117 Eh     change       -0.2432480E-06 Eh
 * total energy  :  -130.0155119 Eh     change       -0.1889096E-06 Eh
 * total energy  :  -130.0155120 Eh     change       -0.1143768E-06 Eh
 * total energy  :  -130.0155123 Eh     change       -0.2131630E-06 Eh
 * total energy  :  -130.0155124 Eh     change       -0.1856273E-06 Eh
 * total energy  :  -130.0155127 Eh     change       -0.2413887E-06 Eh
 * total energy  :  -130.0155129 Eh     change       -0.2379961E-06 Eh
 * total energy  :  -130.0155129 Eh     change       -0.2021315E-07 Eh
   *** GEOMETRY OPTIMIZATION CONVERGED AFTER 44 ITERATIONS ***

 final structure:
================
81
 xtb: 6.7.1 (edcfbbe)
N           -7.74982855040068        1.91470284066461       -0.49438171111456
C           -6.75354219083459        1.37928514044141       -0.24737143086485
C           -5.54816367136536        0.75591758243544        0.01800486196332
C           -4.51566956185171        1.34921966672550        0.82659370248771
C           -4.75384891762876        2.56548794685983        1.60924045241433
C           -3.69880632323099        3.46124175043353        1.79185675562460
C           -3.88460019927624        4.61561633409234        2.52513872464890
C           -5.11895658280392        4.88853899749263        3.09354509525134
C           -6.16418674479815        3.99438117548109        2.93154355086544
C           -5.98787817455516        2.83836807124205        2.19436077436316
N           -3.33089731105310        0.82855157250102        0.88473595505207
C           -2.97997824744189       -0.29566970615946        0.22495913870554
C           -1.66299475205081       -0.81365029253336        0.30550229191408
C           -1.30258754375343       -1.97917446414411       -0.40006408780138
C           -0.02089356697800       -2.46643642776392       -0.34103392952751
C            0.94606816716868       -1.80614949389108        0.42183208604423
N            2.25437165466141       -2.31135066798116        0.50498919891836
C            2.55584603214766       -3.55144656396180        1.04233187293826
C            1.70378160457939       -4.57953833556757        1.41195493330567
C            2.27134529311303       -5.72617301654511        1.94056492206143
C            3.64757008714554       -5.84306425431204        2.10865103521094
C            4.49860713707378       -4.80812991830418        1.76484117313034
C            3.95165760141977       -3.65085080144726        1.22968817679631
C            4.50850425136508       -2.39994525816292        0.79668985403255
C            5.81411321851541       -1.92203898064210        0.79483603115514
C            6.06800656855918       -0.64073879633180        0.35166739992505
C            5.00649559443365        0.12310561773714       -0.13323783827711
C            3.67415021597921       -0.34988354872285       -0.21931385332001
C            2.92959797618291        0.66111645060244       -0.91893789955224
C            1.63087222999172        0.76107415223573       -1.41260525917994
C            1.24594251080212        1.92098276554883       -2.05202169407269
C            2.12807658391294        2.98852283451102       -2.21564254658849
C            3.43498913275033        2.90041005928663       -1.78471791468717
C            3.83687193288562        1.72342139915669       -1.16610951734008
N            5.07844251091092        1.38561162414730       -0.68326003280974
C            6.23297509874422        2.18038806521787       -0.75481255025468
C            6.63693333476022        2.71923723559163       -1.97244445684325
C            7.77166860633958        3.50683711377289       -2.03439129735378
C            8.51371933302484        3.75434698702627       -0.89134247899965
C            8.11549971302461        3.21346791186545        0.32001370356766
C            6.97730392639761        2.43212251700941        0.39387255211755
C            3.41901120981588       -1.61131037956545        0.33534579850487
C            0.59846115927219       -0.65801307400954        1.14175970565950
C           -0.68084211610599       -0.16828261494468        1.08372194607339
N           -3.93453970097730       -0.91685403692923       -0.50079166605239
C           -5.14820451868709       -0.47691538855065       -0.60770278809872
C           -6.08584425596312       -1.27291308451515       -1.40520082225253
C           -5.59963632687642       -1.98477366829725       -2.50290473697003
C           -6.45397641632130       -2.75108782132032       -3.26958983548308
C           -7.80015323212492       -2.82608084127661       -2.94801460794828
C           -8.28496741202405       -2.13649320460994       -1.84906684983880
C           -7.43693354914285       -1.36245076071443       -1.07931438586744
H           -2.74236485801481        3.24227599671618        1.34097957099142
H           -3.06445276491513        5.30694599925233        2.65337045563325
H           -5.26447574373100        5.79386584294444        3.66401601517008
H           -7.12455019860065        4.19701898036232        3.38146938549841
H           -6.80563248408486        2.14239165601870        2.08980760914530
H           -2.05607373098037       -2.47490738711308       -0.99278551133848
H            0.25945645405648       -3.34640573763239       -0.90174475968312
H            0.63436986023676       -4.48848189523648        1.30010189633110
H            1.63120932942336       -6.54543451783945        2.23178745933680
H            4.05367873208428       -6.75401260270573        2.52224508318792
H            5.56457717207277       -4.89542242767031        1.91088902264124
H            6.61828159364377       -2.54925414379411        1.14635467512884
H            7.07111677489300       -0.24362228896492        0.34805616548474
H            0.93369184466291       -0.05260199282125       -1.31488795479659
H            0.23870725387091        2.00570148032037       -2.43112159467008
H            1.78682152762598        3.89098492164110       -2.70020133521482
H            4.12518431679587        3.71902335606628       -1.92178043377956
H            6.06732564081926        2.50498912917790       -2.86432311077881
H            8.08194497309029        3.92255185551182       -2.98138929867890
H            9.40070565504313        4.36708290243094       -0.94449346565370
H            8.68951050682999        3.40689781088198        1.21390407670584
H            6.65123488372813        2.02420373713776        1.33910745979312
H            1.35098854926148       -0.16636591116334        1.74074534149277
H           -0.96153701183259        0.71415873873074        1.63756149809217
H           -4.55038117010885       -1.91607810552695       -2.74808706657677
H           -6.07012699891987       -3.29164885095579       -4.12248278000829
H           -8.46852177496091       -3.42318961882895       -3.55046123897058
H           -9.33072368261955       -2.20033276173164       -1.58806883911442
H           -7.82384709229848       -0.84332481638209       -0.21620710089976

 projected vibrational frequencies (cm⁻¹)
eigval :       -0.00    -0.00     0.00     0.00     0.00     0.00
eigval :        7.59    10.28    16.22    23.33    25.98    30.96
eigval :       36.08    39.97    40.80    57.21    62.47    66.49
eigval :       72.87    80.50    92.64    97.87   111.13   126.12
eigval :      130.06   139.40   149.59   158.97   162.16   190.98
eigval :      214.33   217.76   225.42   230.39   232.75   237.97
eigval :      249.25   262.50   279.54   295.52   306.08   322.46
eigval :      330.77   356.22   372.06   373.15   374.36   380.25
eigval :      380.78   383.76   391.28   401.29   417.57   422.18
eigval :      427.21   441.84   450.18   465.42   469.82   474.93
eigval :      480.70   496.88   517.08   535.58   551.20   554.94
eigval :      560.62   568.40   574.13   583.63   584.08   586.78
eigval :      590.55   593.16   597.05   603.41   608.88   613.44
eigval :      626.03   644.56   646.74   663.76   667.13   670.24
eigval :      671.55   674.72   680.66   688.07   700.76   706.22
eigval :      710.61   753.00   757.28   757.81   767.87   772.74
eigval :      774.79   803.71   816.37   823.78   827.39   840.24
eigval :      847.81   866.84   869.14   869.75   870.40   877.67
eigval :      881.97   893.01   898.82   899.86   900.42   903.35
eigval :      905.23   909.59   912.24   914.38   915.60   921.59
eigval :      922.81   925.05   926.00   926.25   929.28   929.48
eigval :      933.18   934.31   958.60   985.10   987.15  1000.54
eigval :     1007.76  1041.55  1069.82  1071.37  1078.78  1082.35
eigval :     1083.51  1084.52  1097.87  1105.03  1118.13  1121.37
eigval :     1124.64  1126.14  1138.49  1144.82  1146.48  1165.00
eigval :     1174.75  1179.06  1179.88  1180.08  1180.37  1181.09
eigval :     1189.35  1196.45  1197.37  1205.43  1221.97  1235.79
eigval :     1251.54  1255.70  1259.51  1273.11  1275.93  1278.69
eigval :     1279.16  1282.56  1300.76  1304.17  1315.25  1317.50
eigval :     1323.81  1324.72  1327.24  1342.36  1352.98  1356.76
eigval :     1362.06  1388.14  1397.30  1400.75  1419.85  1421.39
eigval :     1426.53  1428.36  1430.93  1435.10  1452.70  1460.61
eigval :     1461.65  1470.29  1474.98  1479.59  1481.05  1483.77
eigval :     1507.39  1537.02  1554.17  1560.32  1563.94  1574.86
eigval :     1575.16  1580.83  1583.50  1585.51  1588.08  1591.44
eigval :     1593.24  1596.12  1597.67  2248.42  3074.86  3075.28
eigval :     3078.70  3080.21  3080.66  3080.95  3081.39  3082.17
eigval :     3082.37  3083.35  3086.20  3088.30  3090.33  3090.76
eigval :     3091.19  3092.40  3094.09  3094.21  3094.73  3094.97
eigval :     3095.28  3097.00  3097.25  3099.44  3101.28  3103.10
eigval :     3103.36  3104.12  3142.11

   temp. (K)  partition function   enthalpy   heat capacity  entropy
                                   cal/mol     cal/K/mol   cal/K/mol   J/K/mol
 298.15  VIB  0.144E+20            24017.125    150.711    149.929
         ROT  0.121E+09              888.752      2.981     39.968
         INT  0.175E+28            24905.877    153.692    189.896
         TR   0.165E+29             1481.254      4.968     45.339
         TOT                       26387.1313   158.6604   235.2357   984.2264

       T/K    H(0)-H(T)+PV         H(T)/Eh          T*S/Eh         G(T)/Eh
   ------------------------------------------------------------------------
    298.15    0.420506E-01    0.648732E+00    0.111768E+00    0.536964E+00
   ------------------------------------------------------------------------

         :::::::::::::::::::::::::::::::::::::::::::::::::::::
         ::                  THERMODYNAMIC                  ::
         :::::::::::::::::::::::::::::::::::::::::::::::::::::
         :: total free energy        -129.478548681117 Eh   ::
         ::.................................................::
         :: total energy             -130.015512940291 Eh   ::
         :: zero point energy           0.606681784145 Eh   ::
         :: G(RRHO) w/o ZPVE           -0.069717524971 Eh   ::
         :: G(RRHO) contrib.            0.536964259174 Eh   ::
         :::::::::::::::::::::::::::::::::::::::::::::::::::::

           -------------------------------------------------
          | TOTAL ENERGY             -130.015512940291 Eh   |
          | TOTAL ENTHALPY           -129.366780585835 Eh   |
          | TOTAL FREE ENERGY        -129.478548681117 Eh   |
          | GRADIENT NORM               0.000056956504 Eh/α |
           -------------------------------------------------

 * finished run on 2025/09/08 at 15:05:35.950
