   * xtb version 6.7.1 (edcfbbe) compiled by 'albert@albert-system' on 2024-07-22

   ID    Z sym.   atoms
    1    6 C      1-9, 11-16, 20-31
    2    7 N      10
    3    8 O      17, 19
    4   16 S      18
    5    1 H      32-56

          program call               : xtb data2507/gas/DMAC-DPS/DMAC-DPS_gas_S0_crest.xyz --gfn 2 --ohess vtight --parallel 40 --molden --ceasefiles --namespace data2507/gas/DMAC-DPS/DMAC-DPS_gas_S0_finalOpt
          :  Hamiltonian                  GFN2-xTB          :
 * total energy  :   -84.7382274 Eh     change       -0.1463945E-08 Eh
 * total energy  :   -84.7382283 Eh     change       -0.9723613E-06 Eh
 * total energy  :   -84.7382291 Eh     change       -0.8078237E-06 Eh
 * total energy  :   -84.7382303 Eh     change       -0.1129151E-05 Eh
 * total energy  :   -84.7382310 Eh     change       -0.7226544E-06 Eh
 * total energy  :   -84.7382315 Eh     change       -0.4600492E-06 Eh
 * total energy  :   -84.7382318 Eh     change       -0.3068329E-06 Eh
 * total energy  :   -84.7382320 Eh     change       -0.2801522E-06 Eh
 * total energy  :   -84.7382323 Eh     change       -0.2931193E-06 Eh
 * total energy  :   -84.7382326 Eh     change       -0.2818153E-06 Eh
 * total energy  :   -84.7382329 Eh     change       -0.2505169E-06 Eh
 * total energy  :   -84.7382331 Eh     change       -0.2517747E-06 Eh
 * total energy  :   -84.7382333 Eh     change       -0.2250509E-06 Eh
 * total energy  :   -84.7382335 Eh     change       -0.1263957E-06 Eh
 * total energy  :   -84.7382335 Eh     change       -0.7474233E-07 Eh
   *** GEOMETRY OPTIMIZATION CONVERGED AFTER 15 ITERATIONS ***

 final structure:
================
56
 xtb: 6.7.1 (edcfbbe)
C            0.83706865340907        2.94664001177534       -1.32473810564384
C            0.29722577887242        0.51131835378324        0.12984146350028
C           -1.69711601995607        1.36309186411594        2.25271220287773
C            1.27107931864647       -0.41279724246162        0.78252903565557
C            2.78171044977065        0.63532084251180       -0.33443500964818
C            3.94741008478185       -0.36396506669765       -0.44442931626092
C            3.37723341632358       -2.19509134187833        0.61659353209794
C            2.00715912610220       -2.68607283965333        0.93925950743160
C            0.97601947640833       -1.83328035798616        0.95638183734183
N           -0.35939534725413       -2.20685217130873        0.84592312654554
C           -1.19801213976314       -1.51389583825943       -0.02390257551837
C           -2.13082417554202       -2.14482227521073       -0.74409897516686
C           -3.26248931359464       -1.42911186776297       -1.38404017558963
C           -4.03023171126708        0.54320453264888       -0.81732844272455
C           -2.90242342240134        1.27015083624392       -0.05945399967585
C           -1.12107482837045       -0.01242139979974        0.01236403595331
O            2.00093342331556        3.64020467398645       -1.10067171377052
S            0.19936143628813        2.35094296055025        0.35595259324126
O            1.30414316921569        2.81512752231574        1.21588189924625
C            1.43369800593700       -0.00272186681326       -0.71154309791560
C            2.59369188784428        0.22687689685396        1.14481754537718
C            3.76336106507708       -0.76009253647848        1.02796200002222
C            3.56964477210318       -1.78959383724176       -0.89864483682407
C            2.39878580887718       -1.88162043811846       -1.82494934958642
C            1.39128703489034       -1.01330032325729       -1.76890830246326
C           -2.18833102437283        0.50586064611599        1.08547497633857
C           -3.00810249087437       -0.60620068731872        1.67597265737866
C           -4.02483962007842       -1.18795650264020        1.05781803195376
C           -4.33811581205730       -0.89255446903906       -0.35884065103393
C           -3.00534332401797        0.01619183968044       -1.83728358548604
C           -1.88826431660104        0.75039077630974       -1.08756994462970
H            2.12834760568840        3.64453180588499       -0.12021078395558
H            0.04495186679277        3.60007374340212       -1.71125298062550
H            0.99196244451346        2.09641760944340       -1.99431507634873
H           -1.62705487505722        2.41662677563047        2.00065061054181
H           -2.39884870481138        1.27913910676279        3.08155475617291
H           -0.72448513430412        1.02332232802970        2.60209162104209
H            3.00464067709660        1.64099445346953       -0.67272394306841
H            4.87621064808523        0.03839138883595       -0.83908953107082
H            4.12799380381508       -2.92528377314080        0.92202606219283
H            1.85036615036751       -3.75261638341225        0.99690503528945
H           -0.50304161845062       -3.20931826380382        0.83078139915449
H           -2.18737162859888       -3.22422590162969       -0.71769430006842
H           -3.71837869233970       -2.04309332734769       -2.16094463501934
H           -4.88362228689914        1.15576870435196       -1.09485751732933
H           -3.06102240944082        2.33083538765922        0.11635809208762
H            2.60469751987082        0.92546731168639        1.97524757718792
H            4.55011002456665       -0.66096423085393        1.77016962580765
H            4.41987036936149       -2.31760689330454       -1.33393019812793
H            2.42194657490119       -2.65525231215166       -2.57860464001023
H            0.54171995963871       -1.05982118207417       -2.43492226397088
H           -2.75346777955444       -0.89151519230440        2.68637877162977
H           -4.60515313599017       -1.95404907634637        1.55103337664542
H           -5.34537785480522       -1.21397678229819       -0.62265041845282
H           -3.07230128745397        0.21185205661711       -2.90435232213758
H           -1.28158439090453        1.41714762392775       -1.69463442589048

          :  Hamiltonian                  GFN2-xTB          :
         :: gradient norm              0.000034366827 Eh/a0 ::
         :: HOMO-LUMO gap              3.035096442391 eV    ::
         :: SCC energy               -85.881724220263 Eh    ::
         :: -> dispersion             -0.087828102680 Eh    ::
         :: repulsion energy           1.143490669450 Eh    ::

    * Orbital Energies and Occupations

         #    Occupation            Energy/Eh            Energy/eV
      -------------------------------------------------------------
         1        2.0000           -0.7580227             -20.6268
       ...           ...                  ...                  ...
        66        2.0000           -0.4235126             -11.5244
        67        2.0000           -0.4189140             -11.3992
        68        2.0000           -0.4127787             -11.2323
        69        2.0000           -0.4073533             -11.0846
        70        2.0000           -0.4055384             -11.0353
        71        2.0000           -0.4029844             -10.9658
        72        2.0000           -0.3973167             -10.8115
        73        2.0000           -0.3956807             -10.7670
        74        2.0000           -0.3917288             -10.6595
        75        2.0000           -0.3880039             -10.5581
        76        2.0000           -0.3850452             -10.4776
        77        2.0000           -0.3675177             -10.0007
        78        2.0000           -0.3437921              -9.3551 (HOMO)
        79                         -0.2322543              -6.3200 (LUMO)
        80                         -0.2126193              -5.7857
        81                         -0.2040743              -5.5531
        82                         -0.1997975              -5.4368
        83                         -0.1896783              -5.1614
        84                         -0.1827034              -4.9716
        85                         -0.1188405              -3.2338
        86                         -0.0941839              -2.5629
        87                         -0.0423272              -1.1518
        88                         -0.0312714              -0.8509
        89                         -0.0229394              -0.6242
       ...                                ...                  ...
       154                          0.8790400              23.9199
      -------------------------------------------------------------
                  HL-Gap            0.1115378 Eh            3.0351 eV

     #   Z          covCN         q      C6AA      α(0)
     1   6 C        3.659     0.061    19.826     6.390
     2   6 C        3.907    -0.015    20.790     6.481
     3   6 C        3.772    -0.119    22.815     6.806
     4   6 C        4.140     0.016    20.218     6.386
     5   6 C        4.219    -0.021    20.860     6.487
     6   6 C        4.181    -0.023    20.897     6.492
     7   6 C        4.004    -0.013    20.734     6.469
     8   6 C        2.908    -0.087    30.184     9.009
     9   6 C        2.897     0.060    26.660     8.466
    10   7 N        2.698    -0.175    24.784     7.394
    11   6 C        2.895     0.062    26.604     8.457
    12   6 C        2.900    -0.089    30.225     9.014
    13   6 C        4.005    -0.014    20.739     6.470
    14   6 C        4.182    -0.022    20.880     6.490
    15   6 C        4.163    -0.032    21.062     6.518
    16   6 C        4.095     0.007    20.385     6.413
    17   8 O        1.667    -0.439    21.611     6.276
    18  16 S        2.872     0.363   127.128    18.977
    19   8 O        0.859    -0.488    23.513     6.501
    20   6 C        4.077     0.001    20.487     6.429
    21   6 C        4.173    -0.016    20.782     6.475
    22   6 C        4.162    -0.026    20.957     6.502
    23   6 C        4.001    -0.021    20.869     6.490
    24   6 C        2.904    -0.037    28.919     8.818
    25   6 C        2.893    -0.044    29.087     8.842
    26   6 C        4.030     0.014    20.268     6.395
    27   6 C        2.905    -0.038    28.953     8.823
    28   6 C        2.891    -0.038    28.934     8.819
    29   6 C        4.011    -0.020    20.857     6.488
    30   6 C        4.174    -0.023    20.900     6.493
    31   6 C        4.168    -0.031    21.044     6.515
    32   1 H        0.802     0.333     0.629     1.246
    33   1 H        0.924     0.034     2.537     2.491
    34   1 H        0.924     0.044     2.395     2.420
    35   1 H        0.925     0.045     2.378     2.411
    36   1 H        0.925     0.053     2.280     2.361
    37   1 H        0.925     0.053     2.277     2.360
    38   1 H        0.925     0.050     2.320     2.382
    39   1 H        0.925     0.028     2.620     2.531
    40   1 H        0.924     0.031     2.579     2.511
    41   1 H        0.926     0.018     2.765     2.600
    42   1 H        0.860     0.158     1.348     1.819
    43   1 H        0.926     0.017     2.783     2.609
    44   1 H        0.925     0.032     2.559     2.501
    45   1 H        0.925     0.028     2.620     2.531
    46   1 H        0.925     0.028     2.619     2.531
    47   1 H        0.925     0.048     2.344     2.394
    48   1 H        0.925     0.027     2.623     2.533
    49   1 H        0.924     0.031     2.568     2.506
    50   1 H        0.926     0.027     2.626     2.534
    51   1 H        0.926     0.027     2.635     2.538
    52   1 H        0.926     0.034     2.524     2.484
    53   1 H        0.926     0.030     2.591     2.517
    54   1 H        0.925     0.033     2.549     2.497
    55   1 H        0.925     0.025     2.657     2.549
    56   1 H        0.925     0.015     2.809     2.621

molecular dipole:
                 x           y           z       tot (Debye)
 q only:       -0.996      -0.890      -0.115
   full:       -0.822      -1.274      -0.384       3.975

 projected vibrational frequencies (cm⁻¹)
eigval :       -0.00    -0.00    -0.00    -0.00     0.00     0.00
eigval :       35.81    67.71    73.95    99.31   108.34   126.78
eigval :      131.66   164.31   172.71   188.93   207.23   211.75
eigval :      228.69   252.05   265.01   307.86   313.46   321.84
eigval :      344.29   358.46   373.39   381.40   400.26   421.66
eigval :      433.44   455.57   457.32   475.00   492.50   501.47
eigval :      512.73   515.02   522.09   541.78   570.29   585.27
eigval :      603.42   618.42   621.34   644.88   646.85   669.96
eigval :      694.31   701.92   729.73   740.87   747.28   753.50
eigval :      762.60   767.85   783.01   794.03   807.72   809.10
eigval :      816.98   835.95   840.00   856.77   870.22   878.51
eigval :      891.08   897.75   909.11   917.39   922.84   924.54
eigval :      935.34   951.96   958.48   968.26   970.38   976.46
eigval :      978.76   984.75  1017.47  1040.65  1054.19  1057.40
eigval :     1073.03  1088.60  1101.10  1106.79  1115.36  1117.17
eigval :     1122.45  1126.34  1127.39  1133.04  1140.47  1146.28
eigval :     1152.35  1156.02  1162.55  1163.07  1167.28  1168.82
eigval :     1171.36  1174.42  1180.35  1182.56  1188.66  1195.00
eigval :     1196.58  1205.05  1207.96  1215.81  1223.73  1229.93
eigval :     1232.12  1236.38  1238.97  1251.01  1254.26  1265.63
eigval :     1270.03  1275.22  1276.88  1280.13  1298.05  1306.21
eigval :     1318.87  1320.94  1323.12  1339.24  1339.91  1361.23
eigval :     1376.89  1382.95  1418.89  1431.41  1467.70  1484.90
eigval :     1516.07  1666.61  1679.36  1688.02  1709.74  2893.83
eigval :     2934.33  2957.33  2968.65  2969.89  2980.54  2989.73
eigval :     2997.84  3000.97  3003.88  3010.83  3011.80  3012.79
eigval :     3026.15  3032.26  3037.33  3055.61  3060.19  3061.79
eigval :     3062.40  3063.46  3077.07  3078.80  3079.46  3392.39

   temp. (K)  partition function   enthalpy   heat capacity  entropy
                                   cal/mol     cal/K/mol   cal/K/mol   J/K/mol
 298.15  VIB  0.471E+07            12224.053     91.914     69.813
         ROT  0.116E+08              888.752      2.981     35.306
         INT  0.546E+14            13112.805     94.895    105.119
         TR   0.855E+28             1481.254      4.968     44.029
         TOT                       14594.0592    99.8632   149.1474   624.0329

       T/K    H(0)-H(T)+PV         H(T)/Eh          T*S/Eh         G(T)/Eh
   ------------------------------------------------------------------------
    298.15    0.232571E-01    0.473152E+00    0.708648E-01    0.402287E+00
   ------------------------------------------------------------------------

         :::::::::::::::::::::::::::::::::::::::::::::::::::::
         ::                  THERMODYNAMIC                  ::
         :::::::::::::::::::::::::::::::::::::::::::::::::::::
         :: total free energy         -84.335946556282 Eh   ::
         ::.................................................::
         :: total energy              -84.738233550815 Eh   ::
         :: zero point energy           0.449894645187 Eh   ::
         :: G(RRHO) w/o ZPVE           -0.047607650654 Eh   ::
         :: G(RRHO) contrib.            0.402286994533 Eh   ::
         :::::::::::::::::::::::::::::::::::::::::::::::::::::

           -------------------------------------------------
          | TOTAL ENERGY              -84.738233550815 Eh   |
          | TOTAL ENTHALPY            -84.265081791914 Eh   |
          | TOTAL FREE ENERGY         -84.335946556282 Eh   |
          | GRADIENT NORM               0.000034269482 Eh/α |
          | HOMO-LUMO GAP               3.035097051827 eV   |
           -------------------------------------------------

 * finished run on 2025/07/16 at 09:06:52.707
