   * xtb version 6.7.1 (edcfbbe) compiled by 'albert@albert-system' on 2024-07-22

   ID    Z sym.   atoms
    1    6 C      1-9, 11-16, 20-31
    2    7 N      10
    3    8 O      17, 19
    4   16 S      18
    5    1 H      32-56

          program call               : xtb data2507/gas/DMAC-DPS/DMAC-DPS.xyz --gfn 2 --ohess vtight --parallel 40 --molden --ceasefiles --namespace data2507/gas/DMAC-DPS/DMAC-DPS_gas_S0_preOpt
          :  Hamiltonian                  GFN2-xTB          :
 * total energy  :   -49.6699509 Eh     change       -0.3201123E-08 Eh
 * total energy  :   -69.3411946 Eh     change       -0.1967124E+02 Eh
 * total energy  :   -75.2735952 Eh     change       -0.5932401E+01 Eh
 * total energy  :   -77.9667314 Eh     change       -0.2693136E+01 Eh
 * total energy  :   -79.9701223 Eh     change       -0.2003391E+01 Eh
 * total energy  :   -81.2380000 Eh     change       -0.1267878E+01 Eh
 * total energy  :   -82.0889123 Eh     change       -0.8509123E+00 Eh
 * total energy  :   -82.6773275 Eh     change       -0.5884153E+00 Eh
 * total energy  :   -83.0934963 Eh     change       -0.4161687E+00 Eh
 * total energy  :   -83.3965975 Eh     change       -0.3031013E+00 Eh
 * total energy  :   -84.7328718 Eh     change       -0.2138703E-05 Eh
 * total energy  :   -84.7328738 Eh     change       -0.1963773E-05 Eh
 * total energy  :   -84.7328746 Eh     change       -0.8498604E-06 Eh
 * total energy  :   -84.7328752 Eh     change       -0.6121527E-06 Eh
 * total energy  :   -84.7328756 Eh     change       -0.3765450E-06 Eh
 * total energy  :   -84.7328756 Eh     change        0.3963167E-07 Eh
 * total energy  :   -84.7328758 Eh     change       -0.2560298E-06 Eh
 * total energy  :   -84.7328760 Eh     change       -0.1800315E-06 Eh
 * total energy  :   -84.7328760 Eh     change       -0.1461397E-07 Eh
   *** GEOMETRY OPTIMIZATION CONVERGED AFTER 81 ITERATIONS ***

 final structure:
================
56
 xtb: 6.7.1 (edcfbbe)
C            0.56804601565287        2.47636845143956       -2.32248428822237
C            0.41335647084465        0.71154864187896       -0.07919881871962
C           -1.36428624826436        2.10376573702917        1.90930408446631
C            1.50501197469770        0.08502518061241        0.72605654330907
C            2.83226895509954        0.81744332575624       -0.79546040791162
C            4.06699807120443       -0.09874683249714       -0.71914473227200
C            3.73103676521990       -1.54936355368037        0.89081753672318
C            2.43382576170959       -1.98961131925247        1.47979568171073
C            1.34077278347536       -1.22827414574102        1.34586803616431
N            0.03742011045708       -1.68418637692317        1.49298207073216
C           -0.94030463843894       -1.31680489270110        0.57145434776174
C           -1.90442736438188       -2.16956177030305        0.21014854932936
C           -3.15323858827203       -1.72430713486075       -0.45590004514963
C           -3.98697770788906        0.30136528548204       -0.41520547374971
C           -2.83264784706101        1.26301369508716       -0.07545922791970
C           -0.96675102710771        0.12359528921924        0.13882278364086
O           -0.59400600118969        2.82075200413143       -3.00583227655624
S            0.24030240856160        2.52390248315051       -0.45903025345637
O            1.38839899313958        3.25348985321771        0.08546672158232
C            1.51741230950980        0.01748589676108       -0.82888247537225
C            2.79679975314500        0.87086571929598        0.74795774085417
C            4.03096569756451       -0.03885946261322        0.81534140191939
C            3.77559239303225       -1.61425316180766       -0.68760302571953
C            2.54979371831305       -2.05268929254489       -1.42343264612415
C            1.47856166942157       -1.26908636606783       -1.52418326763646
C           -1.93335358025441        0.91401533676628        1.13768321466010
C           -2.59466676239523        0.01926135537675        2.14662061071936
C           -3.63244147448672       -0.75920835383654        1.87892219287223
C           -4.13283504858895       -0.92995723713945        0.49559969839140
C           -3.05622908402845       -0.48377464188907       -1.35616210120086
C           -1.91338562807964        0.48267505787851       -1.02602589393586
H           -0.83675739419453        3.72990657591544       -2.79672969978110
H            0.85205934549156        1.47780181194629       -2.64984333570314
H            1.38247287677521        3.18903111846247       -2.48673407859279
H           -1.32180971456762        3.01240975178689        1.31739194297601
H           -2.00132385406580        2.31018687414915        2.76867365851873
H           -0.36441762061351        1.88176729246634        2.27616394994707
H            2.92966527645511        1.69591488563295       -1.42526111299381
H            4.92589587177669        0.21598988542009       -1.30558175899312
H            4.55876435452635       -2.11122307231326        1.32614686592557
H            2.36909055785787       -2.99416455376594        1.86984560748976
H           -0.03107210164540       -2.64878077879756        1.79339655654761
H           -1.87991608264921       -3.18810406285623        0.57287726759456
H           -3.65455990789968       -2.56334514504693       -0.93905195734273
H           -4.91011670836686        0.76924737177917       -0.74654205790877
H           -3.04595069171534        2.32039095659641       -0.20856872401472
H            2.81711291669451        1.79286186922957        1.31886224173782
H            4.86236237382423        0.32403845515565        1.41257491527166
H            4.63271983436787       -2.19971416495763       -1.02496923610437
H            2.58020823673786       -3.01712493994079       -1.90912241421112
H            0.58412512766815       -1.56575120370004       -2.05280777144970
H           -2.20366450406120        0.07569684798267        3.15239367007879
H           -4.09448253738983       -1.35014240728978        2.65652597371315
H           -5.13878377047060       -1.34929193314037        0.48245722331463
H           -3.26470768280946       -0.63012003056878       -2.41269470675332
H           -1.44792705234771        0.94662882461302       -1.88824030017077

          :  Hamiltonian                  GFN2-xTB          :
         :: gradient norm              0.000195590841 Eh/a0 ::
         :: HOMO-LUMO gap              2.997083108215 eV    ::
         :: SCC energy               -85.881150203071 Eh    ::
         :: -> dispersion             -0.087625845453 Eh    ::
         :: repulsion energy           1.148274167495 Eh    ::

    * Orbital Energies and Occupations

         #    Occupation            Energy/Eh            Energy/eV
      -------------------------------------------------------------
         1        2.0000           -0.7503816             -20.4189
       ...           ...                  ...                  ...
        66        2.0000           -0.4292329             -11.6800
        67        2.0000           -0.4091612             -11.1338
        68        2.0000           -0.4054872             -11.0339
        69        2.0000           -0.4032928             -10.9742
        70        2.0000           -0.4006189             -10.9014
        71        2.0000           -0.3977076             -10.8222
        72        2.0000           -0.3924109             -10.6780
        73        2.0000           -0.3877935             -10.5524
        74        2.0000           -0.3858074             -10.4984
        75        2.0000           -0.3828891             -10.4189
        76        2.0000           -0.3783963             -10.2967
        77        2.0000           -0.3630050              -9.8779
        78        2.0000           -0.3395846              -9.2406 (HOMO)
        79                         -0.2294437              -6.2435 (LUMO)
        80                         -0.2078288              -5.6553
        81                         -0.2006152              -5.4590
        82                         -0.1956265              -5.3233
        83                         -0.1830461              -4.9809
        84                         -0.1736100              -4.7242
        85                         -0.1156730              -3.1476
        86                         -0.0904726              -2.4619
        87                         -0.0361898              -0.9848
        88                         -0.0283715              -0.7720
        89                         -0.0197431              -0.5372
       ...                                ...                  ...
       154                          0.9175965              24.9691
      -------------------------------------------------------------
                  HL-Gap            0.1101408 Eh            2.9971 eV

     #   Z          covCN         q      C6AA      α(0)
     1   6 C        3.659     0.048    20.047     6.425
     2   6 C        3.906    -0.013    20.749     6.475
     3   6 C        3.769    -0.117    22.783     6.802
     4   6 C        4.145     0.016    20.216     6.386
     5   6 C        4.225    -0.016    20.775     6.473
     6   6 C        4.180    -0.023    20.900     6.493
     7   6 C        4.002    -0.013    20.734     6.469
     8   6 C        2.908    -0.089    30.234     9.016
     9   6 C        2.896     0.060    26.645     8.463
    10   7 N        2.698    -0.173    24.741     7.387
    11   6 C        2.894     0.061    26.624     8.460
    12   6 C        2.901    -0.088    30.217     9.013
    13   6 C        4.005    -0.013    20.737     6.469
    14   6 C        4.182    -0.022    20.884     6.490
    15   6 C        4.163    -0.031    21.041     6.515
    16   6 C        4.085     0.008    20.357     6.409
    17   8 O        1.664    -0.421    21.253     6.223
    18  16 S        2.856     0.356   127.370    18.995
    19   8 O        0.859    -0.480    23.348     6.478
    20   6 C        4.079    -0.003    20.546     6.438
    21   6 C        4.172    -0.016    20.779     6.474
    22   6 C        4.164    -0.026    20.956     6.502
    23   6 C        4.002    -0.021    20.873     6.491
    24   6 C        2.904    -0.038    28.941     8.821
    25   6 C        2.893    -0.044    29.096     8.844
    26   6 C        4.031     0.014    20.256     6.393
    27   6 C        2.905    -0.039    28.961     8.824
    28   6 C        2.891    -0.038    28.939     8.820
    29   6 C        4.011    -0.020    20.856     6.488
    30   6 C        4.175    -0.024    20.906     6.494
    31   6 C        4.168    -0.037    21.140     6.530
    32   1 H        0.805     0.301     0.718     1.331
    33   1 H        0.925     0.066     2.135     2.285
    34   1 H        0.924     0.047     2.363     2.404
    35   1 H        0.925     0.046     2.367     2.406
    36   1 H        0.925     0.050     2.314     2.379
    37   1 H        0.925     0.052     2.297     2.370
    38   1 H        0.925     0.030     2.592     2.517
    39   1 H        0.925     0.026     2.647     2.544
    40   1 H        0.924     0.030     2.585     2.514
    41   1 H        0.926     0.017     2.777     2.606
    42   1 H        0.860     0.157     1.353     1.822
    43   1 H        0.925     0.014     2.820     2.626
    44   1 H        0.924     0.030     2.588     2.516
    45   1 H        0.925     0.025     2.652     2.547
    46   1 H        0.925     0.026     2.638     2.540
    47   1 H        0.925     0.053     2.288     2.365
    48   1 H        0.925     0.028     2.620     2.531
    49   1 H        0.924     0.031     2.575     2.509
    50   1 H        0.926     0.027     2.628     2.535
    51   1 H        0.926     0.029     2.601     2.522
    52   1 H        0.926     0.032     2.554     2.499
    53   1 H        0.926     0.027     2.626     2.534
    54   1 H        0.925     0.030     2.581     2.512
    55   1 H        0.925     0.026     2.649     2.545
    56   1 H        0.925     0.041     2.430     2.438

molecular dipole:
                 x           y           z       tot (Debye)
 q only:       -0.630      -0.425      -0.106
   full:       -0.266      -0.685      -0.309       2.025

 projected vibrational frequencies (cm⁻¹)
eigval :       -0.00    -0.00    -0.00    -0.00     0.00     0.00
eigval :       30.46    66.43    75.50    83.84   104.51   108.02
eigval :      133.01   152.93   165.28   187.94   196.84   209.32
eigval :      224.50   237.33   251.58   270.47   308.38   317.74
eigval :      322.49   343.62   360.82   378.43   395.99   400.30
eigval :      403.62   422.19   433.75   455.92   462.54   478.70
eigval :      495.48   507.15   514.96   519.57   542.47   570.17
eigval :      602.76   618.84   641.85   644.73   653.37   669.68
eigval :      689.57   703.54   731.19   739.35   743.78   751.16
eigval :      762.28   767.77   783.59   793.92   807.50   808.84
eigval :      816.81   830.28   839.07   846.09   869.12   878.86
eigval :      890.93   896.30   909.19   917.48   922.47   925.17
eigval :      934.83   951.30   958.23   967.69   969.12   974.07
eigval :      977.89   983.35  1015.98  1041.53  1054.26  1057.27
eigval :     1080.34  1087.81  1101.31  1105.69  1107.07  1112.33
eigval :     1116.52  1121.40  1124.31  1128.40  1133.34  1140.10
eigval :     1146.27  1149.34  1157.33  1161.59  1163.92  1167.94
eigval :     1170.94  1171.84  1179.75  1181.18  1187.82  1194.37
eigval :     1202.97  1207.32  1209.95  1216.02  1223.80  1230.01
eigval :     1230.49  1235.68  1237.72  1251.19  1255.07  1266.11
eigval :     1267.12  1275.38  1277.67  1281.03  1297.43  1306.71
eigval :     1308.50  1318.88  1321.60  1339.25  1340.35  1361.59
eigval :     1378.59  1385.48  1416.18  1432.59  1435.13  1483.60
eigval :     1515.18  1667.39  1678.33  1687.43  1709.30  2924.43
eigval :     2956.25  2966.00  2968.71  2977.90  2990.68  2997.82
eigval :     2998.27  3004.80  3006.05  3009.82  3010.71  3017.20
eigval :     3032.31  3035.05  3052.42  3056.49  3059.25  3060.77
eigval :     3063.04  3076.65  3077.16  3078.86  3394.01  3540.41

   temp. (K)  partition function   enthalpy   heat capacity  entropy
                                   cal/mol     cal/K/mol   cal/K/mol   J/K/mol
 298.15  VIB  0.115E+08            12551.887     92.745     72.327
         ROT  0.115E+08              888.752      2.981     35.296
         INT  0.132E+15            13440.640     95.726    107.623
         TR   0.855E+28             1481.254      4.968     44.029
         TOT                       14921.8936   100.6940   151.6520   634.5119

       T/K    H(0)-H(T)+PV         H(T)/Eh          T*S/Eh         G(T)/Eh
   ------------------------------------------------------------------------
    298.15    0.237796E-01    0.473650E+00    0.720547E-01    0.401595E+00
   ------------------------------------------------------------------------

         :::::::::::::::::::::::::::::::::::::::::::::::::::::
         ::                  THERMODYNAMIC                  ::
         :::::::::::::::::::::::::::::::::::::::::::::::::::::
         :: total free energy         -84.331280792619 Eh   ::
         ::.................................................::
         :: total energy              -84.732876035571 Eh   ::
         :: zero point energy           0.449870439162 Eh   ::
         :: G(RRHO) w/o ZPVE           -0.048275196210 Eh   ::
         :: G(RRHO) contrib.            0.401595242952 Eh   ::
         :::::::::::::::::::::::::::::::::::::::::::::::::::::

           -------------------------------------------------
          | TOTAL ENERGY              -84.732876035571 Eh   |
          | TOTAL ENTHALPY            -84.259226045294 Eh   |
          | TOTAL FREE ENERGY         -84.331280792619 Eh   |
          | GRADIENT NORM               0.000195560864 Eh/α |
          | HOMO-LUMO GAP               2.997084606662 eV   |
           -------------------------------------------------

 * finished run on 2025/07/16 at 09:05:21.292
