   * xtb version 6.7.1 (edcfbbe) compiled by 'albert@albert-system' on 2024-07-22

   ID    Z sym.   atoms
    1    6 C      1-9, 11-16, 20-31
    2    7 N      10
    3    8 O      17, 19
    4   16 S      18
    5    1 H      32-56

          program call               : xtb data2507/gas/DMAC-DPS/DMAC-DPS_gas_T1_crest.xyz --gfn 2 --spinpol --tblite --uhf 2 --ohess vtight --parallel 40 --molden --ceasefiles --namespace data2507/gas/DMAC-DPS/DMAC-DPS_gas_T1_finalOpt
 * total energy  :   -84.6837946 Eh     change       -0.9409860E-08 Eh
 * total energy  :   -84.6838714 Eh     change       -0.7684279E-04 Eh
 * total energy  :   -84.6839191 Eh     change       -0.4764276E-04 Eh
 * total energy  :   -84.6839255 Eh     change       -0.6463103E-05 Eh
 * total energy  :   -84.6839280 Eh     change       -0.2416275E-05 Eh
 * total energy  :   -84.6839286 Eh     change       -0.6689518E-06 Eh
 * total energy  :   -84.6839290 Eh     change       -0.3656720E-06 Eh
 * total energy  :   -84.6839294 Eh     change       -0.4117272E-06 Eh
 * total energy  :   -84.6839297 Eh     change       -0.2989381E-06 Eh
 * total energy  :   -84.6839299 Eh     change       -0.2298880E-06 Eh
 * total energy  :   -84.6839300 Eh     change       -0.1202415E-06 Eh
 * total energy  :   -84.6839302 Eh     change       -0.1224403E-06 Eh
 * total energy  :   -84.6839303 Eh     change       -0.8340774E-07 Eh
   *** GEOMETRY OPTIMIZATION CONVERGED AFTER 13 ITERATIONS ***

 final structure:
================
56
 xtb: 6.7.1 (edcfbbe)
C            0.87675139708137        2.96930560536100       -1.28879214275482
C            0.36068699585514        0.44191099375234        0.12044538100502
C           -1.60969691932690        1.30477838100601        2.28736309826122
C            1.17026492774032       -0.36032681047861        1.11210327431250
C            2.70775196587598        0.55489208493974       -0.40110689113654
C            3.87602746449283       -0.43382452206704       -0.52160450666842
C            3.32583965218789       -2.22833922351502        0.61836143180017
C            1.99869903332643       -2.65286489898414        1.07514030255834
C            0.95179609428665       -1.73789565573925        1.04686495547722
N           -0.32374206394957       -2.21499140135514        0.75545701543828
C           -1.18515182986326       -1.51604558851646       -0.06897585465141
C           -2.12633886732267       -2.12513396214110       -0.79960516269435
C           -3.25493618528650       -1.37592811034305       -1.40440146776066
C           -3.98868262324016        0.59260079352616       -0.77815190243080
C           -2.84448793988902        1.28711686517224       -0.01433172903723
C           -1.08469485638933       -0.02159640870143        0.00760317976096
O            2.06466231190172        3.61060942258889       -1.04667354772457
S            0.23056259366855        2.32140088235693        0.36831617719997
O            1.32059190142185        2.78746268806909        1.24805070216480
C            1.37035786290075        0.16015418424553       -0.98033106519224
C            2.56370844480348        0.19000137772017        1.10260097167896
C            3.73739348466697       -0.79289300998854        0.96616119727413
C            3.45703418014682       -1.84546944610171       -0.95265340364278
C            2.27818567056845       -1.90542188394094       -1.84256827813787
C            1.27803965478544       -0.98056929351659       -1.79846980334550
C           -2.12905660296002        0.48576923503741        1.10467429380617
C           -2.95805870775530       -0.62989634131393        1.67544184056854
C           -3.98693581777476       -1.18482070370595        1.05265967244544
C           -4.31112130238795       -0.84995283147989       -0.35251959065654
C           -2.98118502233970        0.07794909094729       -1.82130402206074
C           -1.84696596793758        0.77930144078582       -1.06490731278227
H            2.17467440365462        3.60868690172277       -0.06311782739064
H            0.10194039144442        3.66012318479937       -1.64412094802408
H            1.00057769625334        2.13163860242616       -1.98484452086066
H           -1.54608212999827        2.36619984657449        2.06810447803105
H           -2.28854803877917        1.19346926110901        3.13183921997970
H           -0.62735914110830        0.95391449675436        2.59844357186981
H            2.99630129484802        1.57764861715999       -0.63487638794206
H            4.79150400883194       -0.04243177464462       -0.95748659556511
H            4.08831715918448       -2.96519823650936        0.87204317158530
H            1.77043528666355       -3.70963574170537        1.05893437553789
H           -0.39895813829148       -3.22151081375256        0.69134454717088
H           -2.18743870823227       -3.20433178419394       -0.80807229137015
H           -3.73058009625672       -1.96059413302893       -2.19208179803369
H           -4.83696956615494        1.22227833837778       -1.03220227105361
H           -2.98787393735442        2.34519339868143        0.18864761339817
H            2.71463864320698        0.99116860509980        1.82316556601005
H            4.54422558036781       -0.67752963213261        1.68502847606468
H            4.27895901777997       -2.42184558198058       -1.37918327013873
H            2.17240951630637       -2.77496840568352       -2.47449549559237
H            0.35744596252779       -1.15795398682639       -2.34056955548458
H           -2.69809149202240       -0.94354159189568        2.67618140552401
H           -4.57132548980128       -1.95661367683860        1.53215409041145
H           -5.32561682802547       -1.15106698212901       -0.61276213027973
H           -3.05615250491965        0.30213899511956       -2.88223476384068
H           -1.23662014431311        1.45015998037708       -1.66318090338183

 projected vibrational frequencies (cm⁻¹)
eigval :       -0.00    -0.00    -0.00     0.00     0.00     0.00
eigval :       40.58    66.89    75.13   102.39   113.74   130.98
eigval :      137.44   160.02   169.66   181.36   205.57   215.76
eigval :      231.31   260.38   265.11   281.35   316.41   325.77
eigval :      339.11   353.18   364.40   375.22   385.75   422.05
eigval :      431.57   444.80   458.75   477.56   480.96   493.57
eigval :      503.26   506.59   520.21   523.42   541.93   581.47
eigval :      589.16   594.29   618.16   619.47   641.42   646.30
eigval :      667.86   676.10   686.73   693.82   720.76   731.14
eigval :      743.97   753.84   760.73   778.39   789.59   799.23
eigval :      805.76   822.12   835.18   836.28   846.17   871.63
eigval :      876.42   899.64   911.01   918.10   922.39   924.75
eigval :      930.75   940.54   954.08   960.38   967.87   976.79
eigval :      987.04   993.68  1001.27  1021.39  1042.96  1053.71
eigval :     1063.63  1070.95  1077.66  1096.36  1102.73  1109.77
eigval :     1120.23  1123.78  1126.79  1127.44  1131.03  1146.62
eigval :     1154.56  1156.89  1157.29  1162.18  1163.43  1167.45
eigval :     1173.33  1174.75  1180.90  1182.36  1187.51  1194.08
eigval :     1195.67  1198.89  1203.55  1212.06  1216.71  1230.02
eigval :     1234.92  1237.29  1241.16  1249.55  1255.98  1260.56
eigval :     1265.70  1276.40  1278.85  1282.01  1298.57  1305.46
eigval :     1305.98  1319.90  1321.57  1324.33  1348.26  1360.91
eigval :     1365.95  1391.56  1415.15  1416.48  1450.27  1455.14
eigval :     1484.53  1486.62  1515.70  1677.09  1709.60  2875.32
eigval :     2898.34  2958.72  2967.25  2971.31  2979.05  2989.37
eigval :     2989.40  2996.84  2997.23  2999.15  3004.20  3007.41
eigval :     3010.60  3013.22  3021.48  3041.34  3043.78  3053.67
eigval :     3056.51  3061.20  3062.38  3072.77  3077.94  3407.32

   temp. (K)  partition function   enthalpy   heat capacity  entropy
                                   cal/mol     cal/K/mol   cal/K/mol   J/K/mol
 298.15  VIB  0.465E+07            12413.608     93.492     70.674
         ROT  0.114E+08              888.752      2.981     35.266
         INT  0.528E+14            13302.360     96.472    105.940
         TR   0.855E+28             1481.254      4.968     44.029
         TOT                       14783.6142   101.4406   149.9693   627.4716

       T/K    H(0)-H(T)+PV         H(T)/Eh          T*S/Eh         G(T)/Eh
   ------------------------------------------------------------------------
    298.15    0.235592E-01    0.470067E+00    0.712553E-01    0.398812E+00
   ------------------------------------------------------------------------

         :::::::::::::::::::::::::::::::::::::::::::::::::::::
         ::                  THERMODYNAMIC                  ::
         :::::::::::::::::::::::::::::::::::::::::::::::::::::
         :: total free energy         -84.285118209441 Eh   ::
         ::.................................................::
         :: total energy              -84.683930256331 Eh   ::
         :: zero point energy           0.446508114223 Eh   ::
         :: G(RRHO) w/o ZPVE           -0.047696067332 Eh   ::
         :: G(RRHO) contrib.            0.398812046890 Eh   ::
         :::::::::::::::::::::::::::::::::::::::::::::::::::::

           -------------------------------------------------
          | TOTAL ENERGY              -84.683930256331 Eh   |
          | TOTAL ENTHALPY            -84.213862953256 Eh   |
          | TOTAL FREE ENERGY         -84.285118209441 Eh   |
          | GRADIENT NORM               0.000047791578 Eh/α |
           -------------------------------------------------

 * finished run on 2025/07/16 at 09:08:55.752
