   * xtb version 6.7.1 (edcfbbe) compiled by 'albert@albert-system' on 2024-07-22

   ID    Z sym.   atoms
    1    6 C      1-9, 11-16, 20-31
    2    7 N      10
    3    8 O      17, 19
    4   16 S      18
    5    1 H      32-56

          program call               : xtb data2507/gas/DMAC-DPS/DMAC-DPS_gas_S0_finalOpt.xtbopt.xyz --gfn 2 --spinpol --tblite --uhf 2 --ohess vtight --parallel 40 --molden --ceasefiles --namespace data2507/gas/DMAC-DPS/DMAC-DPS_gas_T1_preOpt
 * total energy  :   -84.6257670 Eh     change        0.7563514E-08 Eh
 * total energy  :   -84.6476320 Eh     change       -0.2186498E-01 Eh
 * total energy  :   -84.6577761 Eh     change       -0.1014410E-01 Eh
 * total energy  :   -84.6610111 Eh     change       -0.3235096E-02 Eh
 * total energy  :   -84.6645454 Eh     change       -0.3534237E-02 Eh
 * total energy  :   -84.6695328 Eh     change       -0.4987418E-02 Eh
 * total energy  :   -84.6738579 Eh     change       -0.4325107E-02 Eh
 * total energy  :   -84.6770763 Eh     change       -0.3218346E-02 Eh
 * total energy  :   -84.6815155 Eh     change       -0.4439221E-02 Eh
 * total energy  :   -84.6826311 Eh     change       -0.1115648E-02 Eh
 * total energy  :   -84.6839273 Eh     change       -0.1297396E-05 Eh
 * total energy  :   -84.6839286 Eh     change       -0.1316377E-05 Eh
 * total energy  :   -84.6839293 Eh     change       -0.6834040E-06 Eh
 * total energy  :   -84.6839298 Eh     change       -0.5146553E-06 Eh
 * total energy  :   -84.6839297 Eh     change        0.3647503E-07 Eh
 * total energy  :   -84.6839301 Eh     change       -0.3746845E-06 Eh
 * total energy  :   -84.6839301 Eh     change        0.2192220E-07 Eh
 * total energy  :   -84.6839303 Eh     change       -0.2124322E-06 Eh
 * total energy  :   -84.6839304 Eh     change       -0.7285064E-07 Eh
   *** GEOMETRY OPTIMIZATION CONVERGED AFTER 33 ITERATIONS ***

 final structure:
================
56
 xtb: 6.7.1 (edcfbbe)
C            0.85000868819310        2.97400412940525       -1.30670664111008
C            0.35121853532249        0.45264245228940        0.11927460404478
C           -1.65033910964013        1.31127034073905        2.25979969564822
C            1.16155629517922       -0.33122808897423        1.12486650999255
C            2.70133722902700        0.58849620665544       -0.38329732221060
C            3.88181298818351       -0.38777260538191       -0.48502638478305
C            3.34283958896051       -2.17821956347388        0.66676407678143
C            2.01696163978188       -2.61409248357794        1.11641881060926
C            0.95972551885227       -1.71172757166541        1.07048020018053
N           -0.30752432948842       -2.20640654427531        0.77220064323237
C           -1.16925240166437       -1.52527960832776       -0.06667521303354
C           -2.09585600560342       -2.15219777457662       -0.80085400859362
C           -3.22744206073936       -1.42211007768373       -1.42319938194895
C           -3.99084800041544        0.54288053350371       -0.82172815331603
C           -2.86256069574059        1.25795128257840       -0.05322606828166
C           -1.08744499320916       -0.02909137643369       -0.00263892387838
O            2.02795594221821        3.63153529166766       -1.05957046584640
S            0.19677744119152        2.33247264014924        0.35010587475993
O            1.27358209385069        2.81858089564897        1.23528330158562
C            1.37361240751770        0.17330340250989       -0.97033657038942
C            2.54854961252338        0.23531828215412        1.12234350650476
C            3.73471458144714       -0.73495136779694        1.00473987093535
C            3.48271082510716       -1.80802806481912       -0.90657173310159
C            2.31211173376649       -1.88972062089646       -1.80556867312264
C            1.30136986107776       -0.97586967119026       -1.77873689413280
C           -2.14837933585584        0.47535191154752        1.07976407450096
C           -2.96931996846144       -0.64523538895371        1.65251396099017
C           -3.98536168022629       -1.21810207439164        1.02491417027489
C           -4.30001305141729       -0.89963582144972       -0.38624611800479
C           -2.96716053057933        0.03122843483303       -1.85049528872838
C           -1.84886606746768        0.75296285269950       -1.08956996290219
H            2.12955048501024        3.63845276456113       -0.07509765145526
H            0.07028408585813        3.65241889685478       -1.67492081728623
H            0.99001648035969        2.13190935016080       -1.99433506245614
H           -1.59909403651732        2.37154109086751        2.03182619668438
H           -2.33493218886389        1.19802842864402        3.09936807360092
H           -0.66613432496203        0.97642807320272        2.58240358195307
H            2.98024676977880        1.61238420445140       -0.62373544553408
H            4.79641953103500        0.01012426180180       -0.91683655197053
H            4.11171744004396       -2.90374418114338        0.93344605014050
H            1.80121611174509       -3.67357754040045        1.10833700516780
H           -0.37031200615275       -3.21429190588069        0.71663320522380
H           -2.14384581956536       -3.23209060225642       -0.80021366016704
H           -3.68835827476338       -2.01944363059654       -2.21012917341534
H           -4.84414694352212        1.15995044964022       -1.08956034108531
H           -3.02064453565898        2.31598061850490        0.13879252078010
H            2.68389938503002        1.04452612356514        1.83699273677493
H            4.53401506349821       -0.60356497763762        1.72924765314524
H            4.31476100638063       -2.37863582347167       -1.32105646361707
H            2.22146289095007       -2.76629498285547       -2.43010910399087
H            0.38757433234063       -1.16862407438316       -2.32705282270243
H           -2.71528480772888       -0.94686915080296        2.65845743178888
H           -4.56495961939317       -1.99271316016084        1.50568023147928
H           -5.30824622494732       -1.21533183163199       -0.65345196939480
H           -3.03450828533674        0.24508023691500       -2.91406924637714
H           -1.24087607890210        1.42586724160956       -1.68794150579221

 projected vibrational frequencies (cm⁻¹)
eigval :       -0.00    -0.00    -0.00    -0.00     0.00     0.00
eigval :       40.45    67.01    75.34   102.40   113.92   131.05
eigval :      138.04   160.24   170.11   181.33   206.05   215.90
eigval :      231.22   260.18   265.20   281.22   316.70   325.78
eigval :      339.32   353.27   364.36   375.28   385.66   422.18
eigval :      431.91   444.81   458.85   477.51   481.10   493.67
eigval :      503.24   506.64   520.28   523.40   542.15   581.27
eigval :      589.35   594.91   618.29   619.50   640.69   646.36
eigval :      668.45   676.29   686.98   693.56   720.79   731.23
eigval :      744.10   753.77   760.69   778.41   789.54   799.20
eigval :      806.17   822.25   835.32   836.40   846.44   871.91
eigval :      876.00   899.63   911.15   918.26   922.45   924.80
eigval :      931.31   940.61   954.13   960.44   968.18   976.92
eigval :      987.11   993.72  1001.42  1021.16  1043.17  1053.86
eigval :     1063.82  1071.26  1077.83  1096.08  1102.96  1110.04
eigval :     1120.38  1124.00  1127.21  1127.69  1131.25  1146.77
eigval :     1154.82  1157.08  1157.73  1162.51  1163.51  1167.85
eigval :     1173.63  1175.08  1181.18  1182.73  1187.81  1194.40
eigval :     1195.89  1199.03  1203.83  1212.59  1217.20  1230.36
eigval :     1235.03  1237.67  1241.33  1249.30  1256.28  1260.85
eigval :     1266.01  1276.48  1278.46  1282.16  1298.96  1305.82
eigval :     1306.38  1320.21  1321.88  1324.75  1348.33  1361.23
eigval :     1366.07  1391.52  1415.51  1417.23  1450.29  1455.61
eigval :     1485.14  1486.64  1515.89  1676.92  1709.54  2875.18
eigval :     2898.62  2959.26  2967.74  2971.78  2979.59  2989.44
eigval :     2989.59  2997.14  2997.38  2999.34  3004.49  3007.68
eigval :     3010.82  3013.61  3021.89  3041.43  3043.00  3053.25
eigval :     3056.66  3061.48  3062.50  3072.86  3078.03  3407.18

   temp. (K)  partition function   enthalpy   heat capacity  entropy
                                   cal/mol     cal/K/mol   cal/K/mol   J/K/mol
 298.15  VIB  0.460E+07            12409.267     93.473     70.635
         ROT  0.114E+08              888.752      2.981     35.266
         INT  0.522E+14            13298.020     96.453    105.901
         TR   0.855E+28             1481.254      4.968     44.029
         TOT                       14779.2736   101.4216   149.9301   627.3075

       T/K    H(0)-H(T)+PV         H(T)/Eh          T*S/Eh         G(T)/Eh
   ------------------------------------------------------------------------
    298.15    0.235523E-01    0.470119E+00    0.712366E-01    0.398882E+00
   ------------------------------------------------------------------------

         :::::::::::::::::::::::::::::::::::::::::::::::::::::
         ::                  THERMODYNAMIC                  ::
         :::::::::::::::::::::::::::::::::::::::::::::::::::::
         :: total free energy         -84.285048468366 Eh   ::
         ::.................................................::
         :: total energy              -84.683930384755 Eh   ::
         :: zero point energy           0.446566273063 Eh   ::
         :: G(RRHO) w/o ZPVE           -0.047684356674 Eh   ::
         :: G(RRHO) contrib.            0.398881916389 Eh   ::
         :::::::::::::::::::::::::::::::::::::::::::::::::::::

           -------------------------------------------------
          | TOTAL ENERGY              -84.683930384755 Eh   |
          | TOTAL ENTHALPY            -84.213811840056 Eh   |
          | TOTAL FREE ENERGY         -84.285048468366 Eh   |
          | GRADIENT NORM               0.000055808834 Eh/α |
           -------------------------------------------------

 * finished run on 2025/07/16 at 09:06:57.202
