   * xtb version 6.7.1 (edcfbbe) compiled by 'albert@albert-system' on 2024-07-22

   ID    Z sym.   atoms
    1    8 O      1, 10, 11
    2    6 C      2-8, 13-15, 17-28
    3   16 S      9
    4    7 N      12, 16
    5    1 H      29-46

          program call               : xtb data2507/toluene/CzPrSBI/CzPrSBI_toluene_T1_crest.xyz --gfn 2 --uhf 2 --gbsa toluene --ohess vtight --parallel 40 --molden --ceasefiles --namespace data2507/toluene/CzPrSBI/CzPrSBI_toluene_T1_finalOpt
      * Solvation model:               GBSA
        Solvent                        toluene
        Solvent mass                       9.2140E+01 g/mol
          :  Hamiltonian                  GFN2-xTB          :
 * total energy  :   -77.5776939 Eh     change       -0.4139054E-09 Eh
 * total energy  :   -77.5780010 Eh     change       -0.3070567E-03 Eh
 * total energy  :   -77.5783771 Eh     change       -0.3761497E-03 Eh
 * total energy  :   -77.5784646 Eh     change       -0.8751257E-04 Eh
 * total energy  :   -77.5786168 Eh     change       -0.1521524E-03 Eh
 * total energy  :   -77.5787076 Eh     change       -0.9078172E-04 Eh
 * total energy  :   -77.5787728 Eh     change       -0.6518346E-04 Eh
 * total energy  :   -77.5788317 Eh     change       -0.5893079E-04 Eh
 * total energy  :   -77.5788672 Eh     change       -0.3555762E-04 Eh
 * total energy  :   -77.5788826 Eh     change       -0.1539777E-04 Eh
 * total energy  :   -77.5789752 Eh     change       -0.7110086E-06 Eh
 * total energy  :   -77.5789756 Eh     change       -0.4067965E-06 Eh
 * total energy  :   -77.5789758 Eh     change       -0.2696716E-06 Eh
 * total energy  :   -77.5789761 Eh     change       -0.2657221E-06 Eh
 * total energy  :   -77.5789765 Eh     change       -0.3612339E-06 Eh
 * total energy  :   -77.5789770 Eh     change       -0.4921006E-06 Eh
 * total energy  :   -77.5789775 Eh     change       -0.4959114E-06 Eh
 * total energy  :   -77.5789779 Eh     change       -0.4462438E-06 Eh
 * total energy  :   -77.5789779 Eh     change       -0.1267001E-07 Eh
   *** GEOMETRY OPTIMIZATION CONVERGED AFTER 44 ITERATIONS ***

 final structure:
================
46
 xtb: 6.7.1 (edcfbbe)
O           -1.26151390649579        0.44616442201942        2.23077285360894
C           -1.26549228199978       -0.39807683905447        1.19348494842492
C           -2.07022940325373       -0.35583044021498        0.04996917408883
C           -3.13730420127545        0.52335354459331       -0.24267220574581
C           -3.80376969520914        0.39840909927847       -1.43625326478055
C           -3.45677580306412       -0.58260273683523       -2.37181890597446
C           -2.42325795410604       -1.47112053390089       -2.09840750811023
C           -1.75631241016849       -1.35278582258225       -0.90584291518847
S           -0.41956182432161       -2.31258282058025       -0.27754586917083
O           -0.76434224366305       -3.67102788442641        0.06029495016672
O            0.81320852565905       -2.15473509767269       -1.00494871944467
N           -0.32885449842690       -1.40952424817285        1.16046030130517
C            0.44825427027158       -1.85298650486421        2.28777425328097
C            1.92397237793430       -1.47222012553407        2.14958451855886
C            2.15208670944447        0.04305263446145        2.24316300080842
N            1.68436976631764        0.75007115555966        1.08097411009929
C            0.56208579933325        1.51707522820119        0.97150463100295
C           -0.47263497065636        1.73575302001847        2.00211678797215
C           -1.41367653394702        2.80970125688960        1.59192809146592
C           -1.46699045945652        3.30646498046958        0.32549309525325
C           -0.56800911451593        2.91052388458894       -0.67816769730752
C            0.45256264361025        2.02636398016752       -0.33005416154456
C            1.58182498547675        1.51192845435490       -1.05707478260510
C            2.01995909119944        1.64815616442885       -2.36699499318637
C            3.18736551275948        1.01164433047432       -2.74062448286412
C            3.91924958908028        0.25618670939326       -1.82637635884836
C            3.50249286697785        0.10522647112106       -0.51816298777910
C            2.32198294974542        0.73006236182550       -0.14128815424179
H           -3.41184661890073        1.27368649705687        0.48080333802294
H           -4.61839476125110        1.07041293386967       -1.66113675486687
H           -3.99567066501244       -0.65521935686526       -3.30249366398457
H           -2.14317811106353       -2.24182422044984       -2.79986566696104
H            0.35200286039239       -2.94350917855046        2.32622001981234
H            0.01454437874244       -1.41734574632359        3.19338410251554
H            2.28363601691388       -1.83869322179141        1.18671602719092
H            2.48359444900520       -1.96128930281937        2.94750806722120
H            3.22499391316587        0.23627443495118        2.34736855901261
H            1.64028928954077        0.43799060525203        3.12385855752554
H           -0.07486746250954        1.91009834885786        3.00976502015675
H           -2.11893975227165        3.13037548098375        2.34236397388404
H           -2.21647869451631        4.04694197196732        0.08561731112754
H           -0.64587320850205        3.30188834336440       -1.67831329725416
H            1.45691281916767        2.23603044711143       -3.07612771437186
H            3.54324868765988        1.09871667472985       -3.75674197641176
H            4.83047771286493       -0.22512773594810       -2.14984689276963
H            4.08109214052634       -0.48484336170140        0.17539033381017

          :  Hamiltonian                  GFN2-xTB          :
         :: gradient norm              0.000068939402 Eh/a0 ::
         :: HOMO-LUMO gap              1.732755087525 eV    ::
         :: SCC energy               -78.708850031138 Eh    ::
         :: -> dispersion             -0.070890397397 Eh    ::
         :: -> Gsolv                  -0.030423264698 Eh    ::
         :: repulsion energy           1.129872117751 Eh    ::

    * Orbital Energies and Occupations

         #    Occupation            Energy/Eh            Energy/eV
      -------------------------------------------------------------
         1        2.0000           -0.7875527             -21.4304
       ...           ...                  ...                  ...
        59        2.0000           -0.4440707             -12.0838
        60        2.0000           -0.4404339             -11.9848
        61        2.0000           -0.4303383             -11.7101
        62        2.0000           -0.4262848             -11.5998
        63        2.0000           -0.4260475             -11.5933
        64        2.0000           -0.4225518             -11.4982
        65        2.0000           -0.4198807             -11.4255
        66        2.0000           -0.4178107             -11.3692
        67        2.0000           -0.4157227             -11.3124
        68        2.0000           -0.3899952             -10.6123
        69        2.0000           -0.3819863             -10.3944
        70        1.0000           -0.3247770              -8.8376
        71        1.0000           -0.3097709              -8.4293 (HOMO)
        72                         -0.2460934              -6.6965 (LUMO)
        73                         -0.2389405              -6.5019
        74                         -0.2133606              -5.8058
        75                         -0.2062541              -5.6125
        76                         -0.1928491              -5.2477
        77                         -0.1548780              -4.2144
        78                         -0.1391241              -3.7858
        79                         -0.1242529              -3.3811
        80                         -0.1121180              -3.0509
        81                         -0.0781293              -2.1260
        82                         -0.0729611              -1.9854
       ...                                ...                  ...
       135                          1.2133303              33.0164
      -------------------------------------------------------------
                  HL-Gap            0.0636775 Eh            1.7328 eV

     #   Z          covCN         q      C6AA      α(0)
     1   8 O        1.679    -0.326    19.461     5.956
     2   6 C        2.974     0.178    24.176     8.065
     3   6 C        3.141    -0.035    28.628     8.756
     4   6 C        2.914    -0.028    28.710     8.786
     5   6 C        2.915    -0.025    28.636     8.775
     6   6 C        2.922    -0.037    28.932     8.821
     7   6 C        2.925    -0.019    28.471     8.750
     8   6 C        2.998    -0.115    30.901     9.119
     9  16 S        3.999     1.114   103.447    17.118
    10   8 O        0.860    -0.586    25.770     6.806
    11   8 O        0.860    -0.578    25.574     6.780
    12   7 N        2.753    -0.248    26.456     7.639
    13   6 C        3.776     0.016    20.333     6.425
    14   6 C        3.802    -0.077    21.964     6.672
    15   6 C        3.740    -0.006    20.765     6.502
    16   7 N        2.802    -0.021    21.646     6.910
    17   6 C        3.079     0.016    27.559     8.607
    18   6 C        3.724     0.103    18.984     6.222
    19   6 C        2.906    -0.067    29.656     8.929
    20   6 C        2.907    -0.033    28.826     8.804
    21   6 C        2.909    -0.048    29.180     8.858
    22   6 C        3.063    -0.022    28.497     8.754
    23   6 C        3.081    -0.017    28.354     8.730
    24   6 C        2.912    -0.033    28.823     8.804
    25   6 C        2.920    -0.038    28.950     8.823
    26   6 C        2.924    -0.033    28.826     8.805
    27   6 C        2.910    -0.045    29.113     8.848
    28   6 C        3.090     0.041    26.978     8.514
    29   1 H        0.926     0.058     2.217     2.329
    30   1 H        0.926     0.060     2.197     2.318
    31   1 H        0.926     0.058     2.220     2.330
    32   1 H        0.926     0.047     2.362     2.403
    33   1 H        0.924     0.056     2.252     2.347
    34   1 H        0.924     0.077     2.010     2.217
    35   1 H        0.924     0.064     2.152     2.294
    36   1 H        0.924     0.075     2.036     2.231
    37   1 H        0.924     0.072     2.059     2.244
    38   1 H        0.924     0.070     2.090     2.261
    39   1 H        0.924     0.060     2.196     2.317
    40   1 H        0.926     0.042     2.420     2.433
    41   1 H        0.926     0.043     2.404     2.425
    42   1 H        0.926     0.038     2.470     2.458
    43   1 H        0.926     0.037     2.489     2.467
    44   1 H        0.926     0.035     2.514     2.480
    45   1 H        0.926     0.037     2.491     2.468
    46   1 H        0.926     0.039     2.464     2.455

molecular dipole:
                 x           y           z       tot (Debye)
 q only:        0.241       1.860       1.007
   full:        0.308       1.587       1.137       5.022

 projected vibrational frequencies (cm⁻¹)
eigval :       -0.00    -0.00    -0.00     0.00     0.00     0.00
eigval :       17.62    26.75    48.73    58.28    83.81   100.10
eigval :      117.82   134.25   143.76   164.43   184.88   207.31
eigval :      212.72   228.13   238.17   268.20   280.23   303.24
eigval :      330.91   350.60   359.07   371.09   387.39   401.08
eigval :      415.71   429.78   442.04   460.60   479.69   487.68
eigval :      503.82   512.64   528.58   531.84   541.03   551.37
eigval :      569.09   572.39   583.56   626.59   646.19   652.70
eigval :      677.83   694.54   700.80   725.32   731.12   753.72
eigval :      763.85   771.18   790.04   808.47   836.56   850.22
eigval :      865.52   885.26   890.95   896.71   900.44   918.51
eigval :      919.04   920.65   937.74   957.16   981.36  1011.52
eigval :     1012.89  1047.78  1057.29  1068.48  1079.98  1098.83
eigval :     1102.91  1113.68  1126.23  1148.85  1158.36  1167.76
eigval :     1171.27  1175.15  1190.17  1200.80  1202.55  1210.13
eigval :     1216.97  1230.42  1233.94  1242.14  1279.68  1288.46
eigval :     1316.62  1322.68  1328.23  1336.02  1341.26  1359.58
eigval :     1365.42  1373.04  1375.19  1407.07  1416.95  1429.53
eigval :     1431.71  1446.34  1447.61  1450.79  1472.03  1485.51
eigval :     1492.45  1521.65  1560.12  1571.71  1585.75  1602.92
eigval :     2873.38  2935.85  2945.10  2948.13  2981.39  3001.02
eigval :     3007.48  3073.65  3075.40  3081.55  3087.84  3089.17
eigval :     3090.86  3096.40  3098.05  3107.70  3112.02  3115.53

   temp. (K)  partition function   enthalpy   heat capacity  entropy
                                   cal/mol     cal/K/mol   cal/K/mol   J/K/mol
 298.15  VIB  0.158E+09            12412.273     83.680     73.905
         ROT  0.941E+07              888.752      2.981     34.892
         INT  0.149E+16            13301.025     86.661    108.797
         TR   0.746E+28             1481.254      4.968     43.758
         TOT                       14782.2790    91.6290   152.5551   638.2907

       T/K    H(0)-H(T)+PV         H(T)/Eh          T*S/Eh         G(T)/Eh
   ------------------------------------------------------------------------
    298.15    0.235571E-01    0.369218E+00    0.724839E-01    0.296735E+00
   ------------------------------------------------------------------------

         :::::::::::::::::::::::::::::::::::::::::::::::::::::
         ::                  THERMODYNAMIC                  ::
         :::::::::::::::::::::::::::::::::::::::::::::::::::::
         :: total free energy         -77.282243341980 Eh   ::
         ::.................................................::
         :: total energy              -77.578977915480 Eh   ::
         :: zero point energy           0.345661381480 Eh   ::
         :: G(RRHO) w/o ZPVE           -0.048926807980 Eh   ::
         :: G(RRHO) contrib.            0.296734573500 Eh   ::
         :::::::::::::::::::::::::::::::::::::::::::::::::::::

           -------------------------------------------------
          | TOTAL ENERGY              -77.578977915480 Eh   |
          | TOTAL ENTHALPY            -77.209759472947 Eh   |
          | TOTAL FREE ENERGY         -77.282243341980 Eh   |
          | GRADIENT NORM               0.000069069423 Eh/α |
          | HOMO-LUMO GAP               1.732752967913 eV   |
           -------------------------------------------------

 * finished run on 2025/08/26 at 00:31:37.074
