   * xtb version 6.7.1 (edcfbbe) compiled by 'albert@albert-system' on 2024-07-22

   ID    Z sym.   atoms
    1    8 O      1, 10, 11
    2    6 C      2-8, 13-15, 17-28
    3   16 S      9
    4    7 N      12, 16
    5    1 H      29-46

          program call               : xtb data2507/toluene/CzPrSBI/CzPrSBI_toluene_S0_crest.xyz --gfn 2 --gbsa toluene --ohess vtight --parallel 40 --molden --ceasefiles --namespace data2507/toluene/CzPrSBI/CzPrSBI_toluene_S0_finalOpt
      * Solvation model:               GBSA
        Solvent                        toluene
        Solvent mass                       9.2140E+01 g/mol
          :  Hamiltonian                  GFN2-xTB          :
 * total energy  :   -77.6678292 Eh     change       -0.5275211E-09 Eh
 * total energy  :   -77.6679729 Eh     change       -0.1437384E-03 Eh
 * total energy  :   -77.6680763 Eh     change       -0.1033692E-03 Eh
 * total energy  :   -77.6681084 Eh     change       -0.3216381E-04 Eh
 * total energy  :   -77.6681409 Eh     change       -0.3245011E-04 Eh
 * total energy  :   -77.6681672 Eh     change       -0.2628442E-04 Eh
 * total energy  :   -77.6681904 Eh     change       -0.2320794E-04 Eh
 * total energy  :   -77.6682019 Eh     change       -0.1157527E-04 Eh
 * total energy  :   -77.6682252 Eh     change       -0.2322895E-04 Eh
 * total energy  :   -77.6682389 Eh     change       -0.1373209E-04 Eh
 * total energy  :   -77.6683086 Eh     change       -0.9834318E-06 Eh
 * total energy  :   -77.6683097 Eh     change       -0.1021129E-05 Eh
 * total energy  :   -77.6683107 Eh     change       -0.1046073E-05 Eh
 * total energy  :   -77.6683117 Eh     change       -0.1029082E-05 Eh
 * total energy  :   -77.6683127 Eh     change       -0.9513545E-06 Eh
 * total energy  :   -77.6683135 Eh     change       -0.8208974E-06 Eh
 * total energy  :   -77.6683142 Eh     change       -0.7080928E-06 Eh
 * total energy  :   -77.6683148 Eh     change       -0.5744210E-06 Eh
 * total energy  :   -77.6683148 Eh     change       -0.2886637E-08 Eh
   *** GEOMETRY OPTIMIZATION CONVERGED AFTER 44 ITERATIONS ***

 final structure:
================
46
 xtb: 6.7.1 (edcfbbe)
O            1.48059960093952        0.26473471247105        2.40504833078225
C            0.46134462768637        0.40631152850265        1.76356902745734
C            0.04638899202346        1.64245011497421        1.05615123774705
C            0.84560202762014        2.75632720211765        0.84350182449936
C            0.31442140973426        3.82820614814868        0.14089630352645
C           -0.98686516172548        3.79058605441378       -0.33966262168528
C           -1.79608687841865        2.68063229264583       -0.11726770806354
C           -1.25579435755720        1.62527001863888        0.57956254804990
S           -1.99432216419581        0.10269586679339        1.11551143371989
O           -2.77074234233878        0.29196347780696        2.31022444895685
O           -2.60374290246302       -0.67971997392468        0.08520741424038
N           -0.48799579195383       -0.55771642475771        1.57640764321022
C           -0.41222809429923       -1.87060123846515        2.18414486230913
C           -0.67663621524768       -2.97817728054452        1.16249862664863
C            0.47507475292432       -3.19339303065010        0.16761631934664
N            0.77996253802024       -2.02015608523349       -0.60571863207703
C            1.84885550701238       -1.17564650977800       -0.40963874718728
C            2.96899877281081       -1.32625376205831        0.39736849339581
C            3.91981007917293       -0.32577264150139        0.38354095532900
C            3.77592408972711        0.80521817955467       -0.41810649335199
C            2.67318310299712        0.95903877009420       -1.23273029680970
C            1.70202594382963       -0.03466698120125       -1.23455334035818
C            0.47703443396350       -0.21317650296352       -1.95969931622783
C           -0.18867982541714        0.54668465344694       -2.91342826578465
C           -1.35819202131870        0.05166516692344       -3.45317538331472
C           -1.85799292299692       -1.18920929197860       -3.06227984234175
C           -1.21813174365367       -1.95844127766739       -2.11124147549642
C           -0.05302508288248       -1.45771216223120       -1.54678051795197
H            1.85693730676542        2.76213093174921        1.21803417450730
H            0.92323705822954        4.70155144368077       -0.03586912749937
H           -1.38205019324020        4.63184924704056       -0.88759476939218
H           -2.81137133636176        2.63795436762482       -0.47686360932614
H           -1.16515762264823       -1.91797910695076        2.97955596273169
H            0.58417215806529       -1.95792950589391        2.62900615848276
H           -1.58833299833863       -2.72713191081921        0.61962028904407
H           -0.83838254478287       -3.91136998261211        1.70358837917949
H            0.20227353452885       -4.00724702820333       -0.51336269370579
H            1.37752995906252       -3.48673268483975        0.70748544971644
H            3.10345009684877       -2.19035948116247        1.03035455306129
H            4.79474674291983       -0.42157779306334        1.00966031239553
H            4.54304610368373        1.56555229495635       -0.40027081136739
H            2.56356038551755        1.82956820246370       -1.86204317186653
H            0.20948161869306        1.49985214567532       -3.22823496215697
H           -1.89255274308913        0.62615687658638       -4.19581238511603
H           -2.76858256009064       -1.55696258782851       -3.51224490109460
H           -1.62122916015630       -2.91600041598014       -1.82144295286107

          :  Hamiltonian                  GFN2-xTB          :
         :: gradient norm              0.000034491344 Eh/a0 ::
         :: HOMO-LUMO gap              1.728815444397 eV    ::
         :: SCC energy               -78.845439039237 Eh    ::
         :: -> dispersion             -0.074218511620 Eh    ::
         :: -> Gsolv                  -0.031076462315 Eh    ::
         :: repulsion energy           1.177124245885 Eh    ::

    * Orbital Energies and Occupations

         #    Occupation            Energy/Eh            Energy/eV
      -------------------------------------------------------------
         1        2.0000           -0.8044403             -21.8899
       ...           ...                  ...                  ...
        58        2.0000           -0.4469910             -12.1632
        59        2.0000           -0.4462693             -12.1436
        60        2.0000           -0.4413245             -12.0091
        61        2.0000           -0.4359713             -11.8634
        62        2.0000           -0.4327205             -11.7749
        63        2.0000           -0.4281872             -11.6516
        64        2.0000           -0.4241626             -11.5421
        65        2.0000           -0.4181754             -11.3791
        66        2.0000           -0.4180755             -11.3764
        67        2.0000           -0.4161202             -11.3232
        68        2.0000           -0.4021199             -10.9422
        69        2.0000           -0.3756765             -10.2227
        70        2.0000           -0.3609877              -9.8230 (HOMO)
        71                         -0.2974549              -8.0942 (LUMO)
        72                         -0.2698609              -7.3433
        73                         -0.2421546              -6.5894
        74                         -0.2209708              -6.0129
        75                         -0.2118564              -5.7649
        76                         -0.1923744              -5.2348
        77                         -0.1830781              -4.9818
        78                         -0.1668301              -4.5397
        79                         -0.1418381              -3.8596
        80                         -0.1221640              -3.3243
        81                         -0.0966282              -2.6294
       ...                                ...                  ...
       135                          1.2327284              33.5442
      -------------------------------------------------------------
                  HL-Gap            0.0635328 Eh            1.7288 eV

     #   Z          covCN         q      C6AA      α(0)
     1   8 O        0.857    -0.420    22.077     6.300
     2   6 C        2.947     0.281    22.252     7.737
     3   6 C        3.174    -0.027    28.279     8.685
     4   6 C        2.918    -0.006    28.162     8.702
     5   6 C        2.920    -0.014    28.363     8.733
     6   6 C        2.925    -0.011    28.289     8.722
     7   6 C        2.924    -0.012    28.324     8.728
     8   6 C        2.989    -0.094    30.341     9.036
     9  16 S        4.021     1.157   102.260    17.020
    10   8 O        0.860    -0.581    25.667     6.793
    11   8 O        0.860    -0.552    24.965     6.699
    12   7 N        2.752    -0.264    26.834     7.694
    13   6 C        3.777     0.017    20.319     6.422
    14   6 C        3.801    -0.082    22.066     6.688
    15   6 C        3.739    -0.003    20.710     6.494
    16   7 N        2.796    -0.058    22.360     7.023
    17   6 C        3.078     0.044    26.941     8.510
    18   6 C        2.910    -0.049    29.208     8.862
    19   6 C        2.923    -0.032    28.796     8.800
    20   6 C        2.920    -0.044    29.102     8.846
    21   6 C        2.912    -0.040    28.994     8.830
    22   6 C        3.071    -0.028    28.635     8.774
    23   6 C        3.070    -0.030    28.670     8.780
    24   6 C        2.912    -0.042    29.032     8.835
    25   6 C        2.920    -0.046    29.141     8.852
    26   6 C        2.924    -0.033    28.834     8.806
    27   6 C        2.910    -0.047    29.156     8.854
    28   6 C        3.081     0.043    26.959     8.512
    29   1 H        0.926     0.082     1.956     2.187
    30   1 H        0.926     0.087     1.907     2.160
    31   1 H        0.926     0.089     1.889     2.149
    32   1 H        0.926     0.074     2.043     2.235
    33   1 H        0.924     0.050     2.323     2.383
    34   1 H        0.924     0.081     1.965     2.192
    35   1 H        0.924     0.065     2.137     2.286
    36   1 H        0.924     0.072     2.066     2.248
    37   1 H        0.924     0.062     2.171     2.304
    38   1 H        0.924     0.065     2.145     2.290
    39   1 H        0.926     0.027     2.634     2.538
    40   1 H        0.926     0.032     2.563     2.503
    41   1 H        0.926     0.031     2.574     2.509
    42   1 H        0.926     0.032     2.561     2.502
    43   1 H        0.926     0.031     2.570     2.507
    44   1 H        0.926     0.030     2.581     2.512
    45   1 H        0.926     0.031     2.567     2.506
    46   1 H        0.926     0.032     2.558     2.501

molecular dipole:
                 x           y           z       tot (Debye)
 q only:        0.524       0.921      -0.941
   full:        0.357       0.720      -0.739       2.776

 projected vibrational frequencies (cm⁻¹)
eigval :       -0.00    -0.00    -0.00     0.00     0.00     0.00
eigval :        9.05    31.30    38.75    48.55    74.66    93.88
eigval :      105.98   107.80   127.96   145.73   156.38   174.56
eigval :      200.32   216.60   223.05   246.77   275.75   279.29
eigval :      307.87   314.48   340.12   365.45   384.02   391.15
eigval :      394.58   424.52   428.52   444.88   477.26   488.89
eigval :      491.35   519.12   531.01   533.04   539.74   549.60
eigval :      560.37   577.58   592.36   637.32   664.31   673.44
eigval :      704.14   708.14   715.09   726.69   758.42   763.34
eigval :      773.96   783.09   833.53   859.78   862.52   864.78
eigval :      876.42   883.56   896.05   897.83   914.05   916.23
eigval :      917.18   919.02   931.67   942.52   991.24  1002.32
eigval :     1026.17  1060.24  1061.80  1070.08  1074.56  1095.45
eigval :     1114.69  1118.67  1145.11  1153.53  1158.12  1164.24
eigval :     1177.28  1183.87  1190.25  1204.68  1212.83  1225.59
eigval :     1230.92  1232.94  1242.80  1247.17  1298.57  1307.70
eigval :     1319.60  1324.22  1332.28  1334.71  1342.74  1354.70
eigval :     1362.13  1372.36  1423.05  1427.98  1429.96  1435.12
eigval :     1438.48  1451.02  1457.02  1482.81  1490.29  1565.02
eigval :     1574.44  1589.47  1596.96  1601.11  1617.78  1719.46
eigval :     2922.99  2936.12  2951.56  2988.40  2995.50  3022.52
eigval :     3070.20  3071.89  3075.56  3077.07  3083.05  3085.93
eigval :     3092.15  3095.02  3096.36  3102.59  3110.94  3112.78

   temp. (K)  partition function   enthalpy   heat capacity  entropy
                                   cal/mol     cal/K/mol   cal/K/mol   J/K/mol
 298.15  VIB  0.108E+10            12709.035     83.050     77.427
         ROT  0.869E+07              888.752      2.981     34.734
         INT  0.940E+16            13597.787     86.030    112.160
         TR   0.746E+28             1481.254      4.968     43.758
         TOT                       15079.0411    90.9986   155.9186   652.3635

       T/K    H(0)-H(T)+PV         H(T)/Eh          T*S/Eh         G(T)/Eh
   ------------------------------------------------------------------------
    298.15    0.240300E-01    0.371586E+00    0.740820E-01    0.297504E+00
   ------------------------------------------------------------------------

         :::::::::::::::::::::::::::::::::::::::::::::::::::::
         ::                  THERMODYNAMIC                  ::
         :::::::::::::::::::::::::::::::::::::::::::::::::::::
         :: total free energy         -77.370810655114 Eh   ::
         ::.................................................::
         :: total energy              -77.668314789388 Eh   ::
         :: zero point energy           0.347556125197 Eh   ::
         :: G(RRHO) w/o ZPVE           -0.050051990924 Eh   ::
         :: G(RRHO) contrib.            0.297504134273 Eh   ::
         :::::::::::::::::::::::::::::::::::::::::::::::::::::

           -------------------------------------------------
          | TOTAL ENERGY              -77.668314789388 Eh   |
          | TOTAL ENTHALPY            -77.296728682607 Eh   |
          | TOTAL FREE ENERGY         -77.370810655114 Eh   |
          | GRADIENT NORM               0.000034509674 Eh/α |
          | HOMO-LUMO GAP               1.728815626392 eV   |
           -------------------------------------------------

 * finished run on 2025/08/26 at 00:29:48.279
