   * xtb version 6.7.1 (edcfbbe) compiled by 'albert@albert-system' on 2024-07-22

   ID    Z sym.   atoms
    1    8 O      1, 10, 11
    2    6 C      2-8, 13-15, 17-28
    3   16 S      9
    4    7 N      12, 16
    5    1 H      29-46

          program call               : xtb data2507/toluene/CzPrSBI/CzPrSBI_toluene_S0_finalOpt.xtbopt.xyz --gfn 2 --uhf 2 --gbsa toluene --ohess vtight --parallel 40 --molden --ceasefiles --namespace data2507/toluene/CzPrSBI/CzPrSBI_toluene_T1_preOpt
      * Solvation model:               GBSA
        Solvent                        toluene
        Solvent mass                       9.2140E+01 g/mol
          :  Hamiltonian                  GFN2-xTB          :
 * total energy  :   -77.5635685 Eh     change       -0.3007392E-07 Eh
 * total energy  :   -77.5690864 Eh     change       -0.5517962E-02 Eh
 * total energy  :   -77.5723564 Eh     change       -0.3269954E-02 Eh
 * total energy  :   -77.5730779 Eh     change       -0.7215314E-03 Eh
 * total energy  :   -77.5739339 Eh     change       -0.8559430E-03 Eh
 * total energy  :   -77.5743379 Eh     change       -0.4040450E-03 Eh
 * total energy  :   -77.5747236 Eh     change       -0.3857084E-03 Eh
 * total energy  :   -77.5750265 Eh     change       -0.3028856E-03 Eh
 * total energy  :   -77.5752567 Eh     change       -0.2301948E-03 Eh
 * total energy  :   -77.5754466 Eh     change       -0.1899254E-03 Eh
 * total energy  :   -77.5789572 Eh     change       -0.6828186E-06 Eh
 * total energy  :   -77.5789579 Eh     change       -0.6556279E-06 Eh
 * total energy  :   -77.5789585 Eh     change       -0.6347419E-06 Eh
 * total energy  :   -77.5789591 Eh     change       -0.6236829E-06 Eh
 * total energy  :   -77.5789597 Eh     change       -0.6141567E-06 Eh
 * total energy  :   -77.5789603 Eh     change       -0.6100148E-06 Eh
 * total energy  :   -77.5789609 Eh     change       -0.5997786E-06 Eh
 * total energy  :   -77.5789615 Eh     change       -0.5952831E-06 Eh
 * total energy  :   -77.5789615 Eh     change       -0.4925312E-08 Eh
   *** GEOMETRY OPTIMIZATION CONVERGED AFTER 185 ITERATIONS ***

 final structure:
================
46
 xtb: 6.7.1 (edcfbbe)
O            1.66014444825707       -0.29474212222050        1.95843328743408
C            0.48261168658997        0.26873681045163        1.66847090601538
C            0.22674796208474        1.59520621409527        1.30486560438256
C            1.12926009023568        2.68126549953835        1.24795243353754
C            0.67286416351089        3.91547111895049        0.85689180950651
C           -0.66779850493975        4.12896711269224        0.51769864874025
C           -1.57844503690187        3.08077550446165        0.58451950710791
C           -1.12806633146377        1.84603117128814        0.97655597213019
S           -2.02398599031424        0.34068175645563        1.15969572595726
O           -2.96395648188834        0.33412883107310        2.25280180940608
O           -2.51668706735148       -0.20990134272331       -0.07639511447077
N           -0.64213444571580       -0.52818080278518        1.63603716229623
C           -0.73246108060326       -1.85555614537383        2.18458620548955
C           -0.83247808287244       -2.91955840002601        1.08908858978289
C            0.46447413801534       -3.05479785640092        0.27887092956784
N            0.70025334643234       -1.93319161572278       -0.59054328380846
C            1.60351573050822       -0.92574138832723       -0.41970470687722
C            2.48946701166092       -0.70908773283250        0.74142658494616
C            3.48940175472490        0.35217286107742        0.45742599411752
C            3.39785468270895        1.19092687445510       -0.61104395986514
C            2.40027199280643        1.05788467990752       -1.59056672356373
C            1.52232326196215       -0.02051278673973       -1.48712871977183
C            0.48275247843850       -0.51260540706258       -2.35042896627468
C           -0.06357620498403       -0.06158535010821       -3.54392032168493
C           -1.07052410231226       -0.80387301489570       -4.12925865373733
C           -1.52616550293008       -1.98450555461624       -3.54554848095571
C           -0.99768943931364       -2.45317523774573       -2.35854075433313
C            0.00403961504139       -1.70340853920703       -1.75821835295724
H            2.16000708035480        2.52119815463995        1.51938817953023
H            1.36232733153184        4.74517521546193        0.81188831820458
H           -0.99765947050359        5.10832404162717        0.21122958046136
H           -2.61915102161050        3.22259722434751        0.33687523923996
H           -1.63595260246586       -1.87906053579542        2.80348623706860
H            0.14548579042997       -2.02442281569443        2.81602582719723
H           -1.65459599701292       -2.64989090295244        0.42411505236130
H           -1.05443583022965       -3.87885516153725        1.55761588759345
H            0.40487389861791       -3.95580793363346       -0.34073931543752
H            1.31344837177331       -3.15599015043739        0.95897910106223
H            2.96508700995937       -1.62143397461231        1.12240414088646
H            4.26509880235203        0.47955117317945        1.19595322341839
H            4.12984371464964        1.97798977774272       -0.72217021503436
H            2.33491772104773        1.74973995147237       -2.41306636364852
H            0.29042165857011        0.85090947533429       -3.99945307553205
H           -1.51531091221910       -0.46777889252590       -5.05446320660339
H           -2.31304902248895       -2.54300218593187       -4.03085661222354
H           -1.36385459822687       -3.36866939988652       -1.92073091129497

          :  Hamiltonian                  GFN2-xTB          :
         :: gradient norm              0.000062738210 Eh/a0 ::
         :: HOMO-LUMO gap              1.735083743901 eV    ::
         :: SCC energy               -78.708870181758 Eh    ::
         :: -> dispersion             -0.070910511773 Eh    ::
         :: -> Gsolv                  -0.030417365399 Eh    ::
         :: repulsion energy           1.129908632678 Eh    ::

    * Orbital Energies and Occupations

         #    Occupation            Energy/Eh            Energy/eV
      -------------------------------------------------------------
         1        2.0000           -0.7875820             -21.4312
       ...           ...                  ...                  ...
        59        2.0000           -0.4440911             -12.0843
        60        2.0000           -0.4404810             -11.9861
        61        2.0000           -0.4304148             -11.7122
        62        2.0000           -0.4262699             -11.5994
        63        2.0000           -0.4260251             -11.5927
        64        2.0000           -0.4225694             -11.4987
        65        2.0000           -0.4199342             -11.4270
        66        2.0000           -0.4178790             -11.3711
        67        2.0000           -0.4157031             -11.3119
        68        2.0000           -0.3901275             -10.6159
        69        2.0000           -0.3820552             -10.3962
        70        1.0000           -0.3247754              -8.8376
        71        1.0000           -0.3098392              -8.4312 (HOMO)
        72                         -0.2460761              -6.6961 (LUMO)
        73                         -0.2390369              -6.5045
        74                         -0.2133826              -5.8064
        75                         -0.2063190              -5.6142
        76                         -0.1929020              -5.2491
        77                         -0.1550007              -4.2178
        78                         -0.1392994              -3.7905
        79                         -0.1242308              -3.3805
        80                         -0.1120769              -3.0498
        81                         -0.0781050              -2.1253
        82                         -0.0730723              -1.9884
       ...                                ...                  ...
       135                          1.2133541              33.0170
      -------------------------------------------------------------
                  HL-Gap            0.0637632 Eh            1.7351 eV

     #   Z          covCN         q      C6AA      α(0)
     1   8 O        1.679    -0.326    19.466     5.956
     2   6 C        2.973     0.178    24.173     8.065
     3   6 C        3.141    -0.035    28.630     8.756
     4   6 C        2.914    -0.028    28.710     8.786
     5   6 C        2.915    -0.025    28.636     8.775
     6   6 C        2.922    -0.038    28.933     8.821
     7   6 C        2.925    -0.019    28.471     8.750
     8   6 C        2.998    -0.115    30.902     9.119
     9  16 S        3.999     1.114   103.447    17.118
    10   8 O        0.860    -0.586    25.775     6.807
    11   8 O        0.860    -0.578    25.572     6.780
    12   7 N        2.753    -0.248    26.452     7.639
    13   6 C        3.776     0.016    20.331     6.424
    14   6 C        3.802    -0.077    21.968     6.673
    15   6 C        3.740    -0.006    20.765     6.502
    16   7 N        2.802    -0.021    21.649     6.910
    17   6 C        3.079     0.016    27.558     8.606
    18   6 C        3.724     0.103    18.986     6.222
    19   6 C        2.906    -0.066    29.651     8.929
    20   6 C        2.907    -0.033    28.824     8.803
    21   6 C        2.909    -0.047    29.176     8.857
    22   6 C        3.063    -0.022    28.496     8.754
    23   6 C        3.081    -0.018    28.358     8.730
    24   6 C        2.912    -0.033    28.826     8.804
    25   6 C        2.920    -0.038    28.951     8.823
    26   6 C        2.924    -0.033    28.826     8.805
    27   6 C        2.910    -0.045    29.110     8.847
    28   6 C        3.090     0.041    26.982     8.514
    29   1 H        0.926     0.058     2.218     2.329
    30   1 H        0.926     0.060     2.197     2.318
    31   1 H        0.926     0.058     2.221     2.330
    32   1 H        0.926     0.047     2.362     2.403
    33   1 H        0.924     0.055     2.254     2.348
    34   1 H        0.924     0.077     2.009     2.217
    35   1 H        0.924     0.064     2.149     2.292
    36   1 H        0.924     0.075     2.036     2.231
    37   1 H        0.924     0.073     2.058     2.243
    38   1 H        0.924     0.070     2.091     2.261
    39   1 H        0.924     0.060     2.198     2.319
    40   1 H        0.926     0.042     2.419     2.432
    41   1 H        0.926     0.043     2.403     2.424
    42   1 H        0.926     0.039     2.468     2.456
    43   1 H        0.926     0.037     2.487     2.466
    44   1 H        0.926     0.035     2.513     2.479
    45   1 H        0.926     0.037     2.491     2.468
    46   1 H        0.926     0.039     2.464     2.455

molecular dipole:
                 x           y           z       tot (Debye)
 q only:        1.991      -0.671      -0.403
   full:        1.793      -0.823      -0.214       5.043

 projected vibrational frequencies (cm⁻¹)
eigval :       -0.00    -0.00    -0.00     0.00     0.00     0.00
eigval :       20.35    32.52    49.38    59.87    82.13   102.12
eigval :      118.75   136.36   144.87   165.25   185.27   207.75
eigval :      212.75   229.39   238.81   268.00   281.16   303.36
eigval :      331.20   352.36   359.30   371.34   388.65   400.00
eigval :      415.89   430.12   442.36   460.70   480.44   488.50
eigval :      503.95   513.24   527.65   531.91   540.45   551.56
eigval :      569.20   572.22   583.22   625.86   647.89   652.89
eigval :      677.82   694.38   701.02   727.73   731.00   756.70
eigval :      764.27   770.02   792.38   808.43   836.86   852.39
eigval :      865.08   885.21   897.96   898.62   899.70   912.80
eigval :      918.16   919.65   937.26   957.64   981.65  1012.14
eigval :     1012.72  1047.81  1056.08  1069.75  1080.63  1099.14
eigval :     1103.25  1115.24  1126.77  1148.93  1158.31  1167.08
eigval :     1171.77  1175.42  1190.46  1201.81  1203.83  1209.83
eigval :     1217.64  1231.45  1234.43  1243.20  1280.24  1289.83
eigval :     1317.05  1323.60  1328.42  1338.03  1341.54  1360.54
eigval :     1365.43  1373.52  1374.43  1406.79  1417.19  1429.81
eigval :     1431.52  1446.85  1448.56  1451.89  1471.99  1485.46
eigval :     1492.65  1521.75  1560.10  1571.42  1585.69  1603.09
eigval :     2876.22  2935.78  2945.39  2947.70  2980.79  3001.96
eigval :     3009.71  3073.73  3074.67  3080.77  3087.39  3088.75
eigval :     3090.30  3096.10  3097.56  3107.62  3111.75  3116.42

   temp. (K)  partition function   enthalpy   heat capacity  entropy
                                   cal/mol     cal/K/mol   cal/K/mol   J/K/mol
 298.15  VIB  0.107E+09            12382.818     83.751     73.555
         ROT  0.940E+07              888.752      2.981     34.890
         INT  0.100E+16            13271.570     86.732    108.445
         TR   0.746E+28             1481.254      4.968     43.758
         TOT                       14752.8242    91.7001   152.2032   636.8180

       T/K    H(0)-H(T)+PV         H(T)/Eh          T*S/Eh         G(T)/Eh
   ------------------------------------------------------------------------
    298.15    0.235101E-01    0.369298E+00    0.723166E-01    0.296981E+00
   ------------------------------------------------------------------------

         :::::::::::::::::::::::::::::::::::::::::::::::::::::
         ::                  THERMODYNAMIC                  ::
         :::::::::::::::::::::::::::::::::::::::::::::::::::::
         :: total free energy         -77.281980099349 Eh   ::
         ::.................................................::
         :: total energy              -77.578961547301 Eh   ::
         :: zero point energy           0.345787960665 Eh   ::
         :: G(RRHO) w/o ZPVE           -0.048806512712 Eh   ::
         :: G(RRHO) contrib.            0.296981447953 Eh   ::
         :::::::::::::::::::::::::::::::::::::::::::::::::::::

           -------------------------------------------------
          | TOTAL ENERGY              -77.578961547301 Eh   |
          | TOTAL ENTHALPY            -77.209663464773 Eh   |
          | TOTAL FREE ENERGY         -77.281980099349 Eh   |
          | GRADIENT NORM               0.000062741334 Eh/α |
          | HOMO-LUMO GAP               1.735083951019 eV   |
           -------------------------------------------------

 * finished run on 2025/08/26 at 00:29:55.698
