   * xtb version 6.7.1 (edcfbbe) compiled by 'albert@albert-system' on 2024-07-22

   ID    Z sym.   atoms
    1    8 O      1, 10, 11
    2    6 C      2-8, 13-15, 17-28
    3   16 S      9
    4    7 N      12, 16
    5    1 H      29-46

          program call               : xtb data2507/toluene/CzPrSBI/CzPrSBI.xyz --gfn 2 --gbsa toluene --ohess vtight --parallel 40 --molden --ceasefiles --namespace data2507/toluene/CzPrSBI/CzPrSBI_toluene_S0_preOpt
      * Solvation model:               GBSA
        Solvent                        toluene
        Solvent mass                       9.2140E+01 g/mol
          :  Hamiltonian                  GFN2-xTB          :
 * total energy  :   -77.6473423 Eh     change       -0.6001954E-09 Eh
 * total energy  :   -77.6577934 Eh     change       -0.1045108E-01 Eh
 * total energy  :   -77.6608693 Eh     change       -0.3075846E-02 Eh
 * total energy  :   -77.6615178 Eh     change       -0.6485661E-03 Eh
 * total energy  :   -77.6619130 Eh     change       -0.3952130E-03 Eh
 * total energy  :   -77.6619946 Eh     change       -0.8153422E-04 Eh
 * total energy  :   -77.6620454 Eh     change       -0.5084425E-04 Eh
 * total energy  :   -77.6620810 Eh     change       -0.3555649E-04 Eh
 * total energy  :   -77.6621134 Eh     change       -0.3237563E-04 Eh
 * total energy  :   -77.6621444 Eh     change       -0.3103295E-04 Eh
 * total energy  :   -77.6637478 Eh     change       -0.1810491E-05 Eh
 * total energy  :   -77.6637493 Eh     change       -0.1506253E-05 Eh
 * total energy  :   -77.6637504 Eh     change       -0.1173169E-05 Eh
 * total energy  :   -77.6637514 Eh     change       -0.9964343E-06 Eh
 * total energy  :   -77.6637523 Eh     change       -0.9109798E-06 Eh
 * total energy  :   -77.6637533 Eh     change       -0.9405076E-06 Eh
 * total energy  :   -77.6637544 Eh     change       -0.1072044E-05 Eh
 * total energy  :   -77.6637556 Eh     change       -0.1273046E-05 Eh
 * total energy  :   -77.6637556 Eh     change       -0.7692620E-08 Eh
   *** GEOMETRY OPTIMIZATION CONVERGED AFTER 122 ITERATIONS ***

 final structure:
================
46
 xtb: 6.7.1 (edcfbbe)
O            2.70157789070285       -0.65247689527194        2.60251267462326
C            2.93488791570208       -0.63506548993000        1.41241528217169
C            4.04575546179470        0.10158117975564        0.75905424925762
C            4.95065099115481        0.93173239386137        1.40675527829570
C            5.95638048890845        1.52884962082027        0.65993766943923
C            6.05906573639248        1.30299226154279       -0.70534231136138
C            5.15382229646460        0.47263306452961       -1.35975758241714
C            4.16430202682159       -0.11526796954544       -0.60607105661170
S            2.83387524746485       -1.17645703280877       -1.11213977027429
O            1.88588892992875       -0.47695758432239       -1.93030853408841
O            3.23751646142141       -2.47488632884482       -1.56271578683580
N            2.22265843265560       -1.32011978828925        0.47295435074021
C            1.18197073490925       -2.26664095280619        0.82350244876322
C           -0.20197335407448       -1.62012512156990        0.89937957862734
C           -0.81446722053985       -1.36172602926844       -0.48593241126225
N           -1.94120457133641       -0.47359502025297       -0.40461685763441
C           -1.87150378822419        0.89823199889449       -0.46728626836506
C           -0.77595250570377        1.71728177624284       -0.70893783020232
C           -0.98546525854702        3.08314825517611       -0.72714380403364
C           -2.24938559674640        3.63035484372722       -0.51030790762179
C           -3.34344992002182        2.82134944536128       -0.27619906366106
C           -3.16014337942967        1.44433028109203       -0.25270117277155
C           -4.04142136158761        0.33027576928569       -0.04352156221086
C           -5.40354399593741        0.21951420484583        0.20613083963005
C           -5.94841547942205       -1.03958889670935        0.36225368779717
C           -5.15232154195526       -2.18030219584120        0.27514060969845
C           -3.79526435332160       -2.09621058345381        0.02913967411319
C           -3.23995619219079       -0.83397429222069       -0.13436912475010
H            4.85578416469521        1.09461680678119        2.46908420614780
H            6.66713004558823        2.17736795359833        1.14838779680204
H            6.84819885365996        1.77415172606286       -1.27034052502444
H            5.21845871157371        0.28843655211455       -2.41994616637711
H            1.44500260912583       -2.68589524148773        1.79992303470247
H            1.20998700917450       -3.05460197948847        0.06669044654906
H           -0.11544551721438       -0.67414923765986        1.43858364437850
H           -0.86146008165342       -2.27163886655157        1.47478242782754
H           -1.13844000823985       -2.30599601425687       -0.93232995725660
H           -0.06825656020987       -0.91391901052629       -1.14565454276768
H            0.20552593082950        1.30549375778112       -0.89304235581842
H           -0.15047373865250        3.74322359309184       -0.91375903288759
H           -2.37011867933782        4.70373815952027       -0.53046087804395
H           -4.32285995594471        3.24653140867737       -0.11399703817170
H           -6.02098182455490        1.10294594086375        0.27444251152789
H           -7.00576944053560       -1.14744541908942        0.55553003943611
H           -5.60730901124563       -3.15186350277677        0.40383353698017
H           -3.19285660231363       -2.98988054064586       -0.03355344701277

          :  Hamiltonian                  GFN2-xTB          :
         :: gradient norm              0.000073218861 Eh/a0 ::
         :: HOMO-LUMO gap              1.562432323819 eV    ::
         :: SCC energy               -78.839136683720 Eh    ::
         :: -> dispersion             -0.059724864846 Eh    ::
         :: -> Gsolv                  -0.035333926658 Eh    ::
         :: repulsion energy           1.175381049275 Eh    ::

    * Orbital Energies and Occupations

         #    Occupation            Energy/Eh            Energy/eV
      -------------------------------------------------------------
         1        2.0000           -0.8106334             -22.0585
       ...           ...                  ...                  ...
        58        2.0000           -0.4512511             -12.2792
        59        2.0000           -0.4486803             -12.2092
        60        2.0000           -0.4420579             -12.0290
        61        2.0000           -0.4361213             -11.8675
        62        2.0000           -0.4345043             -11.8235
        63        2.0000           -0.4317287             -11.7479
        64        2.0000           -0.4289388             -11.6720
        65        2.0000           -0.4189043             -11.3990
        66        2.0000           -0.4162821             -11.3276
        67        2.0000           -0.4148247             -11.2880
        68        2.0000           -0.4020788             -10.9411
        69        2.0000           -0.3753271             -10.2132
        70        2.0000           -0.3603486              -9.8056 (HOMO)
        71                         -0.3029303              -8.2432 (LUMO)
        72                         -0.2746274              -7.4730
        73                         -0.2418337              -6.5806
        74                         -0.2187999              -5.9538
        75                         -0.2162641              -5.8848
        76                         -0.1915005              -5.2110
        77                         -0.1830418              -4.9808
        78                         -0.1749889              -4.7617
        79                         -0.1454775              -3.9586
        80                         -0.1326901              -3.6107
        81                         -0.1037248              -2.8225
       ...                                ...                  ...
       135                          1.2233974              33.2903
      -------------------------------------------------------------
                  HL-Gap            0.0574183 Eh            1.5624 eV

     #   Z          covCN         q      C6AA      α(0)
     1   8 O        0.858    -0.415    21.977     6.285
     2   6 C        2.918     0.276    22.355     7.753
     3   6 C        3.157    -0.029    28.395     8.713
     4   6 C        2.918    -0.006    28.160     8.702
     5   6 C        2.919    -0.013    28.345     8.731
     6   6 C        2.925    -0.010    28.261     8.718
     7   6 C        2.925    -0.011    28.299     8.724
     8   6 C        2.988    -0.093    30.320     9.032
     9  16 S        3.971     1.155   102.313    17.024
    10   8 O        0.860    -0.568    25.353     6.751
    11   8 O        0.860    -0.565    25.269     6.740
    12   7 N        2.750    -0.261    26.750     7.682
    13   6 C        3.771     0.013    20.384     6.434
    14   6 C        3.801    -0.072    21.875     6.659
    15   6 C        3.740    -0.012    20.866     6.518
    16   7 N        2.797    -0.050    22.205     6.999
    17   6 C        3.081     0.044    26.930     8.508
    18   6 C        2.909    -0.055    29.370     8.886
    19   6 C        2.924    -0.036    28.904     8.817
    20   6 C        2.919    -0.045    29.112     8.848
    21   6 C        2.912    -0.036    28.890     8.814
    22   6 C        3.069    -0.020    28.442     8.745
    23   6 C        3.069    -0.020    28.434     8.744
    24   6 C        2.912    -0.035    28.871     8.811
    25   6 C        2.919    -0.044    29.105     8.847
    26   6 C        2.923    -0.036    28.891     8.815
    27   6 C        2.910    -0.055    29.365     8.886
    28   6 C        3.080     0.043    26.940     8.509
    29   1 H        0.926     0.086     1.916     2.165
    30   1 H        0.926     0.089     1.890     2.150
    31   1 H        0.926     0.090     1.875     2.141
    32   1 H        0.926     0.076     2.016     2.221
    33   1 H        0.924     0.079     1.986     2.204
    34   1 H        0.924     0.058     2.220     2.330
    35   1 H        0.924     0.059     2.209     2.324
    36   1 H        0.924     0.068     2.107     2.270
    37   1 H        0.924     0.055     2.260     2.351
    38   1 H        0.924     0.067     2.114     2.274
    39   1 H        0.926     0.026     2.649     2.545
    40   1 H        0.926     0.027     2.624     2.533
    41   1 H        0.926     0.028     2.618     2.530
    42   1 H        0.926     0.031     2.579     2.511
    43   1 H        0.926     0.030     2.592     2.517
    44   1 H        0.926     0.027     2.629     2.535
    45   1 H        0.926     0.030     2.590     2.516
    46   1 H        0.926     0.028     2.612     2.527

molecular dipole:
                 x           y           z       tot (Debye)
 q only:        2.309       0.859       0.235
   full:        2.367       0.625       0.114       6.228

 projected vibrational frequencies (cm⁻¹)
eigval :       -0.00    -0.00     0.00     0.00     0.00     0.00
eigval :        4.54    13.46    26.87    39.11    55.45    64.82
eigval :       91.94   100.14   104.51   140.36   147.08   155.51
eigval :      199.88   219.54   231.38   243.74   271.67   276.35
eigval :      294.94   320.83   334.54   357.03   373.72   388.35
eigval :      394.45   409.60   424.90   435.63   476.04   486.27
eigval :      498.29   518.70   529.35   530.21   540.99   541.61
eigval :      559.35   590.18   611.31   635.74   663.49   674.30
eigval :      706.99   709.57   714.05   744.35   764.70   765.23
eigval :      776.82   787.82   790.67   829.96   861.90   867.48
eigval :      870.21   889.31   897.62   899.58   917.57   918.84
eigval :      919.84   922.32   933.18   970.31   998.22  1022.70
eigval :     1052.76  1062.66  1064.69  1071.09  1075.15  1089.19
eigval :     1097.95  1115.76  1145.66  1153.65  1158.71  1164.02
eigval :     1168.98  1182.68  1183.28  1205.11  1224.84  1230.50
eigval :     1234.60  1241.35  1244.65  1266.23  1293.83  1297.68
eigval :     1309.02  1325.24  1327.40  1333.60  1350.70  1351.75
eigval :     1362.33  1373.19  1422.40  1423.07  1428.35  1428.40
eigval :     1440.17  1463.42  1470.91  1482.21  1487.73  1561.50
eigval :     1572.33  1588.20  1595.20  1598.81  1615.36  1716.12
eigval :     2945.78  2962.59  2967.71  2988.43  2996.13  3010.38
eigval :     3068.66  3069.37  3074.61  3075.10  3082.13  3082.86
eigval :     3088.86  3091.31  3096.84  3102.68  3108.35  3112.82

   temp. (K)  partition function   enthalpy   heat capacity  entropy
                                   cal/mol     cal/K/mol   cal/K/mol   J/K/mol
 298.15  VIB  0.234E+11            12945.269     82.182     80.953
         ROT  0.165E+08              888.752      2.981     36.005
         INT  0.386E+18            13834.021     85.163    116.957
         TR   0.746E+28             1481.254      4.968     43.758
         TOT                       15315.2749    90.1314   160.7156   672.4342

       T/K    H(0)-H(T)+PV         H(T)/Eh          T*S/Eh         G(T)/Eh
   ------------------------------------------------------------------------
    298.15    0.244064E-01    0.371673E+00    0.763612E-01    0.295312E+00
   ------------------------------------------------------------------------

         :::::::::::::::::::::::::::::::::::::::::::::::::::::
         ::                  THERMODYNAMIC                  ::
         :::::::::::::::::::::::::::::::::::::::::::::::::::::
         :: total free energy         -77.368443816834 Eh   ::
         ::.................................................::
         :: total energy              -77.663755636827 Eh   ::
         :: zero point energy           0.347266561678 Eh   ::
         :: G(RRHO) w/o ZPVE           -0.051954741685 Eh   ::
         :: G(RRHO) contrib.            0.295311819993 Eh   ::
         :::::::::::::::::::::::::::::::::::::::::::::::::::::

           -------------------------------------------------
          | TOTAL ENERGY              -77.663755636827 Eh   |
          | TOTAL ENTHALPY            -77.292082631015 Eh   |
          | TOTAL FREE ENERGY         -77.368443816834 Eh   |
          | GRADIENT NORM               0.000073211671 Eh/α |
          | HOMO-LUMO GAP               1.562432103518 eV   |
           -------------------------------------------------

 * finished run on 2025/08/26 at 00:26:43.645
