   * xtb version 6.7.1 (edcfbbe) compiled by 'albert@albert-system' on 2024-07-22

   ID    Z sym.   atoms
    1    6 C      1-4, 6-14, 18-33
    2    7 N      5, 17
    3   16 S      15, 16
    4    1 H      34-51

          program call               : xtb data2507/gas/PID-3/PID-3_gas_T1_crest.xyz --gfn 2 --spinpol --tblite --uhf 2 --ohess vtight --parallel 40 --molden --ceasefiles --namespace data2507/gas/PID-3/PID-3_gas_T1_finalOpt
 * total energy  :   -83.5885831 Eh     change       -0.4998157E-08 Eh
 * total energy  :   -83.5886015 Eh     change       -0.1840257E-04 Eh
 * total energy  :   -83.5886104 Eh     change       -0.8849927E-05 Eh
 * total energy  :   -83.5886120 Eh     change       -0.1622114E-05 Eh
 * total energy  :   -83.5886137 Eh     change       -0.1687876E-05 Eh
 * total energy  :   -83.5886153 Eh     change       -0.1576809E-05 Eh
 * total energy  :   -83.5886174 Eh     change       -0.2175608E-05 Eh
 * total energy  :   -83.5886191 Eh     change       -0.1626215E-05 Eh
 * total energy  :   -83.5886202 Eh     change       -0.1112193E-05 Eh
 * total energy  :   -83.5886212 Eh     change       -0.1010054E-05 Eh
 * total energy  :   -83.5886246 Eh     change       -0.4523776E-06 Eh
 * total energy  :   -83.5886252 Eh     change       -0.5299572E-06 Eh
 * total energy  :   -83.5886259 Eh     change       -0.6977749E-06 Eh
 * total energy  :   -83.5886266 Eh     change       -0.6973072E-06 Eh
 * total energy  :   -83.5886273 Eh     change       -0.7190618E-06 Eh
 * total energy  :   -83.5886280 Eh     change       -0.6830798E-06 Eh
 * total energy  :   -83.5886286 Eh     change       -0.6281462E-06 Eh
 * total energy  :   -83.5886286 Eh     change        0.3100516E-07 Eh
 * total energy  :   -83.5886286 Eh     change       -0.3573341E-07 Eh
   *** GEOMETRY OPTIMIZATION CONVERGED AFTER 23 ITERATIONS ***

 final structure:
================
51
 xtb: 6.7.1 (edcfbbe)
C            1.17813907723727        4.11807742120366        0.02867012347823
C            0.68090918712634        3.57175920691279        1.20087946277887
C            0.02799277990877        2.35366438293759        1.17742517190358
C           -0.12812291972891        1.68188624761996       -0.02997792488082
N           -0.77425892516251        0.42762245995018       -0.05726249140161
C           -0.11778508080268       -0.80551604398846       -0.07453044974489
C            1.25186154913189       -1.00868787096689       -0.06981101100193
C            1.86383647069508       -2.29760455410605       -0.07316343513865
C            3.21709147258940       -2.26629707770021       -0.03686566832731
C            3.76448179045387       -0.95028835021262       -0.00363808861495
C            5.08848103525756       -0.57509238548716        0.03740924703122
C            5.62660705505586        0.72553141531608        0.07000557782550
C            7.01148242313853        0.74048903654850        0.10621101854557
C            7.57256777308541       -0.51454760915906        0.10293787077093
S            6.38970039491759       -1.76626883094256        0.05475409912350
S            2.47210193198696        0.25675334283392       -0.02563616744168
N           -0.99971685682691       -1.81836734304403       -0.06782182212156
C           -2.20984502117186       -1.25609421435693       -0.03789995240025
C           -3.47699755069408       -1.90812712528475       -0.00266596795845
C           -3.56390459948188       -3.30309478630301        0.00701076001666
C           -4.78935199696996       -3.92286546867517        0.05606626413374
C           -5.94400296293928       -3.14630217481145        0.09804034227673
C           -5.86946173287376       -1.77118162809994        0.08633664531489
C           -4.63837131536610       -1.10213546561200        0.03279902334996
C           -4.53026272716179        0.34756555823685        0.00730969361482
C           -5.66132931972391        1.17166482390845        0.01060618762258
C           -5.56648600970926        2.54465839806941       -0.02799164374716
C           -4.31819116110538        3.16006292133737       -0.07913469990836
C           -3.18221514184022        2.39147465564601       -0.08131404272293
C           -3.25595098996759        0.98794721640885       -0.03187383796953
C           -2.11368535434754        0.15443016712368       -0.03179807102977
C            0.37020586246527        2.22766004217250       -1.20767617380371
C            1.02182962383635        3.44702697999473       -1.17226817932640
H            1.69005776304428        5.06824821695515        0.05255026655050
H            0.80586151712519        4.09325892049447        2.13781866468910
H           -0.36353773254250        1.91571780378463        2.08371662370624
H            1.24978263150400       -3.17826656417261       -0.10029155442161
H            3.86148694365766       -3.12736978973375       -0.03106215143486
H            4.99493714333876        1.59533121020431        0.06611133142048
H            7.60192355249440        1.63951322249230        0.13424420540161
H            8.61105285711210       -0.77651842968979        0.12589960589230
H           -2.64331830743908       -3.86468129299208       -0.02276215698324
H           -4.86054014464058       -5.00019540676177        0.06434192522520
H           -6.91111502242620       -3.62615929660881        0.14031747344617
H           -6.79171444023522       -1.21345550045927        0.12147500100522
H           -6.64551897601986        0.73278198253114        0.04057083519904
H           -6.46360553075107        3.14574361709367       -0.02348306156052
H           -4.24465840067877        4.23661614254441       -0.11838052311118
H           -2.21553551556840        2.86729975957713       -0.12821577396926
H            0.24444094964551        1.69237730514273       -2.13689925487005
H            1.41046050696721        3.87163585352788       -2.08544460183227

 projected vibrational frequencies (cm⁻¹)
eigval :       -0.00    -0.00    -0.00     0.00     0.00     0.00
eigval :       15.60    18.23    29.93    34.19    38.57    56.84
eigval :       60.70    74.63    86.27    94.93   105.17   126.92
eigval :      151.30   153.98   178.30   204.14   224.11   240.12
eigval :      249.22   260.95   269.58   326.34   334.52   369.87
eigval :      371.94   378.37   395.12   402.97   407.75   429.55
eigval :      437.14   446.65   453.99   486.02   506.62   516.51
eigval :      518.13   529.87   540.58   571.81   584.83   586.25
eigval :      621.96   624.67   640.07   650.97   662.88   663.44
eigval :      667.52   676.11   677.85   694.58   702.03   713.18
eigval :      732.81   749.19   760.03   762.81   779.76   780.99
eigval :      783.29   821.83   837.96   846.70   850.85   860.01
eigval :      871.39   873.08   899.25   905.71   908.04   915.29
eigval :      920.93   925.69   925.87   931.23   933.97   978.47
eigval :     1007.84  1043.26  1066.06  1072.55  1078.30  1084.16
eigval :     1090.12  1100.57  1105.68  1114.60  1119.78  1145.03
eigval :     1153.03  1165.24  1179.35  1180.45  1182.11  1184.77
eigval :     1187.05  1209.76  1224.51  1248.49  1255.07  1266.36
eigval :     1273.70  1285.33  1294.66  1313.54  1323.11  1336.84
eigval :     1338.05  1353.27  1380.43  1397.17  1413.40  1420.02
eigval :     1431.43  1433.07  1443.79  1465.19  1477.66  1502.72
eigval :     1513.13  1520.06  1538.60  1550.78  1563.64  1580.05
eigval :     1580.78  1592.08  1593.14  3075.20  3079.01  3082.77
eigval :     3085.14  3087.46  3089.30  3090.98  3096.32  3098.67
eigval :     3101.95  3107.36  3111.38  3114.99  3121.11  3128.14
eigval :     3136.19  3152.65  3167.44

   temp. (K)  partition function   enthalpy   heat capacity  entropy
                                   cal/mol     cal/K/mol   cal/K/mol   J/K/mol
 298.15  VIB  0.283E+12            15060.060     95.683     93.137
         ROT  0.300E+08              888.752      2.981     37.194
         INT  0.848E+19            15948.813     98.664    130.331
         TR   0.950E+28             1481.254      4.968     44.238
         TOT                       17430.0664   103.6324   174.5691   730.3970

       T/K    H(0)-H(T)+PV         H(T)/Eh          T*S/Eh         G(T)/Eh
   ------------------------------------------------------------------------
    298.15    0.277766E-01    0.399402E+00    0.829434E-01    0.316459E+00
   ------------------------------------------------------------------------

         :::::::::::::::::::::::::::::::::::::::::::::::::::::
         ::                  THERMODYNAMIC                  ::
         :::::::::::::::::::::::::::::::::::::::::::::::::::::
         :: total free energy         -83.272169796261 Eh   ::
         ::.................................................::
         :: total energy              -83.588628585857 Eh   ::
         :: zero point energy           0.371625608492 Eh   ::
         :: G(RRHO) w/o ZPVE           -0.055166818895 Eh   ::
         :: G(RRHO) contrib.            0.316458789596 Eh   ::
         :::::::::::::::::::::::::::::::::::::::::::::::::::::

           -------------------------------------------------
          | TOTAL ENERGY              -83.588628585857 Eh   |
          | TOTAL ENTHALPY            -83.189226398430 Eh   |
          | TOTAL FREE ENERGY         -83.272169796261 Eh   |
          | GRADIENT NORM               0.000089606092 Eh/α |
           -------------------------------------------------

 * finished run on 2025/07/20 at 00:16:18.364
