   * xtb version 6.7.1 (edcfbbe) compiled by 'albert@albert-system' on 2024-07-22

   ID    Z sym.   atoms
    1    6 C      1-4, 6-14, 18-33
    2    7 N      5, 17
    3   16 S      15, 16
    4    1 H      34-51

          program call               : xtb data2507/gas/PID-3/PID-3_gas_S0_crest.xyz --gfn 2 --ohess vtight --parallel 40 --molden --ceasefiles --namespace data2507/gas/PID-3/PID-3_gas_S0_finalOpt
          :  Hamiltonian                  GFN2-xTB          :
 * total energy  :   -83.6516878 Eh     change       -0.2957520E-08 Eh
 * total energy  :   -83.6516889 Eh     change       -0.1060981E-05 Eh
 * total energy  :   -83.6516906 Eh     change       -0.1695314E-05 Eh
 * total energy  :   -83.6516935 Eh     change       -0.2888484E-05 Eh
 * total energy  :   -83.6516961 Eh     change       -0.2593377E-05 Eh
 * total energy  :   -83.6516974 Eh     change       -0.1360105E-05 Eh
 * total energy  :   -83.6516985 Eh     change       -0.1018171E-05 Eh
 * total energy  :   -83.6516998 Eh     change       -0.1334835E-05 Eh
 * total energy  :   -83.6517008 Eh     change       -0.9844996E-06 Eh
 * total energy  :   -83.6517011 Eh     change       -0.3209699E-06 Eh
 * total energy  :   -83.6517010 Eh     change        0.5552187E-07 Eh
 * total energy  :   -83.6517013 Eh     change       -0.2695872E-06 Eh
 * total energy  :   -83.6517015 Eh     change       -0.1600160E-06 Eh
 * total energy  :   -83.6517017 Eh     change       -0.2118757E-06 Eh
 * total energy  :   -83.6517017 Eh     change       -0.1692015E-07 Eh
   *** GEOMETRY OPTIMIZATION CONVERGED AFTER 15 ITERATIONS ***

 final structure:
================
51
 xtb: 6.7.1 (edcfbbe)
C            1.24157507811678        4.04811923946526       -0.02357120129399
C            0.90101740697266        3.45255751922762        1.17972551410470
C            0.23104751156205        2.24306041329476        1.19146575954534
C           -0.10034669783267        1.63124148974455       -0.01220423265400
N           -0.76640653376069        0.38577193683450       -0.00714327121100
C           -0.15160413279325       -0.84706952282548       -0.00962677869756
C            1.25696749258266       -1.07544262628950       -0.01170955751189
C            1.84748545011099       -2.31798403956639       -0.02015650019789
C            3.24363404599099       -2.26957896567502       -0.01604870888301
C            3.74417205252773       -0.98968009524459       -0.00358712400067
C            5.10469353925162       -0.56610907745152        0.00610886145023
C            5.59541399715179        0.71486919346343        0.02254315962419
C            7.00105064966660        0.76756034853282        0.02976353990843
C            7.57318127405065       -0.46501156332987        0.01917804971077
S            6.40473921867869       -1.72535711914199       -0.00097072280039
S            2.45697585850969        0.18331385482400        0.00176393832268
N           -1.02495348698770       -1.83307033136899       -0.00685175442392
C           -2.24580394270480       -1.24730390216294       -0.00210610744842
C           -3.52150212675349       -1.87919065656184        0.00263780620080
C           -3.63809009161280       -3.27280673318129        0.00129279278701
C           -4.87614435008406       -3.86527267688246        0.00557616374755
C           -6.01672233300825       -3.06509415087256        0.01178291233330
C           -5.91351806902727       -1.69356559029296        0.01342469265526
C           -4.66649289033475       -1.04989597187519        0.00858125497440
C           -4.52730198726987        0.39679110661698        0.00846975669039
C           -5.64300788613599        1.24553189535126        0.01408136811505
C           -5.51812860615387        2.61487010408852        0.01208643173781
C           -4.25721845301234        3.20293812611787        0.00392230655560
C           -3.13765852592727        2.40831708142337       -0.00101412914400
C           -3.24422124565739        1.01013114226284        0.00175200289368
C           -2.11809715003913        0.14292295345426       -0.00211080935596
C            0.24067566569844        2.22653086496585       -1.22147706071320
C            0.91071148018490        3.43601618529771       -1.22123426575164
H            1.76596875137741        4.99176649572353       -0.02798355009176
H            1.15865411651526        3.92999607021264        2.11301611875502
H           -0.04081693501316        1.76747685041740        2.12209888177034
H            1.26209898687479       -3.21827321119389       -0.02873713879173
H            3.87858686330012       -3.13789855198639       -0.02133873951003
H            4.95606328240996        1.58013656643342        0.02912661879253
H            7.56359069892593        1.68390771053904        0.04274836685708
H            8.61459629302519       -0.71780129165876        0.02143291513388
H           -2.72921382412537       -3.85399676268116       -0.00345737406928
H           -4.97085767632377       -4.94109667096852        0.00403156029092
H           -6.99397112688209       -3.52614439001862        0.01530564161580
H           -6.82443528056344       -1.11630510185712        0.01839624469515
H           -6.63618585806854        0.82643029115703        0.02009503685346
H           -6.40193786261147        3.23575632614849        0.01657674430671
H           -4.15859996418717        4.27839053146130        0.00164364151225
H           -2.16057612652482        2.86534221598761       -0.00742805623589
H           -0.02356968181814        1.73787242166256       -2.14754293826586
H            1.17585671192839        3.90045204487837       -2.15896835088948

          :  Hamiltonian                  GFN2-xTB          :
         :: gradient norm              0.000143010555 Eh/a0 ::
         :: HOMO-LUMO gap              1.973117014257 eV    ::
         :: SCC energy               -85.122996674936 Eh    ::
         :: -> dispersion             -0.075279693579 Eh    ::
         :: repulsion energy           1.471294972258 Eh    ::

    * Orbital Energies and Occupations

         #    Occupation            Energy/Eh            Energy/eV
      -------------------------------------------------------------
         1        2.0000           -0.7344010             -19.9841
       ...           ...                  ...                  ...
        66        2.0000           -0.4254036             -11.5758
        67        2.0000           -0.4229195             -11.5082
        68        2.0000           -0.4198350             -11.4243
        69        2.0000           -0.4154913             -11.3061
        70        2.0000           -0.4145219             -11.2797
        71        2.0000           -0.4064546             -11.0602
        72        2.0000           -0.4022704             -10.9463
        73        2.0000           -0.4001922             -10.8898
        74        2.0000           -0.3982681             -10.8374
        75        2.0000           -0.3813823             -10.3779
        76        2.0000           -0.3789704             -10.3123
        77        2.0000           -0.3770863             -10.2610
        78        2.0000           -0.3554542              -9.6724 (HOMO)
        79                         -0.2829435              -7.6993 (LUMO)
        80                         -0.2485836              -6.7643
        81                         -0.2474444              -6.7333
        82                         -0.2470747              -6.7232
        83                         -0.2431706              -6.6170
        84                         -0.2336274              -6.3573
        85                         -0.2115187              -5.7557
        86                         -0.2071077              -5.6357
        87                         -0.1998451              -5.4381
        88                         -0.1882792              -5.1233
        89                         -0.1870685              -5.0904
       ...                                ...                  ...
       160                          0.7296428              19.8546
      -------------------------------------------------------------
                  HL-Gap            0.0725107 Eh            1.9731 eV

     #   Z          covCN         q      C6AA      α(0)
     1   6 C        2.920    -0.028    28.692     8.784
     2   6 C        2.920    -0.025    28.622     8.773
     3   6 C        2.921    -0.034    28.839     8.806
     4   6 C        2.918     0.070    26.442     8.432
     5   7 N        2.840    -0.047    22.137     6.988
     6   6 C        3.209     0.128    24.621     8.078
     7   6 C        2.991     0.013    27.724     8.637
     8   6 C        3.102    -0.041    28.888     8.808
     9   6 C        3.096    -0.047    29.055     8.834
    10   6 C        3.023     0.022    27.481     8.599
    11   6 C        3.026     0.020    27.537     8.608
    12   6 C        3.110    -0.051    29.105     8.838
    13   6 C        3.107    -0.042    28.889     8.806
    14   6 C        2.941    -0.020    28.503     8.756
    15  16 S        2.327    -0.029   142.243    20.073
    16  16 S        2.338    -0.063   143.662    20.173
    17   7 N        1.896    -0.295    28.486     7.913
    18   6 C        3.206     0.060    26.081     8.317
    19   6 C        2.985     0.003    27.956     8.673
    20   6 C        2.922    -0.031    28.764     8.795
    21   6 C        2.917    -0.030    28.748     8.792
    22   6 C        2.917    -0.033    28.811     8.802
    23   6 C        2.922    -0.035    28.861     8.810
    24   6 C        2.979    -0.001    28.047     8.687
    25   6 C        2.980     0.003    27.962     8.674
    26   6 C        2.922    -0.033    28.833     8.806
    27   6 C        2.917    -0.033    28.819     8.803
    28   6 C        2.917    -0.031    28.784     8.798
    29   6 C        2.919    -0.039    28.977     8.827
    30   6 C        2.978    -0.002    28.070     8.691
    31   6 C        3.078     0.023    27.418     8.585
    32   6 C        2.921    -0.034    28.840     8.807
    33   6 C        2.920    -0.025    28.621     8.773
    34   1 H        0.926     0.042     2.428     2.437
    35   1 H        0.926     0.043     2.409     2.427
    36   1 H        0.926     0.044     2.397     2.421
    37   1 H        0.926     0.062     2.177     2.307
    38   1 H        0.926     0.047     2.357     2.401
    39   1 H        0.926     0.040     2.453     2.449
    40   1 H        0.926     0.038     2.470     2.458
    41   1 H        0.926     0.046     2.372     2.409
    42   1 H        0.926     0.050     2.315     2.379
    43   1 H        0.926     0.031     2.576     2.510
    44   1 H        0.926     0.028     2.608     2.525
    45   1 H        0.926     0.031     2.572     2.508
    46   1 H        0.926     0.035     2.519     2.482
    47   1 H        0.926     0.029     2.597     2.520
    48   1 H        0.926     0.027     2.624     2.533
    49   1 H        0.926     0.025     2.657     2.549
    50   1 H        0.926     0.044     2.398     2.422
    51   1 H        0.926     0.043     2.408     2.427

molecular dipole:
                 x           y           z       tot (Debye)
 q only:        0.455       0.910      -0.003
   full:        0.466       1.370      -0.002       3.679

 projected vibrational frequencies (cm⁻¹)
eigval :       -0.00    -0.00    -0.00     0.00     0.00     0.00
eigval :       16.78    21.87    28.14    35.65    39.97    54.67
eigval :       56.29    69.67    80.38    87.37   106.13   132.66
eigval :      152.48   160.64   204.12   205.27   225.03   240.19
eigval :      262.69   263.94   292.93   333.14   343.76   372.08
eigval :      380.01   397.15   401.27   405.33   431.39   437.87
eigval :      452.53   460.21   487.76   495.83   518.36   523.28
eigval :      534.61   540.70   565.30   584.43   589.16   600.20
eigval :      628.35   643.42   649.99   666.90   671.99   676.24
eigval :      681.93   700.52   719.04   722.52   730.34   733.29
eigval :      735.01   761.15   765.76   782.42   784.21   804.41
eigval :      808.24   838.87   847.29   848.70   862.03   866.47
eigval :      872.51   874.88   900.02   907.16   914.30   923.81
eigval :      925.05   926.59   927.20   932.27   939.43   981.05
eigval :     1017.99  1052.77  1069.71  1076.75  1078.39  1083.16
eigval :     1086.16  1107.61  1114.63  1117.34  1147.24  1164.25
eigval :     1170.30  1180.54  1182.92  1185.18  1185.98  1187.95
eigval :     1210.32  1217.80  1252.44  1257.11  1273.67  1283.71
eigval :     1288.63  1312.75  1317.77  1335.62  1339.27  1346.71
eigval :     1369.01  1376.40  1406.00  1419.86  1431.58  1433.01
eigval :     1433.62  1440.15  1445.60  1475.89  1488.65  1514.64
eigval :     1521.02  1539.13  1559.24  1563.17  1570.27  1582.41
eigval :     1594.02  1594.33  1604.10  3072.51  3075.87  3083.09
eigval :     3084.16  3085.34  3086.36  3091.20  3096.50  3097.48
eigval :     3101.85  3106.03  3110.71  3112.30  3123.21  3128.46
eigval :     3133.14  3154.25  3165.96

   temp. (K)  partition function   enthalpy   heat capacity  entropy
                                   cal/mol     cal/K/mol   cal/K/mol   J/K/mol
 298.15  VIB  0.184E+12            14765.508     93.848     91.379
         ROT  0.298E+08              888.752      2.981     37.179
         INT  0.548E+19            15654.261     96.829    128.558
         TR   0.950E+28             1481.254      4.968     44.238
         TOT                       17135.5145   101.7975   172.7954   722.9761

       T/K    H(0)-H(T)+PV         H(T)/Eh          T*S/Eh         G(T)/Eh
   ------------------------------------------------------------------------
    298.15    0.273072E-01    0.401974E+00    0.821007E-01    0.319874E+00
   ------------------------------------------------------------------------

         :::::::::::::::::::::::::::::::::::::::::::::::::::::
         ::                  THERMODYNAMIC                  ::
         :::::::::::::::::::::::::::::::::::::::::::::::::::::
         :: total free energy         -83.331828172301 Eh   ::
         ::.................................................::
         :: total energy              -83.651701702675 Eh   ::
         :: zero point energy           0.374667032734 Eh   ::
         :: G(RRHO) w/o ZPVE           -0.054793502360 Eh   ::
         :: G(RRHO) contrib.            0.319873530374 Eh   ::
         :::::::::::::::::::::::::::::::::::::::::::::::::::::

           -------------------------------------------------
          | TOTAL ENERGY              -83.651701702675 Eh   |
          | TOTAL ENTHALPY            -83.249727489337 Eh   |
          | TOTAL FREE ENERGY         -83.331828172301 Eh   |
          | GRADIENT NORM               0.000143027757 Eh/α |
          | HOMO-LUMO GAP               1.973117528940 eV   |
           -------------------------------------------------

 * finished run on 2025/07/20 at 00:14:05.406
