   * xtb version 6.7.1 (edcfbbe) compiled by 'albert@albert-system' on 2024-07-22

   ID    Z sym.   atoms
    1    6 C      1-4, 6-14, 18-33
    2    7 N      5, 17
    3   16 S      15, 16
    4    1 H      34-51

          program call               : xtb data2507/gas/PID-3/PID-3_gas_S0_finalOpt.xtbopt.xyz --gfn 2 --spinpol --tblite --uhf 2 --ohess vtight --parallel 40 --molden --ceasefiles --namespace data2507/gas/PID-3/PID-3_gas_T1_preOpt
 * total energy  :   -83.5787825 Eh     change       -0.1078674E-07 Eh
 * total energy  :   -83.5864566 Eh     change       -0.7674160E-02 Eh
 * total energy  :   -83.5884909 Eh     change       -0.2034232E-02 Eh
 * total energy  :   -83.5885521 Eh     change       -0.6119951E-04 Eh
 * total energy  :   -83.5885808 Eh     change       -0.2872392E-04 Eh
 * total energy  :   -83.5885904 Eh     change       -0.9585118E-05 Eh
 * total energy  :   -83.5885976 Eh     change       -0.7279421E-05 Eh
 * total energy  :   -83.5886053 Eh     change       -0.7632419E-05 Eh
 * total energy  :   -83.5886122 Eh     change       -0.6878796E-05 Eh
 * total energy  :   -83.5886177 Eh     change       -0.5532295E-05 Eh
 * total energy  :   -83.5886262 Eh     change       -0.1740985E-05 Eh
 * total energy  :   -83.5886274 Eh     change       -0.1197163E-05 Eh
 * total energy  :   -83.5886285 Eh     change       -0.1094733E-05 Eh
 * total energy  :   -83.5886296 Eh     change       -0.1090608E-05 Eh
 * total energy  :   -83.5886307 Eh     change       -0.1133609E-05 Eh
 * total energy  :   -83.5886319 Eh     change       -0.1218297E-05 Eh
 * total energy  :   -83.5886327 Eh     change       -0.7995781E-06 Eh
 * total energy  :   -83.5886330 Eh     change       -0.2973420E-06 Eh
 * total energy  :   -83.5886331 Eh     change       -0.8146640E-07 Eh
   *** GEOMETRY OPTIMIZATION CONVERGED AFTER 21 ITERATIONS ***

 final structure:
================
51
 xtb: 6.7.1 (edcfbbe)
C            1.22104203959714        4.09646846524738       -0.00441088155572
C            0.87493028596083        3.49605496359949        1.19475540707069
C            0.20912272638535        2.28427341959974        1.19830589795814
C           -0.11159400144526        1.67467206069304       -0.00918617249298
N           -0.77108044699752        0.42608831803977       -0.01115284974400
C           -0.12722087278666       -0.81339107437503       -0.01223884668923
C            1.24102829011902       -1.02590633250655       -0.01311067338119
C            1.84751609638733       -2.31720341044332       -0.01294839139450
C            3.20134947064182       -2.29108452941268       -0.00897267177400
C            3.75480728957221       -0.97693299665462       -0.00561847844710
C            5.08058325127886       -0.60689927541738        0.00102140078696
C            5.62453439984829        0.69205314871890        0.00576845491369
C            7.00977091254319        0.70157484973412        0.01288202614832
C            7.56585523057911       -0.55583309150384        0.01368313632616
S            6.37736209614769       -1.80326879362543        0.00562013093852
S            2.46679124175486        0.23524813845419       -0.00970053132126
N           -1.01925820539578       -1.81706600260370       -0.00909195886903
C           -2.22410048735284       -1.24205711796045       -0.00472421414817
C           -3.49909218581172       -1.87953553623074        0.00283987160160
C           -3.60230140193508       -3.27346194525108        0.00665514330371
C           -4.83563144607436       -3.87924327367667        0.01637429858577
C           -5.98217787023371       -3.08960851539182        0.02259760155996
C           -5.89159622779401       -1.71546120288864        0.01850698022841
C           -4.65189554747480       -1.06031357442140        0.00814585934552
C           -4.52719328072655        0.38821930183017        0.00249221214682
C           -5.64832059279434        1.22590924718795        0.00338903826877
C           -5.53636474857379        2.59811627040152       -0.00342054039379
C           -4.28015441198874        3.19948872716164       -0.01210296278841
C           -3.15355139744911        2.41729418581109       -0.01293634162100
C           -3.24525034794088        1.01405516806270       -0.00521441354248
C           -2.11306024684895        0.16725066794250       -0.00609773241078
C            0.23550805706437        2.27447803735371       -1.21426883301255
C            0.90106455590293        3.48646059685995       -1.20589711145081
H            1.74340860816530        5.04125260099462       -0.00247232932629
H            1.12716910941840        3.97004155777153        2.13126507091504
H           -0.06430393285116        1.80341731149556        2.12574922499206
H            1.22962089978817       -3.19560985628004       -0.01541199745176
H            3.84249715735046       -3.15460140535675       -0.00783168153052
H            4.99624867039759        1.56430070468994        0.00404291516535
H            7.60428343434067        1.59834329313563        0.01742646262252
H            8.60358738856990       -0.82176072453033        0.01854512353412
H           -2.68774554543485       -3.84558015840886        0.00210435688605
H           -4.91932956409432       -4.95570128575291        0.01949567233880
H           -6.95556581656902       -3.55845139016279        0.03081941384894
H           -6.80807649976808       -1.14724083310987        0.02391217612097
H           -6.63808808207960        0.79873183128984        0.00908197058112
H           -6.42622447555881        3.20991783746034       -0.00250929164878
H           -4.19331118272821        4.27574654278734       -0.01834223575185
H           -2.18021128473190        2.88183042618468       -0.02036092369490
H           -0.01740554630051        1.78610760331337       -2.14357668401877
H            1.17346201815773        3.95306559640512       -2.14045834097319

 projected vibrational frequencies (cm⁻¹)
eigval :       -0.00    -0.00     0.00     0.00     0.00     0.00
eigval :       -4.86    17.91    29.47    33.81    35.08    56.50
eigval :       59.30    74.24    85.92    94.60   104.26   126.79
eigval :      151.31   152.92   177.98   203.81   223.83   239.48
eigval :      248.72   260.84   269.52   326.14   334.64   370.16
eigval :      372.01   377.68   395.38   402.93   407.92   429.49
eigval :      436.64   448.70   450.76   486.07   506.56   516.63
eigval :      517.83   529.81   540.27   571.55   584.81   586.20
eigval :      622.51   624.02   640.04   650.91   662.89   663.42
eigval :      666.69   676.17   677.69   694.06   701.69   713.03
eigval :      732.76   748.49   760.25   762.73   779.73   781.61
eigval :      782.99   821.48   837.80   846.55   850.72   859.95
eigval :      871.18   873.07   899.36   905.69   908.07   915.25
eigval :      920.84   925.70   925.81   931.54   934.13   978.74
eigval :     1008.07  1043.34  1066.08  1072.36  1078.40  1084.19
eigval :     1090.19  1100.30  1105.59  1114.83  1119.75  1145.01
eigval :     1152.77  1165.31  1179.32  1180.19  1181.89  1184.45
eigval :     1186.77  1209.91  1224.28  1248.54  1254.90  1266.06
eigval :     1273.27  1285.03  1294.61  1312.83  1322.90  1336.73
eigval :     1338.17  1353.15  1380.51  1396.80  1413.11  1420.07
eigval :     1431.65  1432.78  1443.71  1465.15  1477.72  1503.53
eigval :     1513.10  1520.38  1539.02  1550.69  1564.06  1580.09
eigval :     1582.01  1592.94  1593.39  3075.22  3078.76  3082.74
eigval :     3085.03  3087.56  3089.11  3090.91  3096.00  3098.67
eigval :     3101.87  3107.12  3111.33  3114.16  3120.89  3127.91
eigval :     3136.01  3152.07  3167.33

   temp. (K)  partition function   enthalpy   heat capacity  entropy
                                   cal/mol     cal/K/mol   cal/K/mol   J/K/mol
 298.15  VIB  0.106E+13            15091.585     95.582     94.405
         ROT  0.299E+08              888.752      2.981     37.191
         INT  0.318E+20            15980.337     98.562    131.596
         TR   0.950E+28             1481.254      4.968     44.238
         TOT                       17461.5910   103.5306   175.8335   735.6872

       T/K    H(0)-H(T)+PV         H(T)/Eh          T*S/Eh         G(T)/Eh
   ------------------------------------------------------------------------
    298.15    0.278268E-01    0.399381E+00    0.835442E-01    0.315837E+00
   ------------------------------------------------------------------------

         :::::::::::::::::::::::::::::::::::::::::::::::::::::
         ::                  THERMODYNAMIC                  ::
         :::::::::::::::::::::::::::::::::::::::::::::::::::::
         :: total free energy         -83.272796211930 Eh   ::
         ::.................................................::
         :: total energy              -83.588633161013 Eh   ::
         :: zero point energy           0.371554283280 Eh   ::
         :: G(RRHO) w/o ZPVE           -0.055717334197 Eh   ::
         :: G(RRHO) contrib.            0.315836949083 Eh   ::
         :::::::::::::::::::::::::::::::::::::::::::::::::::::

           -------------------------------------------------
          | TOTAL ENERGY              -83.588633161013 Eh   |
          | TOTAL ENTHALPY            -83.189252061232 Eh   |
          | TOTAL FREE ENERGY         -83.272796211930 Eh   |
          | GRADIENT NORM               0.000030036834 Eh/α |
           -------------------------------------------------

 * finished run on 2025/07/20 at 00:14:08.646
