   * xtb version 6.7.1 (edcfbbe) compiled by 'albert@albert-system' on 2024-07-22

   ID    Z sym.   atoms
    1    6 C      1-4, 6-14, 18-33
    2    7 N      5, 17
    3   16 S      15, 16
    4    1 H      34-51

          program call               : xtb data2507/gas/PID-3/PID-3.xyz --gfn 2 --ohess vtight --parallel 40 --molden --ceasefiles --namespace data2507/gas/PID-3/PID-3_gas_S0_preOpt
          :  Hamiltonian                  GFN2-xTB          :
 * total energy  :   -83.6301626 Eh     change       -0.2680778E-08 Eh
 * total energy  :   -83.6400217 Eh     change       -0.9859134E-02 Eh
 * total energy  :   -83.6425781 Eh     change       -0.2556438E-02 Eh
 * total energy  :   -83.6431375 Eh     change       -0.5593426E-03 Eh
 * total energy  :   -83.6435607 Eh     change       -0.4232264E-03 Eh
 * total energy  :   -83.6438754 Eh     change       -0.3146369E-03 Eh
 * total energy  :   -83.6442928 Eh     change       -0.4174448E-03 Eh
 * total energy  :   -83.6447570 Eh     change       -0.4642300E-03 Eh
 * total energy  :   -83.6452098 Eh     change       -0.4527278E-03 Eh
 * total energy  :   -83.6456369 Eh     change       -0.4270925E-03 Eh
 * total energy  :   -83.6498470 Eh     change       -0.5171868E-06 Eh
 * total energy  :   -83.6498472 Eh     change       -0.2045249E-06 Eh
 * total energy  :   -83.6498474 Eh     change       -0.1710390E-06 Eh
 * total energy  :   -83.6498476 Eh     change       -0.2178010E-06 Eh
 * total energy  :   -83.6498479 Eh     change       -0.2297057E-06 Eh
 * total energy  :   -83.6498480 Eh     change       -0.1807780E-06 Eh
 * total energy  :   -83.6498482 Eh     change       -0.1403778E-06 Eh
 * total energy  :   -83.6498483 Eh     change       -0.1113647E-06 Eh
 * total energy  :   -83.6498484 Eh     change       -0.9049661E-07 Eh
   *** GEOMETRY OPTIMIZATION CONVERGED AFTER 77 ITERATIONS ***

 final structure:
================
51
 xtb: 6.7.1 (edcfbbe)
C            1.65844352237199        3.89037413739946       -0.03031609061184
C            1.29193896427837        3.30764629579698        1.17148909909054
C            0.62763613545440        2.09506777428499        1.18178263722448
C            0.32862315320908        1.46709084143691       -0.02201683015730
N           -0.32328110164976        0.21381953341478       -0.01677052146680
C            0.30870292581873       -1.00978666628773        0.01619853109443
C            1.72053502479290       -1.21410401742544        0.05129225587251
C            2.33350645238504       -2.44597671991431        0.07976485693440
C            3.72768186742472       -2.37275044217576        0.11365376224857
C            4.20560193870644       -1.08198063932199        0.11206355931033
C            5.56196372427100       -0.63942931770328        0.14163219000023
C            6.70437416150131       -1.40081074872067        0.17513790274661
C            7.88063045231472       -0.63023353485355        0.19809882083058
C            7.63530803470559        0.70652278384510        0.18241662225411
S            5.95391862590847        1.05698133008333        0.13860958436505
S            2.89764525691582        0.06358924080822        0.06701844395984
N           -0.55033011905190       -2.00841486312332        0.01382504959001
C           -1.77909959107323       -1.44013774706677       -0.02091313017570
C           -3.04592250085501       -2.08950748959642       -0.03551685396177
C           -3.14382150585867       -3.48443293538513       -0.01526433298428
C           -4.37352834382517       -4.09390105749756       -0.02842318664285
C           -5.52466436873556       -3.30968163729938       -0.06197104625212
C           -5.43992796225703       -1.93704515951349       -0.08238375216335
C           -4.20194827387037       -1.27626129355872       -0.07026762411749
C           -4.08262843800848        0.17204677742418       -0.09223088608255
C           -5.20936519832036        1.00532758764686       -0.12813016092245
C           -5.10254385897119        2.37603057738960       -0.15036884103161
C           -3.84976199771720        2.98123877880316       -0.13793926204218
C           -2.71989608831601        2.20214822599607       -0.10242221101653
C           -2.80823103734495        0.80292667728766       -0.07856900550100
C           -1.67073791061431       -0.04833809565750       -0.04085441165810
C            0.69352124495786        2.05066013902213       -1.22998795369084
C            1.35752602398340        3.26345893505851       -1.22807848103365
H            2.18060134858827        4.83502455531814       -0.03344330151038
H            1.52612475060066        3.79668775239385        2.10483191066049
H            0.33710771036195        1.62811054198981        2.11123701555541
H            1.76485409651621       -3.35705179725477        0.07553061897828
H            4.36813840865641       -3.23530843028316        0.13896602049544
H            6.69632639135701       -2.47521319434623        0.18269291620857
H            8.86907032898332       -1.05297500030493        0.22529640039446
H            8.33962424706748        1.51412461625940        0.19367597802437
H           -2.22734396733920       -4.05301854776030        0.01086714596257
H           -4.45365656732481       -5.17082314946145       -0.01291650545077
H           -6.49544180756579       -3.78412291500988       -0.07215818914898
H           -6.35837933023521       -1.37239729138345       -0.10818696169205
H           -6.19678521063521        0.57288298601487       -0.13917905312079
H           -5.99439646247524        2.98471779048315       -0.17789982055419
H           -3.76554459451755        4.05775717882958       -0.15614569274813
H           -1.74885901413928        2.67195036994718       -0.09300724872505
H            0.45385803784608        1.54945810142805       -2.15611488935376
H            1.64283242173742        3.71805816256364       -2.16460507799980

          :  Hamiltonian                  GFN2-xTB          :
         :: gradient norm              0.000066133219 Eh/a0 ::
         :: HOMO-LUMO gap              1.971751064686 eV    ::
         :: SCC energy               -85.120834417654 Eh    ::
         :: -> dispersion             -0.075529572288 Eh    ::
         :: repulsion energy           1.470986035673 Eh    ::

    * Orbital Energies and Occupations

         #    Occupation            Energy/Eh            Energy/eV
      -------------------------------------------------------------
         1        2.0000           -0.7341152             -19.9763
       ...           ...                  ...                  ...
        66        2.0000           -0.4234024             -11.5214
        67        2.0000           -0.4221935             -11.4885
        68        2.0000           -0.4184615             -11.3869
        69        2.0000           -0.4147619             -11.2862
        70        2.0000           -0.4139133             -11.2632
        71        2.0000           -0.4056680             -11.0388
        72        2.0000           -0.4017180             -10.9313
        73        2.0000           -0.3992191             -10.8633
        74        2.0000           -0.3973921             -10.8136
        75        2.0000           -0.3807713             -10.3613
        76        2.0000           -0.3783427             -10.2952
        77        2.0000           -0.3763609             -10.2413
        78        2.0000           -0.3547966              -9.6545 (HOMO)
        79                         -0.2823360              -7.6828 (LUMO)
        80                         -0.2478843              -6.7453
        81                         -0.2464415              -6.7060
        82                         -0.2454586              -6.6793
        83                         -0.2410256              -6.5586
        84                         -0.2325441              -6.3278
        85                         -0.2179019              -5.9294
        86                         -0.2063537              -5.6152
        87                         -0.1888996              -5.1402
        88                         -0.1866725              -5.0796
        89                         -0.1864913              -5.0747
       ...                                ...                  ...
       160                          0.7303461              19.8737
      -------------------------------------------------------------
                  HL-Gap            0.0724605 Eh            1.9718 eV

     #   Z          covCN         q      C6AA      α(0)
     1   6 C        2.920    -0.027    28.667     8.780
     2   6 C        2.920    -0.024    28.606     8.771
     3   6 C        2.921    -0.034    28.839     8.806
     4   6 C        2.919     0.069    26.457     8.435
     5   7 N        2.840    -0.046    22.133     6.987
     6   6 C        3.210     0.128    24.615     8.076
     7   6 C        2.990     0.012    27.742     8.640
     8   6 C        3.104    -0.042    28.904     8.809
     9   6 C        3.098    -0.049    29.088     8.839
    10   6 C        3.022     0.022    27.502     8.602
    11   6 C        3.023     0.020    27.529     8.606
    12   6 C        3.111    -0.052    29.135     8.843
    13   6 C        3.109    -0.042    28.891     8.806
    14   6 C        2.940    -0.020    28.503     8.756
    15  16 S        2.356    -0.028   142.219    20.072
    16  16 S        2.369    -0.053   143.258    20.145
    17   7 N        1.895    -0.295    28.497     7.914
    18   6 C        3.206     0.060    26.084     8.318
    19   6 C        2.985     0.003    27.957     8.673
    20   6 C        2.922    -0.031    28.766     8.795
    21   6 C        2.917    -0.030    28.751     8.793
    22   6 C        2.917    -0.033    28.814     8.802
    23   6 C        2.922    -0.035    28.862     8.810
    24   6 C        2.979    -0.001    28.048     8.687
    25   6 C        2.980     0.003    27.964     8.674
    26   6 C        2.922    -0.034    28.835     8.806
    27   6 C        2.917    -0.033    28.820     8.803
    28   6 C        2.917    -0.031    28.783     8.798
    29   6 C        2.919    -0.039    28.974     8.827
    30   6 C        2.978    -0.002    28.069     8.690
    31   6 C        3.078     0.023    27.416     8.584
    32   6 C        2.921    -0.034    28.840     8.807
    33   6 C        2.920    -0.024    28.606     8.771
    34   1 H        0.926     0.043     2.414     2.430
    35   1 H        0.926     0.043     2.403     2.424
    36   1 H        0.926     0.043     2.404     2.425
    37   1 H        0.926     0.062     2.179     2.309
    38   1 H        0.926     0.042     2.426     2.436
    39   1 H        0.926     0.039     2.468     2.457
    40   1 H        0.926     0.039     2.456     2.451
    41   1 H        0.926     0.045     2.378     2.411
    42   1 H        0.926     0.050     2.319     2.381
    43   1 H        0.926     0.030     2.581     2.512
    44   1 H        0.926     0.028     2.611     2.527
    45   1 H        0.926     0.031     2.573     2.509
    46   1 H        0.926     0.035     2.522     2.483
    47   1 H        0.926     0.029     2.599     2.521
    48   1 H        0.926     0.027     2.622     2.532
    49   1 H        0.926     0.026     2.650     2.546
    50   1 H        0.926     0.043     2.405     2.425
    51   1 H        0.926     0.043     2.403     2.424

molecular dipole:
                 x           y           z       tot (Debye)
 q only:        0.509       0.815      -0.003
   full:        0.651       0.840      -0.002       2.701

 projected vibrational frequencies (cm⁻¹)
eigval :       -0.00    -0.00    -0.00     0.00     0.00     0.00
eigval :       15.19    23.04    27.44    34.99    38.72    46.64
eigval :       56.20    69.55    80.28    87.32    97.68   132.62
eigval :      160.64   171.52   200.26   204.09   226.35   238.30
eigval :      263.63   263.93   293.18   344.97   351.58   363.42
eigval :      371.89   397.72   402.47   403.77   430.09   437.71
eigval :      450.13   459.48   488.22   493.54   517.87   523.58
eigval :      534.65   539.86   565.81   584.73   589.17   606.25
eigval :      625.54   641.96   650.34   655.11   668.08   672.17
eigval :      681.96   698.36   718.72   723.44   732.04   732.58
eigval :      735.05   760.84   765.85   782.45   784.06   797.12
eigval :      801.30   844.06   846.08   847.33   862.20   872.14
eigval :      874.86   889.03   899.76   907.21   914.21   923.86
eigval :      926.15   926.19   927.09   931.46   939.47   981.27
eigval :     1018.09  1053.04  1069.98  1077.57  1078.56  1079.52
eigval :     1085.80  1107.48  1114.64  1117.38  1147.40  1163.24
eigval :     1170.11  1176.21  1180.43  1182.94  1185.86  1187.90
eigval :     1209.17  1215.64  1252.49  1257.05  1273.68  1283.84
eigval :     1291.08  1313.15  1322.20  1338.69  1341.93  1349.14
eigval :     1367.41  1376.77  1406.06  1420.04  1429.09  1432.17
eigval :     1433.57  1437.06  1442.41  1475.02  1487.36  1514.62
eigval :     1520.23  1537.11  1555.28  1561.65  1568.86  1582.74
eigval :     1594.04  1594.35  1604.10  3072.31  3075.82  3083.88
eigval :     3084.14  3085.28  3086.32  3091.40  3096.65  3097.33
eigval :     3103.08  3105.75  3110.43  3111.62  3127.09  3135.88
eigval :     3142.79  3153.74  3165.88

   temp. (K)  partition function   enthalpy   heat capacity  entropy
                                   cal/mol     cal/K/mol   cal/K/mol   J/K/mol
 298.15  VIB  0.239E+12            14780.075     93.672     91.480
         ROT  0.284E+08              888.752      2.981     37.088
         INT  0.681E+19            15668.827     96.653    128.568
         TR   0.950E+28             1481.254      4.968     44.238
         TOT                       17150.0812   101.6212   172.8057   723.0191

       T/K    H(0)-H(T)+PV         H(T)/Eh          T*S/Eh         G(T)/Eh
   ------------------------------------------------------------------------
    298.15    0.273304E-01    0.401955E+00    0.821056E-01    0.319850E+00
   ------------------------------------------------------------------------

         :::::::::::::::::::::::::::::::::::::::::::::::::::::
         ::                  THERMODYNAMIC                  ::
         :::::::::::::::::::::::::::::::::::::::::::::::::::::
         :: total free energy         -83.329998613012 Eh   ::
         ::.................................................::
         :: total energy              -83.649848381978 Eh   ::
         :: zero point energy           0.374624947841 Eh   ::
         :: G(RRHO) w/o ZPVE           -0.054775178875 Eh   ::
         :: G(RRHO) contrib.            0.319849768966 Eh   ::
         :::::::::::::::::::::::::::::::::::::::::::::::::::::

           -------------------------------------------------
          | TOTAL ENERGY              -83.649848381978 Eh   |
          | TOTAL ENTHALPY            -83.247893040158 Eh   |
          | TOTAL FREE ENERGY         -83.329998613012 Eh   |
          | GRADIENT NORM               0.000066179017 Eh/α |
          | HOMO-LUMO GAP               1.971751757819 eV   |
           -------------------------------------------------

 * finished run on 2025/07/20 at 00:12:03.308
