   * xtb version 6.7.1 (edcfbbe) compiled by 'albert@albert-system' on 2024-07-22

   ID    Z sym.   atoms
    1    7 N      1, 21
    2    6 C      2-20, 22-35, 37-45
    3    8 O      36
    4    1 H      46-69

          program call               : xtb data2507/gas/m-PO-ABN/m-PO-ABN_gas_T1_crest.xyz --gfn 2 --spinpol --tblite --uhf 2 --ohess vtight --parallel 40 --molden --ceasefiles --namespace data2507/gas/m-PO-ABN/m-PO-ABN_gas_T1_finalOpt
 * total energy  :  -112.0311097 Eh     change       -0.2330086E-07 Eh
 * total energy  :  -112.0311474 Eh     change       -0.3774972E-04 Eh
 * total energy  :  -112.0311584 Eh     change       -0.1095612E-04 Eh
 * total energy  :  -112.0311620 Eh     change       -0.3641444E-05 Eh
 * total energy  :  -112.0311659 Eh     change       -0.3839487E-05 Eh
 * total energy  :  -112.0311702 Eh     change       -0.4304541E-05 Eh
 * total energy  :  -112.0311736 Eh     change       -0.3412302E-05 Eh
 * total energy  :  -112.0311768 Eh     change       -0.3268650E-05 Eh
 * total energy  :  -112.0311787 Eh     change       -0.1831073E-05 Eh
 * total energy  :  -112.0311788 Eh     change       -0.1280474E-06 Eh
 * total energy  :  -112.0311792 Eh     change       -0.3500662E-06 Eh
 * total energy  :  -112.0311790 Eh     change        0.1860053E-06 Eh
 * total energy  :  -112.0311792 Eh     change       -0.2718294E-06 Eh
 * total energy  :  -112.0311792 Eh     change        0.7791812E-08 Eh
 * total energy  :  -112.0311794 Eh     change       -0.1165694E-06 Eh
 * total energy  :  -112.0311794 Eh     change       -0.2489202E-07 Eh
   *** GEOMETRY OPTIMIZATION CONVERGED AFTER 16 ITERATIONS ***

 final structure:
================
69
 xtb: 6.7.1 (edcfbbe)
N          -10.47612665095171       -2.84266720030972        0.61454242685822
C           -9.44915954137722       -2.34381425714038        0.49591718685923
C           -8.18781362820424       -1.73146160125844        0.35044689429998
C           -7.70861000296447       -1.40057934741470       -0.92115390309959
C           -6.47277551350352       -0.81154646408253       -1.05884300120167
C           -5.68284858165874       -0.51681494549823        0.06159722246202
C           -4.37981497290101        0.11446213426249       -0.08897076279827
C           -4.08384216322344        1.32029392464383        0.62573874794690
C           -5.04430079616113        1.97111621738528        1.40221462356389
C           -4.72820835383252        3.09991112275211        2.15708185083649
C           -3.44170474477844        3.59125374137749        2.14794466326192
C           -2.47990221623941        2.99918526842409        1.33182082109153
C           -2.78606104206118        1.90281403672745        0.52182287574206
C           -1.83070084681744        1.35140076038422       -0.38691317980233
C           -0.52463707284579        1.99169958375610       -0.54546471722812
C           -0.42708246381736        3.33576628989755       -0.91940428568335
C            0.80864982821117        3.93808536531025       -1.07576247995043
C            1.97043306822380        3.22263416440010       -0.85869403809013
C            1.89113836553500        1.87991229385320       -0.48298579211855
C            3.10651661513713        1.13131235890887       -0.25688031053664
N            4.31783443583043        1.60069084309276       -0.34124973646152
C            5.13142682686903        0.54300732034417       -0.05432951164917
C            6.55096708129411        0.46204445137020        0.00607399266808
C            7.35746837617781        1.57558695612112       -0.24717225148990
C            8.72466251806986        1.47012519839911       -0.18097648098196
C            9.30169146981697        0.24343206980120        0.14095771838147
C            8.51813693328340       -0.85879428947538        0.39185833474443
C            7.11741974398681       -0.79403336897381        0.33454003556492
C            6.27119017417885       -1.94645926161036        0.59543611704826
C            6.78880020230774       -3.20858288008768        0.92122323290093
C            5.96901747596373       -4.28646077280386        1.16361537345557
C            4.58317554196809       -4.15914598278505        1.09272288310483
C            4.03301375925233       -2.94234434416130        0.77740033837674
C            4.85773698559653       -1.83797738123806        0.52890230470076
C            4.33753184548538       -0.56386682423444        0.19962905266165
O            3.04479651278610       -0.18687815701618        0.07024999671084
C            0.64922470092613        1.27198470035156       -0.33119237354958
C           -2.14415685639752        0.17990849671462       -1.14347825143206
C           -1.25770364536218       -0.34389266919830       -2.08788586136450
C           -1.52727827646284       -1.53701450486547       -2.75527894022231
C           -2.68612319637372       -2.22851142189005       -2.48053308373112
C           -3.61417844977991       -1.69742586646844       -1.58587694205203
C           -3.39720163035466       -0.47365772426373       -0.94995979501048
C           -6.18042878734030       -0.84622137137641        1.33049973603594
C           -7.40745838978670       -1.45140144431594        1.47679721571735
H           -8.31752018095250       -1.60752656805479       -1.78916873811416
H           -6.11537522439658       -0.53596620822133       -2.04035288044136
H           -6.05829742043892        1.60211211042948        1.41747266246540
H           -5.49408539069464        3.57256550958933        2.75313168578644
H           -3.17355673660474        4.44221020553390        2.75570543933609
H           -1.47647828790628        3.39631555361494        1.33037514288522
H           -1.33122150700541        3.89471465832720       -1.11229697975337
H            0.86299540231182        4.97476000422416       -1.37350521186432
H            2.94288047115027        3.67274029262141       -0.97305145225901
H            6.87171218649968        2.50722593879056       -0.49263141639859
H            9.35145506178345        2.32751812012986       -0.37565876287409
H           10.37717187465424        0.15619378846377        0.19442295510067
H            9.00772438961535       -1.78763637317467        0.63743521976429
H            7.85501581652509       -3.35385321740711        0.98707829636843
H            6.40474092406424       -5.24313870954613        1.41177023546637
H            3.95061388118128       -5.01276805600003        1.28486890057290
H            2.96282084537267       -2.81180740657953        0.71453857876735
H            0.59558167083930        0.23995980938879       -0.01761269442049
H           -0.34438353907750        0.18595310148182       -2.31048013836596
H           -0.81619409390295       -1.91806491108321       -3.47265602053985
H           -2.89063520501782       -3.17357893205609       -2.96047300691953
H           -4.51512414727541       -2.25432006868164       -1.37904641876366
H           -5.56975712546787       -0.65284317430212        2.20038772087869
H           -7.77438552326175       -1.71779428979799        2.45733775178235

 projected vibrational frequencies (cm⁻¹)
eigval :       -0.00    -0.00    -0.00    -0.00    -0.00     0.00
eigval :        8.60    10.63    13.01    27.48    36.80    48.09
eigval :       55.76    61.92    72.16    78.94    81.01    86.96
eigval :      116.85   118.14   125.74   134.63   139.08   179.45
eigval :      180.25   190.76   207.32   216.92   229.83   239.07
eigval :      248.70   250.78   273.00   279.17   286.40   339.69
eigval :      352.15   360.15   367.98   388.80   392.42   394.42
eigval :      399.07   401.05   417.37   418.18   427.79   439.26
eigval :      441.14   450.03   469.18   472.14   503.12   511.94
eigval :      529.61   533.12   535.06   543.61   569.50   582.10
eigval :      583.70   587.09   599.66   603.93   608.82   622.13
eigval :      639.90   656.86   662.78   667.33   670.25   673.57
eigval :      681.08   688.47   694.58   704.37   717.14   738.33
eigval :      740.27   748.21   761.24   768.18   771.76   784.50
eigval :      786.97   800.39   816.48   845.85   848.55   866.92
eigval :      869.19   877.22   886.70   891.31   893.14   901.07
eigval :      905.26   908.33   909.30   910.37   915.84   916.27
eigval :      922.72   925.79   925.90   927.93   931.15   934.74
eigval :      941.23   945.07   983.92   995.70  1014.45  1019.09
eigval :     1054.81  1081.88  1088.84  1099.98  1101.32  1104.40
eigval :     1114.08  1117.91  1128.21  1135.28  1143.40  1158.23
eigval :     1178.67  1180.56  1181.37  1182.95  1183.62  1184.01
eigval :     1186.18  1188.93  1211.44  1231.85  1239.01  1245.81
eigval :     1253.19  1254.82  1255.87  1259.59  1267.58  1279.04
eigval :     1281.10  1297.17  1306.47  1309.98  1312.65  1321.40
eigval :     1338.78  1343.53  1344.73  1363.27  1372.15  1377.37
eigval :     1401.26  1402.28  1404.67  1407.83  1411.48  1426.09
eigval :     1430.67  1435.68  1454.42  1464.28  1477.69  1486.53
eigval :     1516.63  1517.13  1517.63  1518.39  1531.23  1549.19
eigval :     1554.00  1557.11  1561.44  1568.68  1571.96  1578.86
eigval :     1594.93  1605.18  2357.65  3076.53  3078.50  3079.01
eigval :     3079.24  3080.55  3081.49  3081.82  3085.20  3087.82
eigval :     3088.70  3088.93  3090.08  3091.12  3091.38  3092.68
eigval :     3095.52  3096.71  3097.36  3099.60  3101.43  3101.94
eigval :     3104.94  3111.33  3119.20

   temp. (K)  partition function   enthalpy   heat capacity  entropy
                                   cal/mol     cal/K/mol   cal/K/mol   J/K/mol
 298.15  VIB  0.230E+16            19949.124    128.313    123.878
         ROT  0.800E+08              888.752      2.981     39.144
         INT  0.184E+24            20837.877    131.294    163.023
         TR   0.133E+29             1481.254      4.968     44.899
         TOT                       22319.1306   136.2621   207.9221   869.9461

       T/K    H(0)-H(T)+PV         H(T)/Eh          T*S/Eh         G(T)/Eh
   ------------------------------------------------------------------------
    298.15    0.355678E-01    0.549506E+00    0.987905E-01    0.450716E+00
   ------------------------------------------------------------------------

         :::::::::::::::::::::::::::::::::::::::::::::::::::::
         ::                  THERMODYNAMIC                  ::
         :::::::::::::::::::::::::::::::::::::::::::::::::::::
         :: total free energy        -111.580463857671 Eh   ::
         ::.................................................::
         :: total energy             -112.031179378874 Eh   ::
         :: zero point energy           0.513938226679 Eh   ::
         :: G(RRHO) w/o ZPVE           -0.063222705476 Eh   ::
         :: G(RRHO) contrib.            0.450715521203 Eh   ::
         :::::::::::::::::::::::::::::::::::::::::::::::::::::

           -------------------------------------------------
          | TOTAL ENERGY             -112.031179378874 Eh   |
          | TOTAL ENTHALPY           -111.481673353529 Eh   |
          | TOTAL FREE ENERGY        -111.580463857671 Eh   |
          | GRADIENT NORM               0.000036587479 Eh/α |
           -------------------------------------------------

 * finished run on 2025/09/02 at 19:04:48.188
