   * xtb version 6.7.1 (edcfbbe) compiled by 'albert@albert-system' on 2024-07-22

   ID    Z sym.   atoms
    1    7 N      1, 21
    2    6 C      2-20, 22-35, 37-45
    3    8 O      36
    4    1 H      46-69

          program call               : xtb data2507/gas/m-PO-ABN/m-PO-ABN_gas_S0_crest.xyz --gfn 2 --ohess vtight --parallel 40 --molden --ceasefiles --namespace data2507/gas/m-PO-ABN/m-PO-ABN_gas_S0_finalOpt
          :  Hamiltonian                  GFN2-xTB          :
 * total energy  :  -112.0940087 Eh     change       -0.3099515E-08 Eh
 * total energy  :  -112.0940098 Eh     change       -0.1145360E-05 Eh
 * total energy  :  -112.0940112 Eh     change       -0.1406276E-05 Eh
 * total energy  :  -112.0940140 Eh     change       -0.2789444E-05 Eh
 * total energy  :  -112.0940156 Eh     change       -0.1646911E-05 Eh
 * total energy  :  -112.0940163 Eh     change       -0.6938050E-06 Eh
 * total energy  :  -112.0940171 Eh     change       -0.7656889E-06 Eh
 * total energy  :  -112.0940179 Eh     change       -0.8121307E-06 Eh
 * total energy  :  -112.0940185 Eh     change       -0.5971123E-06 Eh
 * total energy  :  -112.0940190 Eh     change       -0.5210867E-06 Eh
 * total energy  :  -112.0940215 Eh     change       -0.8864838E-06 Eh
 * total energy  :  -112.0940224 Eh     change       -0.8791314E-06 Eh
 * total energy  :  -112.0940231 Eh     change       -0.7609183E-06 Eh
 * total energy  :  -112.0940239 Eh     change       -0.7941297E-06 Eh
 * total energy  :  -112.0940250 Eh     change       -0.1081149E-05 Eh
 * total energy  :  -112.0940263 Eh     change       -0.1271087E-05 Eh
 * total energy  :  -112.0940272 Eh     change       -0.9504437E-06 Eh
 * total energy  :  -112.0940276 Eh     change       -0.4123105E-06 Eh
 * total energy  :  -112.0940277 Eh     change       -0.8928578E-07 Eh
   *** GEOMETRY OPTIMIZATION CONVERGED AFTER 22 ITERATIONS ***

 final structure:
================
69
 xtb: 6.7.1 (edcfbbe)
N          -10.48561785226208       -2.80085237486005        0.49678158319856
C           -9.45741735498691       -2.30272650293652        0.39975972806846
C           -8.18960582945106       -1.69009559386324        0.27990073266308
C           -7.94236382695162       -0.79504997979884       -0.76211131446091
C           -6.70143474647210       -0.20265257416838       -0.87559816315731
C           -5.69235633140368       -0.48513738033376        0.04332449240488
C           -4.36630216440935        0.15371300877907       -0.08217635779590
C           -3.95883406548342        1.10275265645845        0.86615238112241
C           -4.80103446763899        1.50093767296203        1.93781277469183
C           -4.38459145468180        2.40722710687662        2.86340089842165
C           -3.09557339013406        2.96997332002904        2.77777090587601
C           -2.26628334607782        2.63315895962565        1.75295175607222
C           -2.66957638379923        1.71004449002150        0.75219515610452
C           -1.83372154771552        1.37453420123081       -0.32230067676839
C           -0.50934900279390        2.01913114090720       -0.45154030325273
C           -0.41191184308915        3.37363130126264       -0.76110889951675
C            0.82847363621867        3.97764632654925       -0.88685413123136
C            1.98390847213653        3.24401577246597       -0.70475244669016
C            1.89875010287052        1.88620301641646       -0.39395606329308
C            3.11042405317607        1.12076360925846       -0.20867638433078
N            4.32458528098160        1.58285260150810       -0.29424417830163
C            5.13281518610856        0.51052039530620       -0.04984485302301
C            6.55230064627106        0.41621643897019       -0.01046314037402
C            7.36507081314390        1.52986572716717       -0.24230029044237
C            8.73205858354873        1.41127924961742       -0.19736277545700
C            9.30268257534983        0.17111517266652        0.08144863596378
C            8.51295584125232       -0.93138745886914        0.31084482731033
C            7.11223341795287       -0.85344807851065        0.27405109902154
C            6.25965495030117       -2.00595515047675        0.51293836586905
C            6.77064542261892       -3.28091210626524        0.79646088518409
C            5.94492290476875       -4.35852532142238        1.01902978609053
C            4.55944553097931       -4.21800312407698        0.96952881828233
C            4.01570291245291       -2.98841124568804        0.69540554358756
C            4.84647379200447       -1.88418174687594        0.46741457906460
C            4.33289306442636       -0.59702478574550        0.18120377431544
O            3.04193611202454       -0.20600787727044        0.07945183814816
C            0.65100816741150        1.27950441156243       -0.26923973222586
C           -2.24689026848183        0.43449099073685       -1.27707063383019
C           -1.43514065060473        0.09329811601925       -2.39110161570770
C           -1.83669454710324       -0.83799637603209       -3.29822807079420
C           -3.07612474503532       -1.49079445100399       -3.14570643184325
C           -3.89394582834544       -1.17675818647540       -2.10456468537097
C           -3.52436967801919       -0.19452021260727       -1.14796753831969
C           -5.94895453743280       -1.37798712513175        1.08235957276697
C           -7.18426788775418       -1.98040541490490        1.20350499692356
H           -8.72524796531236       -0.57306022143753       -1.47243115873017
H           -6.50516638259733        0.49272348629536       -1.67871690176191
H           -5.78972708511828        1.07176804958146        2.00659320940203
H           -5.03739278069059        2.69951083127701        3.67260111657369
H           -2.77426026339863        3.67360929661856        3.53138290827811
H           -1.27902166237903        3.06554198212462        1.68768466121518
H           -1.31536029518321        3.94750107998486       -0.90887735961023
H            0.88984553675489        5.02815925321122       -1.12928905038391
H            2.95922810102368        3.69337994208152       -0.79753563298436
H            6.88428261379592        2.47217217595637       -0.45458682551670
H            9.36362466423338        2.26872397993853       -0.37576315321677
H           10.37797774967759        0.07348134814184        0.11815778835573
H            8.99768350303284       -1.87096942101775        0.52295879044752
H            7.83633887620542       -3.43663613065105        0.84451591440266
H            6.37564876524001       -5.32531903938060        1.23460075194166
H            3.92213999567432       -5.07153225314643        1.14583502411020
H            2.94598241935652       -2.84745767288012        0.64995201798770
H            0.58714739330702        0.22961302708104       -0.02408300018224
H           -0.48466184232318        0.59189671439447       -2.50866294793676
H           -1.20751199943802       -1.08705929141085       -4.13990027327263
H           -3.37206241194548       -2.24015287555473       -3.86495624654193
H           -4.84305343297421       -1.67938756456271       -1.99056004969543
H           -5.16615094363635       -1.60093090445333        1.79267878812986
H           -7.38145315828175       -2.67520680857048        2.00670111262418

          :  Hamiltonian                  GFN2-xTB          :
         :: gradient norm              0.000097633194 Eh/a0 ::
         :: HOMO-LUMO gap              2.100911031408 eV    ::
         :: SCC energy              -114.220977340323 Eh    ::
         :: -> dispersion             -0.097195202977 Eh    ::
         :: repulsion energy           2.126949603517 Eh    ::

    * Orbital Energies and Occupations

         #    Occupation            Energy/Eh            Energy/eV
      -------------------------------------------------------------
         1        2.0000           -0.7512638             -20.4429
       ...           ...                  ...                  ...
        92        2.0000           -0.4218424             -11.4789
        93        2.0000           -0.4197912             -11.4231
        94        2.0000           -0.4183977             -11.3852
        95        2.0000           -0.4155570             -11.3079
        96        2.0000           -0.4153427             -11.3020
        97        2.0000           -0.4116930             -11.2027
        98        2.0000           -0.4098162             -11.1517
        99        2.0000           -0.4079591             -11.1011
       100        2.0000           -0.4069221             -11.0729
       101        2.0000           -0.3950074             -10.7487
       102        2.0000           -0.3911414             -10.6435
       103        2.0000           -0.3754222             -10.2158
       104        2.0000           -0.3679987             -10.0138 (HOMO)
       105                         -0.2907917              -7.9128 (LUMO)
       106                         -0.2759654              -7.5094
       107                         -0.2718840              -7.3983
       108                         -0.2574327              -7.0051
       109                         -0.2505421              -6.8176
       110                         -0.2454109              -6.6780
       111                         -0.2397415              -6.5237
       112                         -0.2350759              -6.3967
       113                         -0.2287598              -6.2249
       114                         -0.2156137              -5.8671
       115                         -0.2060209              -5.6061
       ...                                ...                  ...
       204                          1.1712104              31.8703
      -------------------------------------------------------------
                  HL-Gap            0.0772071 Eh            2.1009 eV

     #   Z          covCN         q      C6AA      α(0)
     1   7 N        0.911    -0.235    26.161     7.398
     2   6 C        1.912     0.111    28.355     8.600
     3   6 C        2.974     0.017    27.632     8.622
     4   6 C        2.925    -0.021    28.526     8.759
     5   6 C        2.923    -0.029    28.725     8.789
     6   6 C        2.977     0.025    27.441     8.593
     7   6 C        2.977    -0.009    28.231     8.716
     8   6 C        2.984     0.007    27.850     8.657
     9   6 C        2.917    -0.035    28.868     8.811
    10   6 C        2.914    -0.028    28.712     8.787
    11   6 C        2.914    -0.029    28.721     8.788
    12   6 C        2.917    -0.034    28.841     8.807
    13   6 C        2.984     0.007    27.852     8.657
    14   6 C        2.978    -0.005    28.132     8.700
    15   6 C        2.976     0.018    27.606     8.618
    16   6 C        2.924    -0.030    28.749     8.793
    17   6 C        2.917    -0.027    28.670     8.780
    18   6 C        2.925    -0.031    28.761     8.795
    19   6 C        2.974    -0.002    28.071     8.691
    20   6 C        3.235     0.214    22.745     7.738
    21   7 N        1.883    -0.291    28.384     7.898
    22   6 C        3.168     0.056    26.400     8.395
    23   6 C        2.986     0.002    27.981     8.677
    24   6 C        2.921    -0.029    28.720     8.788
    25   6 C        2.917    -0.029    28.716     8.787
    26   6 C        2.917    -0.030    28.759     8.794
    27   6 C        2.922    -0.033    28.817     8.803
    28   6 C        2.978    -0.000    28.030     8.685
    29   6 C        2.981     0.003    27.962     8.674
    30   6 C        2.921    -0.032    28.793     8.799
    31   6 C        2.917    -0.030    28.753     8.793
    32   6 C        2.917    -0.029    28.722     8.788
    33   6 C        2.920    -0.030    28.760     8.794
    34   6 C        2.983    -0.006    28.156     8.704
    35   6 C        3.117     0.107    25.491     8.270
    36   8 O        1.724    -0.220    17.643     5.671
    37   6 C        2.928    -0.032    28.788     8.799
    38   6 C        2.984     0.007    27.850     8.657
    39   6 C        2.917    -0.033    28.831     8.805
    40   6 C        2.914    -0.029    28.716     8.787
    41   6 C        2.914    -0.028    28.710     8.786
    42   6 C        2.917    -0.035    28.868     8.811
    43   6 C        2.984     0.007    27.849     8.656
    44   6 C        2.923    -0.029    28.724     8.789
    45   6 C        2.925    -0.021    28.526     8.759
    46   1 H        0.926     0.042     2.423     2.434
    47   1 H        0.926     0.039     2.457     2.451
    48   1 H        0.926     0.030     2.593     2.518
    49   1 H        0.926     0.032     2.561     2.502
    50   1 H        0.926     0.032     2.558     2.501
    51   1 H        0.926     0.034     2.536     2.490
    52   1 H        0.926     0.037     2.485     2.465
    53   1 H        0.926     0.041     2.442     2.443
    54   1 H        0.926     0.058     2.217     2.328
    55   1 H        0.926     0.052     2.292     2.368
    56   1 H        0.926     0.035     2.523     2.484
    57   1 H        0.926     0.033     2.548     2.496
    58   1 H        0.926     0.035     2.517     2.481
    59   1 H        0.926     0.038     2.477     2.461
    60   1 H        0.926     0.034     2.530     2.488
    61   1 H        0.926     0.034     2.528     2.487
    62   1 H        0.926     0.040     2.452     2.449
    63   1 H        0.926     0.045     2.385     2.415
    64   1 H        0.926     0.033     2.539     2.492
    65   1 H        0.926     0.032     2.558     2.501
    66   1 H        0.926     0.032     2.561     2.503
    67   1 H        0.926     0.030     2.593     2.518
    68   1 H        0.926     0.039     2.457     2.451
    69   1 H        0.926     0.042     2.423     2.434

molecular dipole:
                 x           y           z       tot (Debye)
 q only:        1.234       0.582      -0.119
   full:        1.501       0.408      -0.077       3.959

 projected vibrational frequencies (cm⁻¹)
eigval :       -0.00    -0.00    -0.00     0.00     0.00     0.00
eigval :        9.34    10.40    11.51    31.47    34.61    37.00
eigval :       46.20    62.45    69.24    76.84    77.11    86.61
eigval :      109.20   119.02   122.94   125.82   134.69   179.71
eigval :      180.30   192.52   206.50   211.89   219.94   230.21
eigval :      242.38   250.84   265.44   279.20   284.44   338.63
eigval :      353.95   363.35   382.82   395.04   398.63   399.07
eigval :      401.17   407.80   424.30   429.29   439.49   446.54
eigval :      447.79   458.49   458.99   472.26   504.77   514.32
eigval :      530.06   534.12   535.11   550.75   582.16   583.72
eigval :      587.14   599.54   605.07   609.42   611.15   633.79
eigval :      647.31   656.95   664.34   668.06   670.62   681.06
eigval :      693.32   693.64   695.59   706.34   737.77   738.28
eigval :      744.82   768.16   772.40   775.55   775.88   784.54
eigval :      792.58   801.00   815.69   866.89   870.73   873.98
eigval :      876.30   877.21   888.07   898.61   906.22   910.27
eigval :      915.82   916.61   917.13   919.13   920.88   925.48
eigval :      925.92   927.81   928.02   928.68   930.42   931.41
eigval :      932.95   941.05   983.67   998.17  1018.87  1021.25
eigval :     1054.83  1081.87  1082.41  1083.10  1088.66  1099.71
eigval :     1118.94  1132.06  1135.11  1141.75  1146.10  1158.41
eigval :     1180.56  1181.88  1182.83  1183.73  1184.56  1186.70
eigval :     1199.38  1207.89  1213.64  1229.61  1242.54  1252.82
eigval :     1254.75  1255.87  1260.12  1262.81  1267.47  1279.55
eigval :     1291.25  1308.26  1312.13  1321.07  1328.33  1343.34
eigval :     1344.54  1349.92  1371.36  1384.26  1393.04  1402.69
eigval :     1405.67  1412.12  1419.15  1429.06  1431.20  1435.33
eigval :     1442.66  1462.68  1481.18  1492.91  1517.04  1517.65
eigval :     1527.07  1529.85  1541.73  1548.33  1550.44  1563.44
eigval :     1571.24  1575.90  1587.70  1588.92  1595.34  1605.69
eigval :     1608.31  1622.61  2374.63  3076.04  3076.53  3076.66
eigval :     3078.16  3079.02  3081.38  3081.82  3082.20  3083.16
eigval :     3085.05  3087.37  3090.20  3090.71  3091.08  3092.80
eigval :     3093.26  3093.54  3095.31  3096.11  3096.96  3099.88
eigval :     3104.98  3110.68  3117.29

   temp. (K)  partition function   enthalpy   heat capacity  entropy
                                   cal/mol     cal/K/mol   cal/K/mol   J/K/mol
 298.15  VIB  0.413E+16            19913.461    126.960    124.050
         ROT  0.801E+08              888.752      2.981     39.147
         INT  0.331E+24            20802.213    129.940    163.198
         TR   0.133E+29             1481.254      4.968     44.899
         TOT                       22283.4671   134.9086   208.0972   870.6786

       T/K    H(0)-H(T)+PV         H(T)/Eh          T*S/Eh         G(T)/Eh
   ------------------------------------------------------------------------
    298.15    0.355110E-01    0.551834E+00    0.988737E-01    0.452961E+00
   ------------------------------------------------------------------------

         :::::::::::::::::::::::::::::::::::::::::::::::::::::
         ::                  THERMODYNAMIC                  ::
         :::::::::::::::::::::::::::::::::::::::::::::::::::::
         :: total free energy        -111.641066953325 Eh   ::
         ::.................................................::
         :: total energy             -112.094027736794 Eh   ::
         :: zero point energy           0.516323503272 Eh   ::
         :: G(RRHO) w/o ZPVE           -0.063362719804 Eh   ::
         :: G(RRHO) contrib.            0.452960783469 Eh   ::
         :::::::::::::::::::::::::::::::::::::::::::::::::::::

           -------------------------------------------------
          | TOTAL ENERGY             -112.094027736794 Eh   |
          | TOTAL ENTHALPY           -111.542193268387 Eh   |
          | TOTAL FREE ENERGY        -111.641066953325 Eh   |
          | GRADIENT NORM               0.000097657549 Eh/α |
          | HOMO-LUMO GAP               2.100911021989 eV   |
           -------------------------------------------------

 * finished run on 2025/09/02 at 19:00:58.017
