   * xtb version 6.7.1 (edcfbbe) compiled by 'albert@albert-system' on 2024-07-22

   ID    Z sym.   atoms
    1    7 N      1, 21
    2    6 C      2-20, 22-35, 37-45
    3    8 O      36
    4    1 H      46-69

          program call               : xtb data2507/gas/m-PO-ABN/m-PO-ABN_gas_S0_finalOpt.xtbopt.xyz --gfn 2 --spinpol --tblite --uhf 2 --ohess vtight --parallel 40 --molden --ceasefiles --namespace data2507/gas/m-PO-ABN/m-PO-ABN_gas_T1_preOpt
 * total energy  :  -112.0217346 Eh     change        0.4710942E-07 Eh
 * total energy  :  -112.0280593 Eh     change       -0.6324691E-02 Eh
 * total energy  :  -112.0295219 Eh     change       -0.1462666E-02 Eh
 * total energy  :  -112.0296571 Eh     change       -0.1351527E-03 Eh
 * total energy  :  -112.0298085 Eh     change       -0.1513886E-03 Eh
 * total energy  :  -112.0299044 Eh     change       -0.9594021E-04 Eh
 * total energy  :  -112.0300162 Eh     change       -0.1117681E-03 Eh
 * total energy  :  -112.0301612 Eh     change       -0.1450500E-03 Eh
 * total energy  :  -112.0302955 Eh     change       -0.1342959E-03 Eh
 * total energy  :  -112.0303936 Eh     change       -0.9805709E-04 Eh
 * total energy  :  -112.0311760 Eh     change       -0.5482554E-06 Eh
 * total energy  :  -112.0311765 Eh     change       -0.4970420E-06 Eh
 * total energy  :  -112.0311774 Eh     change       -0.8754772E-06 Eh
 * total energy  :  -112.0311779 Eh     change       -0.4810977E-06 Eh
 * total energy  :  -112.0311782 Eh     change       -0.3534569E-06 Eh
 * total energy  :  -112.0311785 Eh     change       -0.2347975E-06 Eh
 * total energy  :  -112.0311787 Eh     change       -0.1823019E-06 Eh
 * total energy  :  -112.0311788 Eh     change       -0.1103612E-06 Eh
 * total energy  :  -112.0311788 Eh     change       -0.4125755E-07 Eh
   *** GEOMETRY OPTIMIZATION CONVERGED AFTER 67 ITERATIONS ***

 final structure:
================
69
 xtb: 6.7.1 (edcfbbe)
N          -10.49479988440894       -2.82638639227105        0.22958215211501
C           -9.46391843618647       -2.32340676972250        0.18605763508624
C           -8.19783936521389       -1.70593780084911        0.13223256519373
C           -7.72026175335111       -1.18409058670265       -1.07430896750657
C           -6.48008802025485       -0.59027665931651       -1.12399217451253
C           -5.68405911865345       -0.48002460630964        0.02512073372877
C           -4.37696901998696        0.15817451257391       -0.03180663982018
C           -4.06865895403346        1.23612046895210        0.86000622898447
C           -5.01953579639081        1.76263389704266        1.73613590367931
C           -4.69094356242120        2.75776366194869        2.65570924182899
C           -3.40142435396702        3.23780607214182        2.71334211856869
C           -2.44919521299641        2.77577899871322        1.80701293466922
C           -2.76794753418477        1.82102182357737        0.83817408048849
C           -1.82236129327077        1.41340059867506       -0.15292394520508
C           -0.51297610095354        2.06285062360794       -0.21962774704666
C           -0.40730352783589        3.44815288020864       -0.37965395333218
C            0.83215379979974        4.05896302691117       -0.45036725635320
C            1.98977988481067        3.31050084857881       -0.35784704624886
C            1.90231201831058        1.92615852300001       -0.19594394803271
C            3.11238346441885        1.14173049045860       -0.10104539616668
N            4.32773751168848        1.60773521113322       -0.12174512820876
C            5.13263559106183        0.51076293545529       -0.01255418634658
C            6.55169022606465        0.40820415952689        0.02074860647021
C            7.36795756453114        1.54023329507569       -0.06153654986543
C            8.73444571306008        1.41301029454965       -0.02610161038349
C            9.30098063013911        0.14561250013865        0.09270104809116
C            8.50777983061995       -0.97509408106088        0.17425303107775
C            7.10741970142752       -0.88916299321284        0.14150957624816
C            6.25125598187325       -2.06056205283046        0.22555682570603
C            6.75797256126920       -3.36303450740847        0.34316182589160
C            5.92867649759317       -4.45799983853522        0.42034566423149
C            4.54373752041282       -4.30828494248895        0.38376307843278
C            4.00408287841089       -3.05192535401487        0.26967012517164
C            4.83858206497960       -1.92992483997673        0.19058888342925
C            4.32934953238267       -0.61511425994094        0.07131283064041
O            3.03967586033008       -0.21094118940744        0.01503573857958
C            0.65663210083960        1.31065340108696       -0.13024662346171
C           -2.14782836201602        0.37508191168301       -1.07974633144524
C           -1.27118307809086       -0.00011634261993       -2.10094633070677
C           -1.55175037492236       -1.07509785762879       -2.94196925599715
C           -2.71205764021346       -1.79618398849966       -2.76773838080340
C           -3.63114226201232       -1.40517965210821       -1.79504282034218
C           -3.40315012603618       -0.29484626713228       -0.98001810144725
C           -6.17970563188130       -1.00037195183703        1.22915555625322
C           -7.41115552903434       -1.61171466082445        1.28474662552374
H           -8.33384267050497       -1.24814382563717       -1.96113220349177
H           -6.12352702763495       -0.16769552873379       -2.05206915497128
H           -6.03573493774451        1.40108936879805        1.70152229797987
H           -5.44956282882863        3.13529807004072        3.32444081678092
H           -3.12361173058005        3.98173046222988        3.44463838208075
H           -1.44334094805776        3.16317836521225        1.85953186128404
H           -1.30823522018697        4.03659535114261       -0.47536126324974
H            0.89269409211429        5.12903936908533       -0.58295160128446
H            2.96492823068964        3.76635093755804       -0.40902125733628
H            6.89020217362640        2.50339543007931       -0.15227794143546
H            9.36873245588867        2.28455076484665       -0.08922621647609
H           10.37586559026314        0.04107702341262        0.12125185453212
H            8.98938344444606       -1.93555727926065        0.26547984268864
H            7.82306507667161       -3.52679615680101        0.37501233231019
H            6.35613156574847       -5.44585995182805        0.51021630080876
H            3.90366629666112       -5.17563505789762        0.44485650799991
H            2.93487986824332       -2.90312860023085        0.23846809897321
H            0.59691991998448        0.24270971462592        0.01872777033515
H           -0.35692377588310        0.55423759634120       -2.24675276405217
H           -0.84787029457395       -1.34388368011760       -3.71512535326574
H           -2.92466613680689       -2.65545208096305       -3.38560741373547
H           -4.53366552937210       -1.98337421246637       -1.66940804643173
H           -5.56430140792428       -0.95037417250304        2.11561783852050
H           -7.77675767565600       -2.02564782342929        2.21320749874071

 projected vibrational frequencies (cm⁻¹)
eigval :       -0.00    -0.00    -0.00    -0.00    -0.00     0.00
eigval :        8.55    10.54    13.12    27.46    37.08    48.02
eigval :       55.78    61.97    71.85    78.73    80.95    86.73
eigval :      116.84   118.11   125.86   134.67   139.07   179.36
eigval :      180.12   190.76   207.21   216.94   229.84   239.00
eigval :      248.73   250.79   273.06   279.04   286.32   339.62
eigval :      352.14   360.11   368.05   388.76   392.52   394.40
eigval :      399.10   400.88   417.33   418.14   427.91   439.15
eigval :      441.18   450.10   469.20   472.06   503.09   512.08
eigval :      529.60   533.12   534.97   543.64   569.52   582.12
eigval :      583.75   587.12   599.71   603.91   608.83   622.15
eigval :      639.95   656.85   662.84   667.28   670.19   673.59
eigval :      681.05   688.47   694.59   704.38   717.14   738.30
eigval :      740.39   748.27   761.31   767.95   771.76   784.27
eigval :      787.13   800.18   816.57   845.92   848.58   866.58
eigval :      869.35   877.00   886.60   891.38   893.14   901.00
eigval :      905.15   908.40   909.29   910.05   915.58   916.26
eigval :      922.70   925.55   925.96   927.68   930.83   934.87
eigval :      941.18   945.45   983.57   995.73  1014.82  1019.28
eigval :     1054.78  1081.87  1088.64  1099.68  1101.66  1104.50
eigval :     1113.97  1117.79  1128.11  1135.11  1142.95  1158.26
eigval :     1178.65  1180.52  1181.34  1182.66  1183.47  1183.96
eigval :     1186.27  1188.41  1211.19  1231.90  1239.04  1245.79
eigval :     1253.02  1254.80  1255.81  1259.74  1267.68  1278.96
eigval :     1281.17  1297.27  1306.50  1310.01  1312.58  1321.51
eigval :     1338.83  1343.52  1344.58  1363.56  1372.13  1377.72
eigval :     1401.18  1402.33  1405.24  1407.96  1411.31  1426.29
eigval :     1430.96  1435.36  1454.74  1464.36  1477.90  1486.63
eigval :     1516.64  1517.12  1517.49  1518.43  1531.31  1549.38
eigval :     1553.96  1557.08  1561.68  1568.81  1571.98  1578.97
eigval :     1595.14  1605.53  2357.50  3076.49  3078.53  3079.03
eigval :     3079.31  3080.52  3081.70  3082.01  3085.14  3087.78
eigval :     3088.86  3089.09  3090.07  3091.30  3091.57  3092.86
eigval :     3095.43  3096.89  3097.39  3099.88  3100.80  3101.47
eigval :     3105.02  3111.07  3119.17

   temp. (K)  partition function   enthalpy   heat capacity  entropy
                                   cal/mol     cal/K/mol   cal/K/mol   J/K/mol
 298.15  VIB  0.233E+16            19950.449    128.316    123.903
         ROT  0.799E+08              888.752      2.981     39.143
         INT  0.186E+24            20839.201    131.297    163.045
         TR   0.133E+29             1481.254      4.968     44.899
         TOT                       22320.4549   136.2654   207.9447   870.0404

       T/K    H(0)-H(T)+PV         H(T)/Eh          T*S/Eh         G(T)/Eh
   ------------------------------------------------------------------------
    298.15    0.355699E-01    0.549506E+00    0.988012E-01    0.450705E+00
   ------------------------------------------------------------------------

         :::::::::::::::::::::::::::::::::::::::::::::::::::::
         ::                  THERMODYNAMIC                  ::
         :::::::::::::::::::::::::::::::::::::::::::::::::::::
         :: total free energy        -111.580474325163 Eh   ::
         ::.................................................::
         :: total energy             -112.031178831683 Eh   ::
         :: zero point energy           0.513935812157 Eh   ::
         :: G(RRHO) w/o ZPVE           -0.063231305637 Eh   ::
         :: G(RRHO) contrib.            0.450704506520 Eh   ::
         :::::::::::::::::::::::::::::::::::::::::::::::::::::

           -------------------------------------------------
          | TOTAL ENERGY             -112.031178831683 Eh   |
          | TOTAL ENTHALPY           -111.481673110576 Eh   |
          | TOTAL FREE ENERGY        -111.580474325163 Eh   |
          | GRADIENT NORM               0.000032928225 Eh/α |
           -------------------------------------------------

 * finished run on 2025/09/02 at 19:01:06.913
