   * xtb version 6.7.1 (edcfbbe) compiled by 'albert@albert-system' on 2024-07-22

   ID    Z sym.   atoms
    1    7 N      1, 21
    2    6 C      2-20, 22-35, 37-45
    3    8 O      36
    4    1 H      46-69

          program call               : xtb data2507/gas/m-PO-ABN/m-PO-ABN.xyz --gfn 2 --ohess vtight --parallel 40 --molden --ceasefiles --namespace data2507/gas/m-PO-ABN/m-PO-ABN_gas_S0_preOpt
          :  Hamiltonian                  GFN2-xTB          :
 * total energy  :  -112.0739020 Eh     change       -0.4266241E-08 Eh
 * total energy  :  -112.0886164 Eh     change       -0.1471441E-01 Eh
 * total energy  :  -112.0925169 Eh     change       -0.3900480E-02 Eh
 * total energy  :  -112.0930646 Eh     change       -0.5476420E-03 Eh
 * total energy  :  -112.0932559 Eh     change       -0.1913702E-03 Eh
 * total energy  :  -112.0933074 Eh     change       -0.5150449E-04 Eh
 * total energy  :  -112.0933415 Eh     change       -0.3405294E-04 Eh
 * total energy  :  -112.0933512 Eh     change       -0.9731490E-05 Eh
 * total energy  :  -112.0933890 Eh     change       -0.3774310E-04 Eh
 * total energy  :  -112.0934063 Eh     change       -0.1735714E-04 Eh
 * total energy  :  -112.0934780 Eh     change       -0.1501604E-06 Eh
 * total energy  :  -112.0934781 Eh     change       -0.1390178E-06 Eh
 * total energy  :  -112.0934783 Eh     change       -0.1494892E-06 Eh
 * total energy  :  -112.0934784 Eh     change       -0.1582751E-06 Eh
 * total energy  :  -112.0934786 Eh     change       -0.1653299E-06 Eh
 * total energy  :  -112.0934788 Eh     change       -0.1642041E-06 Eh
 * total energy  :  -112.0934789 Eh     change       -0.1606335E-06 Eh
 * total energy  :  -112.0934791 Eh     change       -0.1546074E-06 Eh
 * total energy  :  -112.0934791 Eh     change       -0.3443944E-08 Eh
   *** GEOMETRY OPTIMIZATION CONVERGED AFTER 44 ITERATIONS ***

 final structure:
================
69
 xtb: 6.7.1 (edcfbbe)
N          -10.46038253137488       -3.13440461018933        0.00371486997255
C           -9.45049494042259       -2.59153673298700        0.00304618202154
C           -8.20536458873925       -1.92258189184580        0.00226547122849
C           -8.16294043207789       -0.52766795029617       -0.00005153125080
C           -6.94401322635985        0.11969879369677       -0.00083248383773
C           -5.75646835260116       -0.60738226382671        0.00073875160931
C           -4.45029816651324        0.09022099734299        0.00004061101930
C           -3.83696606669909        0.41422934616697        1.21614069028336
C           -4.43757582955295        0.10133515649149        2.46399479194217
C           -3.82785378399627        0.42233287643908        3.63725405519844
C           -2.57837444195012        1.07568850572251        3.63608556160501
C           -1.96908355824366        1.39292311674825        2.46158030271473
C           -2.57077438754606        1.07742702079121        1.21498119415085
C           -1.95567926413139        1.39759146939466       -0.00120920505641
C           -0.63825408767298        2.07595535649660       -0.00181232020472
C           -0.55876133106783        3.46527301377119       -0.00286456116743
C            0.67529623438120        4.09564511803506       -0.00324759484921
C            1.83882767245331        3.35229893716384       -0.00261372308564
C            1.76953792045271        1.95856930169880       -0.00161841091078
C            2.98898524382157        1.18320782393607       -0.00099224233381
N            4.19909055447163        1.66345153234516       -0.00063527879396
C            5.01689030385891        0.57066238476598       -0.00010093459413
C            6.43728124617827        0.48215966052844        0.00050473493238
C            7.24038402917978        1.62653439828360        0.00070862423006
C            8.60850555787439        1.51275710763716        0.00134328647002
C            9.19000402445964        0.24656503612909        0.00178048994708
C            8.40985756483098       -0.88619727420792        0.00157467421883
C            7.00833605376095       -0.81416635796203        0.00092907796538
C            6.16581435107524       -1.99838774895655        0.00070600928553
C            6.68786520988945       -3.30011984200708        0.00098724498319
C            5.87139577533179       -4.40735975247128        0.00076370209955
C            4.48458827910854       -4.27127064544745        0.00025250528856
C            3.93021008061733       -3.01615446101595       -0.00004036118927
C            4.75151133365213       -1.88171003631773        0.00016944763312
C            4.22670348913897       -0.56755094406593       -0.00018869543891
O            2.93234340280196       -0.17505934239255       -0.00073756248140
C            0.52830097005626        1.32585229934097       -0.00121258193999
C           -2.57189482010030        1.07724095759717       -1.21677876157320
C           -1.97126826674472        1.39239198310286       -2.46397817653965
C           -2.58156793218644        1.07483940965183       -3.63787362049647
C           -3.83102085700850        0.42142890533074       -3.63779247971187
C           -4.43972552278311        0.10072543105245       -2.46392467563272
C           -3.83809539364440        0.41405235587270       -1.21667135459194
C           -5.80650711730934       -1.99911492959284        0.00305203629608
C           -7.01917750201742       -2.65781530372165        0.00379637585190
H           -9.08514362408945        0.03467230591429       -0.00120295907359
H           -6.90327712526058        1.19911602293455       -0.00263644151546
H           -5.39503232385137       -0.39937401156594        2.46451572098072
H           -4.29592966839709        0.17919407738547        4.57971873079277
H           -2.11045838001641        1.32149911732524        4.57788058383481
H           -1.01190964292800        1.89353876641989        2.45765543072534
H           -1.46933789532274        4.04664044953154       -0.00334114418615
H            0.72519058521251        5.17435770409501       -0.00403510429010
H            2.80907255637944        3.82187660136032       -0.00287979330653
H            6.75122176588173        2.58824373277132        0.00036851250496
H            9.23265209596260        2.39386485880219        0.00151258112401
H           10.26624525743827        0.15255180558132        0.00229217067326
H            8.90279594893473       -1.84524968953023        0.00193893267516
H            7.75498007436203       -3.45349807749772        0.00137338851228
H            6.31047921546572       -5.39421933374419        0.00098255716451
H            3.85464459893799       -5.14816632397203        0.00007889217689
H            2.85920671239449       -2.87771088596133       -0.00045212151013
H            0.47469190321672        0.24730533504476       -0.00040033866019
H           -1.01406084829354        1.89295185123281       -2.46100191826949
H           -2.11445193823394        1.32037250058282       -4.58013824374485
H           -4.29986171150272        0.17795577208400       -4.57979071160928
H           -5.39710397875254       -0.40013414819085       -2.46348333977252
H           -4.88408751304320       -2.56116775501854        0.00423937693717
H           -7.05971296114301       -3.73720088381364        0.00556910257045

          :  Hamiltonian                  GFN2-xTB          :
         :: gradient norm              0.000031067942 Eh/a0 ::
         :: HOMO-LUMO gap              2.197175211563 eV    ::
         :: SCC energy              -114.221962980542 Eh    ::
         :: -> dispersion             -0.096894019174 Eh    ::
         :: repulsion energy           2.128483891613 Eh    ::

    * Orbital Energies and Occupations

         #    Occupation            Energy/Eh            Energy/eV
      -------------------------------------------------------------
         1        2.0000           -0.7511339             -20.4394
       ...           ...                  ...                  ...
        92        2.0000           -0.4220268             -11.4839
        93        2.0000           -0.4197960             -11.4232
        94        2.0000           -0.4183531             -11.3840
        95        2.0000           -0.4155717             -11.3083
        96        2.0000           -0.4144926             -11.2789
        97        2.0000           -0.4124360             -11.2230
        98        2.0000           -0.4104512             -11.1689
        99        2.0000           -0.4078720             -11.0988
       100        2.0000           -0.4065315             -11.0623
       101        2.0000           -0.3949336             -10.7467
       102        2.0000           -0.3910876             -10.6420
       103        2.0000           -0.3753210             -10.2130
       104        2.0000           -0.3687893             -10.0353 (HOMO)
       105                         -0.2880446              -7.8381 (LUMO)
       106                         -0.2759467              -7.5089
       107                         -0.2739342              -7.4541
       108                         -0.2573793              -7.0036
       109                         -0.2504843              -6.8160
       110                         -0.2459497              -6.6926
       111                         -0.2395772              -6.5192
       112                         -0.2344471              -6.3796
       113                         -0.2288149              -6.2264
       114                         -0.2154637              -5.8631
       115                         -0.2063945              -5.6163
       ...                                ...                  ...
       204                          1.1708063              31.8593
      -------------------------------------------------------------
                  HL-Gap            0.0807447 Eh            2.1972 eV

     #   Z          covCN         q      C6AA      α(0)
     1   7 N        0.911    -0.235    26.149     7.396
     2   6 C        1.912     0.111    28.352     8.599
     3   6 C        2.974     0.017    27.630     8.622
     4   6 C        2.925    -0.020    28.517     8.757
     5   6 C        2.923    -0.029    28.723     8.789
     6   6 C        2.977     0.026    27.420     8.589
     7   6 C        2.978    -0.009    28.231     8.715
     8   6 C        2.984     0.007    27.855     8.657
     9   6 C        2.917    -0.034    28.847     8.807
    10   6 C        2.914    -0.028    28.705     8.786
    11   6 C        2.914    -0.028    28.712     8.787
    12   6 C        2.917    -0.033    28.816     8.803
    13   6 C        2.985     0.007    27.853     8.657
    14   6 C        2.979    -0.005    28.135     8.701
    15   6 C        2.976     0.018    27.591     8.616
    16   6 C        2.924    -0.030    28.753     8.793
    17   6 C        2.917    -0.026    28.664     8.779
    18   6 C        2.925    -0.031    28.769     8.796
    19   6 C        2.974    -0.002    28.063     8.689
    20   6 C        3.235     0.215    22.744     7.738
    21   7 N        1.883    -0.290    28.381     7.897
    22   6 C        3.169     0.056    26.401     8.395
    23   6 C        2.986     0.002    27.981     8.677
    24   6 C        2.921    -0.029    28.720     8.788
    25   6 C        2.917    -0.029    28.716     8.787
    26   6 C        2.917    -0.030    28.759     8.794
    27   6 C        2.922    -0.033    28.817     8.803
    28   6 C        2.978    -0.000    28.030     8.685
    29   6 C        2.981     0.003    27.961     8.674
    30   6 C        2.921    -0.032    28.793     8.799
    31   6 C        2.917    -0.030    28.754     8.793
    32   6 C        2.917    -0.029    28.723     8.788
    33   6 C        2.920    -0.030    28.760     8.794
    34   6 C        2.983    -0.006    28.156     8.704
    35   6 C        3.117     0.107    25.490     8.270
    36   8 O        1.724    -0.220    17.640     5.671
    37   6 C        2.928    -0.032    28.791     8.800
    38   6 C        2.985     0.007    27.853     8.657
    39   6 C        2.917    -0.033    28.816     8.803
    40   6 C        2.914    -0.028    28.712     8.787
    41   6 C        2.914    -0.028    28.705     8.786
    42   6 C        2.917    -0.034    28.847     8.807
    43   6 C        2.984     0.007    27.855     8.657
    44   6 C        2.923    -0.029    28.721     8.789
    45   6 C        2.925    -0.020    28.516     8.757
    46   1 H        0.926     0.042     2.418     2.432
    47   1 H        0.926     0.039     2.466     2.456
    48   1 H        0.926     0.028     2.613     2.528
    49   1 H        0.926     0.032     2.558     2.501
    50   1 H        0.926     0.032     2.554     2.499
    51   1 H        0.926     0.032     2.556     2.500
    52   1 H        0.926     0.036     2.499     2.472
    53   1 H        0.926     0.041     2.440     2.443
    54   1 H        0.926     0.058     2.219     2.329
    55   1 H        0.926     0.052     2.292     2.368
    56   1 H        0.926     0.034     2.523     2.484
    57   1 H        0.926     0.033     2.548     2.496
    58   1 H        0.926     0.035     2.517     2.481
    59   1 H        0.926     0.038     2.477     2.461
    60   1 H        0.926     0.034     2.530     2.488
    61   1 H        0.926     0.034     2.529     2.487
    62   1 H        0.926     0.040     2.453     2.449
    63   1 H        0.926     0.044     2.400     2.422
    64   1 H        0.926     0.032     2.556     2.500
    65   1 H        0.926     0.032     2.554     2.499
    66   1 H        0.926     0.032     2.558     2.501
    67   1 H        0.926     0.028     2.613     2.528
    68   1 H        0.926     0.039     2.467     2.456
    69   1 H        0.926     0.042     2.418     2.432

molecular dipole:
                 x           y           z       tot (Debye)
 q only:        1.184       0.624      -0.001
   full:        1.447       0.456      -0.001       3.857

 projected vibrational frequencies (cm⁻¹)
eigval :       -0.00    -0.00    -0.00    -0.00     0.00     0.00
eigval :      -26.77    -8.85    10.31    10.62    32.03    32.41
eigval :       39.30    58.79    67.78    74.40    76.34    86.23
eigval :      103.71   114.22   119.64   124.34   134.98   177.58
eigval :      180.25   190.28   204.62   209.48   215.47   226.34
eigval :      235.72   247.39   259.23   279.19   282.87   337.33
eigval :      353.70   358.90   382.23   392.71   398.12   398.88
eigval :      400.78   409.09   424.89   431.12   439.48   443.59
eigval :      446.77   457.69   459.08   472.13   504.14   514.06
eigval :      529.01   534.12   535.07   550.37   581.46   583.53
eigval :      586.53   599.38   606.10   609.16   609.96   634.88
eigval :      647.87   656.97   664.78   667.03   669.49   681.01
eigval :      692.00   693.64   695.70   706.61   737.13   738.24
eigval :      745.23   768.09   771.87   774.97   775.22   784.51
eigval :      792.80   798.17   812.86   866.82   869.82   873.45
eigval :      875.13   877.14   882.86   898.01   903.99   910.17
eigval :      915.37   915.75   917.20   917.72   918.04   925.68
eigval :      925.83   926.31   927.97   928.12   928.42   929.87
eigval :      933.59   941.04   983.52   998.31  1018.91  1021.46
eigval :     1054.89  1078.21  1079.11  1081.86  1088.38  1099.69
eigval :     1118.35  1130.96  1135.23  1141.70  1145.99  1158.40
eigval :     1179.82  1180.03  1182.72  1182.94  1183.73  1185.49
eigval :     1198.52  1206.73  1213.48  1226.79  1241.59  1252.80
eigval :     1254.52  1255.83  1258.92  1263.40  1266.40  1279.53
eigval :     1291.49  1305.80  1312.02  1319.08  1331.20  1343.36
eigval :     1344.58  1350.00  1372.13  1385.80  1392.02  1402.60
eigval :     1405.69  1412.33  1420.50  1430.13  1431.23  1435.37
eigval :     1445.20  1463.31  1483.68  1495.86  1517.10  1517.69
eigval :     1527.23  1535.44  1544.47  1549.07  1550.60  1563.61
eigval :     1572.20  1576.07  1589.45  1591.06  1595.39  1605.72
eigval :     1608.35  1623.28  2375.53  3074.90  3074.97  3076.06
eigval :     3078.11  3078.83  3078.91  3079.83  3082.42  3083.69
eigval :     3085.06  3087.33  3087.37  3087.70  3090.63  3093.87
eigval :     3093.95  3094.11  3094.24  3095.23  3095.36  3099.89
eigval :     3104.99  3110.66  3116.85

   temp. (K)  partition function   enthalpy   heat capacity  entropy
                                   cal/mol     cal/K/mol   cal/K/mol   J/K/mol
 298.15  VIB  0.127E+16            19460.181    125.616    120.721
         ROT  0.804E+08              888.752      2.981     39.153
         INT  0.102E+24            20348.933    128.597    159.874
         TR   0.133E+29             1481.254      4.968     44.899
         TOT                       21830.1873   133.5652   204.7732   856.7713

       T/K    H(0)-H(T)+PV         H(T)/Eh          T*S/Eh         G(T)/Eh
   ------------------------------------------------------------------------
    298.15    0.347886E-01    0.550743E+00    0.972944E-01    0.453449E+00
   ------------------------------------------------------------------------

         :::::::::::::::::::::::::::::::::::::::::::::::::::::
         ::                  THERMODYNAMIC                  ::
         :::::::::::::::::::::::::::::::::::::::::::::::::::::
         :: total free energy        -111.640030159946 Eh   ::
         ::.................................................::
         :: total energy             -112.093479088929 Eh   ::
         :: zero point energy           0.515954689616 Eh   ::
         :: G(RRHO) w/o ZPVE           -0.062505760633 Eh   ::
         :: G(RRHO) contrib.            0.453448928982 Eh   ::
         :::::::::::::::::::::::::::::::::::::::::::::::::::::

           -------------------------------------------------
          | TOTAL ENERGY             -112.093479088929 Eh   |
          | TOTAL ENTHALPY           -111.542735781469 Eh   |
          | TOTAL FREE ENERGY        -111.640030159946 Eh   |
          | GRADIENT NORM               0.000031087625 Eh/α |
          | HOMO-LUMO GAP               2.197175240121 eV   |
           -------------------------------------------------

 * finished run on 2025/09/02 at 18:57:14.357
