   * xtb version 6.7.1 (edcfbbe) compiled by 'albert@albert-system' on 2024-07-22

   ID    Z sym.   atoms
    1    6 C      1-6, 8-20, 22-34, 36-41, 43-48
    2    7 N      7
    3    9 F      21, 35
    4    8 O      42
    5    1 H      49-85

          program call               : xtb data2507/gas/DFPFPhe/DFPFPhe_gas_S0_crest.xyz --gfn 2 --ohess vtight --parallel 40 --molden --ceasefiles --namespace data2507/gas/DFPFPhe/DFPFPhe_gas_S0_finalOpt
          :  Hamiltonian                  GFN2-xTB          :
 * total energy  :  -129.5762683 Eh     change       -0.5449124E-08 Eh
 * total energy  :  -129.5762707 Eh     change       -0.2407936E-05 Eh
 * total energy  :  -129.5762727 Eh     change       -0.1976521E-05 Eh
 * total energy  :  -129.5762753 Eh     change       -0.2585517E-05 Eh
 * total energy  :  -129.5762776 Eh     change       -0.2334768E-05 Eh
 * total energy  :  -129.5762798 Eh     change       -0.2188270E-05 Eh
 * total energy  :  -129.5762822 Eh     change       -0.2416959E-05 Eh
 * total energy  :  -129.5762851 Eh     change       -0.2921719E-05 Eh
 * total energy  :  -129.5762885 Eh     change       -0.3342272E-05 Eh
 * total energy  :  -129.5762917 Eh     change       -0.3254473E-05 Eh
 * total energy  :  -129.5763428 Eh     change       -0.1113609E-05 Eh
 * total energy  :  -129.5763440 Eh     change       -0.1113172E-05 Eh
 * total energy  :  -129.5763450 Eh     change       -0.1088573E-05 Eh
 * total energy  :  -129.5763461 Eh     change       -0.1013928E-05 Eh
 * total energy  :  -129.5763470 Eh     change       -0.9351025E-06 Eh
 * total energy  :  -129.5763479 Eh     change       -0.8633181E-06 Eh
 * total energy  :  -129.5763487 Eh     change       -0.8083880E-06 Eh
 * total energy  :  -129.5763494 Eh     change       -0.7750060E-06 Eh
 * total energy  :  -129.5763495 Eh     change       -0.7027666E-08 Eh
   *** GEOMETRY OPTIMIZATION CONVERGED AFTER 44 ITERATIONS ***

 final structure:
================
85
 xtb: 6.7.1 (edcfbbe)
C           -2.68059254698172       -4.12644894305825       -2.99911687097032
C           -2.36383853629690       -2.65456923633748       -2.76653421757490
C           -3.63083014543464       -1.80504570980261       -2.71735311541781
C           -3.31644422667700       -0.32786976275053       -2.50044580353331
C           -4.58721824462283        0.51544101950749       -2.42612456658550
C           -4.29821493323672        2.01921797625570       -2.33072859739623
N           -3.60418226941842        2.37827989745577       -1.11374203134527
C           -2.21343586600234        2.46775588162801       -1.09396193274711
C           -1.40853090448220        2.47838647361250       -2.17024583576111
C            0.08787785739678        2.52671324381461       -2.05247534548504
C            0.54749216256878        1.88297453153562       -0.77664495240619
C            1.56568083565375        1.01782219902319       -0.72330810399293
C            1.94973657156780        0.25592416645039        0.51222758702346
C            1.03725480484051       -0.92866199406081        0.74239871810770
C           -0.33503195589095       -0.95312778305965        0.78531674342279
C           -1.00201006529057       -2.15461194719128        1.03698711052550
C           -2.47163646600969       -2.16199562712771        1.06633259729388
C           -3.19569536990107       -3.27503445611532        0.63953776189197
C           -4.57731851321052       -3.26020243384111        0.61233933570214
C           -5.24114234854261       -2.11651411807092        1.01720558563771
F           -6.59183210010563       -2.08981010289211        0.97352777852348
C           -4.55869415306327       -0.99984836971602        1.46342672803781
C           -3.17820788750262       -1.03371305420592        1.48852518605642
C           -0.24984297967837       -3.31520397504003        1.23376357151611
C            1.13188476255039       -3.30219629235256        1.15923130461883
C            1.78359996636465       -2.10480841442545        0.90250679187900
C            3.18842356021755       -1.77996226568308        0.73499032284235
C            4.32278917049627       -2.57497295035482        0.77392416576516
C            5.55603622922527       -1.98917421503084        0.55350600385398
C            5.67804339850616       -0.62242283536917        0.29921509258739
C            7.00273914442880       -0.02427669688544        0.07946696976891
C            7.32416511093831        1.20938487211533        0.64363559635330
C            8.56926367255804        1.77663747393918        0.45141551845068
C            9.49673147970744        1.10003156151658       -0.31937585710362
F           10.71593382015063        1.64876406493024       -0.51335009560705
C            9.20982020203924       -0.12316142644147       -0.89702463935716
C            7.96196997439964       -0.67964374516293       -0.69089778727009
C            4.53151903373540        0.17561584813284        0.26635956781377
C            3.30180754489307       -0.40244449340796        0.48038104580339
C           -0.26358650344946        2.24275646021121        0.36723529425010
C           -1.56773840471401        2.53903244134005        0.22045149228723
O           -2.28241710602793        2.85653438603196        1.33350783125097
C           -3.64562913519207        2.76080536193993        1.27075830078957
C           -4.32817788700414        2.92808834436438        2.46450143550956
C           -5.70459631241271        2.80546158464328        2.50439925130384
C           -6.38547559630895        2.50236941492055        1.33898543661143
C           -5.70742549845850        2.33898151099881        0.14434342114395
C           -4.31919878307882        2.47677897337340        0.07165438286172
H           -3.18187395277668       -4.26275645227780       -3.95503886969762
H           -1.76880198394371       -4.71913713264630       -3.00200330488817
H           -3.33513174225578       -4.50203881652622       -2.21608672699086
H           -1.81815216556410       -2.54009338667764       -1.82725488196967
H           -1.71686427590839       -2.29212711190190       -3.56870543307070
H           -4.18216888997352       -1.92434651265015       -3.65346248853475
H           -4.27109544055180       -2.16037410044792       -1.90715826523321
H           -2.68826844445437        0.02750373176007       -3.32018385285598
H           -2.74614469795645       -0.21812798949438       -1.57554454130352
H           -5.19001127512833        0.34262750507046       -3.32056752865412
H           -5.17189252346050        0.19735174324237       -1.56070125363100
H           -5.23149724286334        2.58615376959347       -2.38141146103960
H           -3.69621929432976        2.32736818820489       -3.18375931328810
H           -1.78722223866870        2.47440321133960       -3.17768631821538
H            0.54323996117185        2.03762997224862       -2.91522216676981
H            0.41532113916837        3.57674331903840       -2.06362438354814
H            2.10913024787423        0.76470860714955       -1.62241742900498
H            1.89198476329969        0.92157339355979        1.38251819148536
H           -0.89274899710741       -0.05083862312284        0.59952349155003
H           -2.67296797784082       -4.15569303908800        0.29967659700547
H           -5.14160183866097       -4.11615734172935        0.27553934152701
H           -5.10327504820556       -0.12502595737899        1.78345178131051
H           -2.64548960233307       -0.17268535452932        1.86184960893060
H           -0.75455669659914       -4.24239247333463        1.46164690373011
H            1.69201913607464       -4.21455405281010        1.30182752068889
H            4.24880255840903       -3.63326667108757        0.97560558422662
H            6.44882507954184       -2.59539363878949        0.60148679183330
H            6.59774973923631        1.71996498341660        1.25777202014287
H            8.82817593059438        2.72714202565713        0.89084488498864
H            9.95564345554252       -0.62110737996549       -1.49649389847831
H            7.72086777930330       -1.62648814734151       -1.15020213951811
H            4.61088381083682        1.23170402607092        0.05233900595019
H            0.15541853343335        2.22122651072364        1.36140840755014
H           -3.75402286063947        3.14803992630110        3.35065079430146
H           -6.23371000177074        2.93460391404059        3.43509963929573
H           -7.45846765858164        2.38617453102844        1.35222228369234
H           -6.28286393153066        2.09828555838624       -0.73299718308029

          :  Hamiltonian                  GFN2-xTB          :
         :: gradient norm              0.000070337213 Eh/a0 ::
         :: HOMO-LUMO gap              2.146972195043 eV    ::
         :: SCC energy              -131.723356319239 Eh    ::
         :: -> dispersion             -0.116543639451 Eh    ::
         :: repulsion energy           2.147006867041 Eh    ::

    * Orbital Energies and Occupations

         #    Occupation            Energy/Eh            Energy/eV
      -------------------------------------------------------------
         1        2.0000           -0.8129384             -22.1212
       ...           ...                  ...                  ...
       107        2.0000           -0.4206197             -11.4456
       108        2.0000           -0.4195966             -11.4178
       109        2.0000           -0.4188978             -11.3988
       110        2.0000           -0.4173466             -11.3566
       111        2.0000           -0.4116631             -11.2019
       112        2.0000           -0.4098335             -11.1521
       113        2.0000           -0.4073302             -11.0840
       114        2.0000           -0.3989716             -10.8566
       115        2.0000           -0.3982658             -10.8374
       116        2.0000           -0.3977803             -10.8242
       117        2.0000           -0.3743924             -10.1877
       118        2.0000           -0.3551283              -9.6635
       119        2.0000           -0.3478568              -9.4657 (HOMO)
       120                         -0.2689570              -7.3187 (LUMO)
       121                         -0.2548323              -6.9343
       122                         -0.2433862              -6.6229
       123                         -0.2377594              -6.4698
       124                         -0.2375912              -6.4652
       125                         -0.2261550              -6.1540
       126                         -0.2229640              -6.0672
       127                         -0.2205823              -6.0024
       128                         -0.2178721              -5.9286
       129                         -0.2165209              -5.8918
       130                         -0.1810315              -4.9261
       ...                                ...                  ...
       229                          0.7324028              19.9297
      -------------------------------------------------------------
                  HL-Gap            0.0788998 Eh            2.1470 eV

     #   Z          covCN         q      C6AA      α(0)
     1   6 C        3.752    -0.102    22.513     6.766
     2   6 C        3.801    -0.053    21.525     6.605
     3   6 C        3.804    -0.060    21.652     6.625
     4   6 C        3.803    -0.056    21.583     6.614
     5   6 C        3.802    -0.064    21.720     6.635
     6   6 C        3.748    -0.005    20.736     6.495
     7   7 N        2.742    -0.066    22.526     7.049
     8   6 C        2.904     0.036    27.194     8.551
     9   6 C        2.910    -0.079    29.972     8.977
    10   6 C        3.817    -0.060    21.634     6.620
    11   6 C        2.957     0.005    27.898     8.663
    12   6 C        2.901    -0.053    29.310     8.877
    13   6 C        3.893    -0.022    20.919     6.502
    14   6 C        3.055     0.005    27.853     8.655
    15   6 C        2.923    -0.044    29.093     8.845
    16   6 C        2.977     0.007    27.866     8.659
    17   6 C        2.974     0.009    27.808     8.650
    18   6 C        2.929    -0.032    28.792     8.800
    19   6 C        2.915    -0.049    29.218     8.864
    20   6 C        2.788     0.166    24.406     8.092
    21   9 F        0.787    -0.232    11.569     4.018
    22   6 C        2.914    -0.049    29.225     8.865
    23   6 C        2.931    -0.032    28.806     8.802
    24   6 C        2.924    -0.038    28.955     8.824
    25   6 C        2.913    -0.035    28.864     8.810
    26   6 C        3.034    -0.000    28.003     8.680
    27   6 C        3.039    -0.000    28.001     8.679
    28   6 C        2.912    -0.034    28.853     8.808
    29   6 C        2.926    -0.038    28.950     8.824
    30   6 C        2.978     0.007    27.861     8.658
    31   6 C        2.976     0.008    27.832     8.654
    32   6 C        2.930    -0.034    28.840     8.807
    33   6 C        2.915    -0.049    29.226     8.865
    34   6 C        2.788     0.167    24.388     8.089
    35   9 F        0.787    -0.230    11.549     4.014
    36   6 C        2.915    -0.049    29.226     8.865
    37   6 C        2.929    -0.034    28.845     8.808
    38   6 C        2.919    -0.041    29.022     8.834
    39   6 C        3.049     0.004    27.895     8.662
    40   6 C        2.911    -0.074    29.856     8.960
    41   6 C        2.880     0.127    25.206     8.231
    42   8 O        1.711    -0.248    18.107     5.745
    43   6 C        2.890     0.120    25.366     8.257
    44   6 C        2.919    -0.056    29.390     8.890
    45   6 C        2.918    -0.043    29.071     8.842
    46   6 C        2.919    -0.039    28.980     8.828
    47   6 C        2.924    -0.062    29.542     8.913
    48   6 C        2.916     0.041    27.092     8.535
    49   1 H        0.925     0.034     2.525     2.485
    50   1 H        0.925     0.033     2.539     2.492
    51   1 H        0.925     0.034     2.529     2.487
    52   1 H        0.924     0.028     2.609     2.526
    53   1 H        0.924     0.029     2.595     2.519
    54   1 H        0.924     0.032     2.564     2.504
    55   1 H        0.924     0.029     2.595     2.519
    56   1 H        0.924     0.032     2.558     2.501
    57   1 H        0.924     0.028     2.608     2.526
    58   1 H        0.924     0.038     2.478     2.462
    59   1 H        0.924     0.041     2.433     2.439
    60   1 H        0.924     0.046     2.370     2.407
    61   1 H        0.925     0.050     2.316     2.380
    62   1 H        0.926     0.027     2.622     2.532
    63   1 H        0.924     0.043     2.409     2.427
    64   1 H        0.923     0.049     2.336     2.390
    65   1 H        0.926     0.030     2.589     2.516
    66   1 H        0.924     0.060     2.194     2.316
    67   1 H        0.926     0.036     2.497     2.471
    68   1 H        0.926     0.047     2.355     2.400
    69   1 H        0.926     0.052     2.289     2.366
    70   1 H        0.926     0.055     2.264     2.353
    71   1 H        0.926     0.044     2.398     2.422
    72   1 H        0.926     0.033     2.548     2.496
    73   1 H        0.926     0.032     2.553     2.499
    74   1 H        0.926     0.032     2.552     2.498
    75   1 H        0.926     0.032     2.553     2.499
    76   1 H        0.926     0.045     2.386     2.416
    77   1 H        0.926     0.055     2.254     2.348
    78   1 H        0.926     0.055     2.255     2.349
    79   1 H        0.926     0.045     2.388     2.416
    80   1 H        0.926     0.033     2.546     2.495
    81   1 H        0.926     0.046     2.371     2.408
    82   1 H        0.926     0.046     2.365     2.405
    83   1 H        0.926     0.035     2.515     2.480
    84   1 H        0.926     0.035     2.513     2.479
    85   1 H        0.926     0.037     2.487     2.466

molecular dipole:
                 x           y           z       tot (Debye)
 q only:       -0.533      -0.335      -0.624
   full:       -0.579      -0.283      -0.689       2.398

 projected vibrational frequencies (cm⁻¹)
eigval :       -0.00    -0.00    -0.00     0.00     0.00     0.00
eigval :       11.92    15.57    25.48    26.77    31.56    35.81
eigval :       40.79    44.57    46.16    57.47    64.18    72.41
eigval :       81.75    85.11    87.47    93.04   102.93   116.25
eigval :      129.42   137.96   139.57   149.91   160.32   171.07
eigval :      178.06   182.18   210.15   215.45   236.20   241.17
eigval :      248.87   256.95   259.85   278.46   283.90   308.42
eigval :      326.62   332.90   352.52   360.19   373.28   376.34
eigval :      380.40   384.24   387.61   393.08   403.30   409.07
eigval :      410.87   419.97   431.87   441.82   445.03   452.80
eigval :      472.04   477.06   490.89   497.51   509.90   515.30
eigval :      523.06   531.83   542.30   543.47   563.45   565.19
eigval :      586.62   599.91   605.45   610.73   616.29   621.88
eigval :      639.22   661.18   670.09   676.31   679.16   684.02
eigval :      686.75   703.04   720.98   728.36   753.92   769.95
eigval :      771.69   773.79   791.85   795.84   805.32   812.56
eigval :      820.17   822.94   830.46   832.42   835.34   840.18
eigval :      844.29   855.98   867.63   870.12   875.59   882.85
eigval :      888.22   895.51   896.74   909.66   910.17   912.40
eigval :      914.28   914.52   916.95   920.80   925.06   929.15
eigval :      930.27   939.22   946.79   968.38  1000.18  1009.09
eigval :     1010.46  1011.22  1057.48  1064.14  1072.90  1074.57
eigval :     1077.49  1089.14  1094.49  1109.58  1115.55  1122.31
eigval :     1123.49  1126.40  1130.87  1136.25  1141.73  1149.53
eigval :     1151.52  1161.39  1167.98  1168.21  1172.59  1173.13
eigval :     1182.30  1185.41  1191.81  1198.77  1213.91  1220.45
eigval :     1226.87  1230.76  1233.93  1243.18  1244.32  1252.00
eigval :     1253.72  1259.42  1260.80  1267.62  1271.29  1279.76
eigval :     1285.47  1287.04  1294.22  1299.77  1310.59  1313.54
eigval :     1320.21  1320.81  1322.91  1328.39  1329.86  1331.75
eigval :     1347.51  1353.35  1364.10  1365.22  1380.20  1386.41
eigval :     1400.87  1404.75  1413.77  1421.76  1437.91  1441.53
eigval :     1443.09  1455.48  1463.33  1480.49  1490.15  1491.86
eigval :     1493.84  1495.47  1496.64  1496.90  1500.70  1504.20
eigval :     1509.21  1567.84  1572.43  1577.05  1581.21  1586.22
eigval :     1588.88  1591.29  1595.96  1605.08  1609.81  1624.16
eigval :     1660.77  1670.07  2862.78  2893.37  2956.99  2958.77
eigval :     2965.89  2970.91  2978.19  2981.76  2982.48  2984.69
eigval :     2988.18  2994.44  3023.29  3030.51  3034.85  3039.78
eigval :     3072.31  3076.22  3078.02  3079.45  3087.72  3089.15
eigval :     3089.58  3090.35  3090.47  3091.29  3094.45  3095.85
eigval :     3100.13  3105.22  3107.56  3108.40  3109.01  3110.31
eigval :     3110.77  3125.45  3128.10

   temp. (K)  partition function   enthalpy   heat capacity  entropy
                                   cal/mol     cal/K/mol   cal/K/mol   J/K/mol
 298.15  VIB  0.385E+19            24186.354    150.589    150.874
         ROT  0.835E+08              888.752      2.981     39.228
         INT  0.321E+27            25075.106    153.570    190.102
         TR   0.154E+29             1481.254      4.968     45.202
         TOT                       26556.3604   158.5385   235.3033   984.5088

       T/K    H(0)-H(T)+PV         H(T)/Eh          T*S/Eh         G(T)/Eh
   ------------------------------------------------------------------------
    298.15    0.423203E-01    0.716728E+00    0.111800E+00    0.604928E+00
   ------------------------------------------------------------------------

         :::::::::::::::::::::::::::::::::::::::::::::::::::::
         ::                  THERMODYNAMIC                  ::
         :::::::::::::::::::::::::::::::::::::::::::::::::::::
         :: total free energy        -128.971421600283 Eh   ::
         ::.................................................::
         :: total energy             -129.576349452198 Eh   ::
         :: zero point energy           0.674407767261 Eh   ::
         :: G(RRHO) w/o ZPVE           -0.069479915346 Eh   ::
         :: G(RRHO) contrib.            0.604927851915 Eh   ::
         :::::::::::::::::::::::::::::::::::::::::::::::::::::

           -------------------------------------------------
          | TOTAL ENERGY             -129.576349452198 Eh   |
          | TOTAL ENTHALPY           -128.859621430870 Eh   |
          | TOTAL FREE ENERGY        -128.971421600283 Eh   |
          | GRADIENT NORM               0.000070338091 Eh/α |
          | HOMO-LUMO GAP               2.146972452195 eV   |
           -------------------------------------------------

 * finished run on 2025/09/09 at 14:16:33.196
