   * xtb version 6.7.1 (edcfbbe) compiled by 'albert@albert-system' on 2024-07-22

   ID    Z sym.   atoms
    1    6 C      1-6, 8-20, 22-34, 36-41, 43-48
    2    7 N      7
    3    9 F      21, 35
    4    8 O      42
    5    1 H      49-85

          program call               : xtb data2507/gas/DFPFPhe/DFPFPhe_gas_S0_finalOpt.xtbopt.xyz --gfn 2 --spinpol --tblite --uhf 2 --ohess vtight --parallel 40 --molden --ceasefiles --namespace data2507/gas/DFPFPhe/DFPFPhe_gas_T1_preOpt
 * total energy  :  -129.4863978 Eh     change       -0.8016343E-09 Eh
 * total energy  :  -129.4971750 Eh     change       -0.1077723E-01 Eh
 * total energy  :  -129.5017013 Eh     change       -0.4526333E-02 Eh
 * total energy  :  -129.5023011 Eh     change       -0.5998025E-03 Eh
 * total energy  :  -129.5030539 Eh     change       -0.7527491E-03 Eh
 * total energy  :  -129.5032900 Eh     change       -0.2361529E-03 Eh
 * total energy  :  -129.5034606 Eh     change       -0.1705695E-03 Eh
 * total energy  :  -129.5035571 Eh     change       -0.9645494E-04 Eh
 * total energy  :  -129.5036267 Eh     change       -0.6959536E-04 Eh
 * total energy  :  -129.5036802 Eh     change       -0.5355279E-04 Eh
 * total energy  :  -129.5040013 Eh     change       -0.8633329E-06 Eh
 * total energy  :  -129.5040022 Eh     change       -0.8756538E-06 Eh
 * total energy  :  -129.5040030 Eh     change       -0.8652738E-06 Eh
 * total energy  :  -129.5040038 Eh     change       -0.7989191E-06 Eh
 * total energy  :  -129.5040046 Eh     change       -0.7735056E-06 Eh
 * total energy  :  -129.5040054 Eh     change       -0.7854075E-06 Eh
 * total energy  :  -129.5040064 Eh     change       -0.9590601E-06 Eh
 * total energy  :  -129.5040063 Eh     change        0.6572728E-07 Eh
 * total energy  :  -129.5040064 Eh     change       -0.7972051E-07 Eh
   *** GEOMETRY OPTIMIZATION CONVERGED AFTER 69 ITERATIONS ***

 final structure:
================
85
 xtb: 6.7.1 (edcfbbe)
C           -2.99637757777690       -4.13965525924988       -3.07806416063354
C           -2.62329526096150       -2.67455145211467       -2.89214588414500
C           -3.85684433376295       -1.78029137057782       -2.79810222500166
C           -3.47334290080198       -0.31360168354330       -2.62495096518385
C           -4.69816211058619        0.58919590994614       -2.50279081306572
C           -4.34217813881000        2.07962212346301       -2.38841693113207
N           -3.64459221460254        2.40764330712152       -1.16750472427824
C           -2.24851263736369        2.39033347915301       -1.09966733291614
C           -1.42312251147593        2.21649590243472       -2.20929460417335
C            0.05873031864068        2.19303263448154       -2.11220421795252
C            0.54993010830288        1.83906193596862       -0.73333190156178
C            1.73379717528470        1.10460561767065       -0.61174858724843
C            2.05534157342993        0.31550819312585        0.61535789279358
C            1.12834976021158       -0.87562402955192        0.79764920712963
C           -0.24447916511471       -0.90877664655000        0.81630654658526
C           -0.91336398839500       -2.11739337672504        1.02716286435072
C           -2.38308059131449       -2.12762715083955        1.03237705406940
C           -3.09773249643136       -3.23630758656965        0.57802181248980
C           -4.47893282485159       -3.22695714666076        0.53597242775282
C           -5.15274439245303       -2.09222176374398        0.94976829576133
F           -6.50302816761427       -2.07124930636791        0.89051412957776
C           -4.48039075937632       -0.97927846467279        1.41957086393779
C           -3.10022566063056       -1.00862180172435        1.46249741542356
C           -0.16196615813996       -3.28064819222906        1.21152956160498
C            1.22021360905288       -3.26007339893858        1.16190309459039
C            1.87352051450862       -2.05526880484244        0.94612962186099
C            3.28162937972696       -1.73099992873408        0.82023915263190
C            4.41167004454523       -2.53259117381861        0.85820957403505
C            5.65015794065471       -1.94855114392139        0.66599515676505
C            5.78186355396478       -0.57717108694083        0.44260728479994
C            7.11029059109618        0.01565705857450        0.23240885407339
C            7.44285422633498        1.23749537247712        0.81531796933114
C            8.69026429532244        1.80014838454265        0.62429205583316
C            9.60834263698274        1.13127724128015       -0.16435731199292
F           10.82915468168507        1.67634772669236       -0.35821767860264
C            9.31027571101702       -0.08034108577408       -0.76051096392857
C            8.06049479292227       -0.63256286891819       -0.55524382172635
C            4.64026969546066        0.22836185315417        0.41956587474923
C            3.40516296402956       -0.34821245964008        0.60485557444884
C           -0.25136169045782        2.20028578256221        0.32394704811981
C           -1.63081140434393        2.53811181383450        0.14226804968750
O           -2.31948781792097        2.79483769154240        1.29812115767562
C           -3.68467976371731        2.71785372173567        1.23565674960410
C           -4.36413425720882        2.84829520974247        2.43287846461066
C           -5.74932362651429        2.76245665420414        2.46599060610264
C           -6.43376907083723        2.53275535507934        1.29273633381899
C           -5.75176945157284        2.39675822182187        0.08837989843379
C           -4.36583102013302        2.49524810996842        0.02605531030390
H           -3.55549420499248       -4.27725718602572       -4.00108405425359
H           -2.10385521632520       -4.75960095861511       -3.12187495462033
H           -3.61454155162275       -4.48154672183259       -2.25150003978526
H           -2.02908174704249       -2.56007290767781       -1.98249457205784
H           -2.00512398086914       -2.34940195564050       -3.73233531206237
H           -4.45749737636470       -1.89452697047273       -3.70389481966670
H           -4.46831511708832       -2.09774677171826       -1.95114536461670
H           -2.87501881776148       -0.00442964248511       -3.48473586494333
H           -2.85163235725400       -0.21336526104503       -1.73242540675217
H           -5.33327599836059        0.45893324842009       -3.38202528642293
H           -5.27316296700073        0.28573948967511       -1.62570540064637
H           -5.25385339602544        2.68194244845032       -2.43420180492883
H           -3.72753772684856        2.37880876846970       -3.23660866494787
H           -1.82576712593402        2.09012908783737       -3.19722457521527
H            0.46405338194185        1.49698044248838       -2.85425286646594
H            0.46967980983116        3.18438149679103       -2.37138193463322
H            2.33987576173047        0.92402392831001       -1.48540675721162
H            1.96804002052079        0.96143602220792        1.49971748819547
H           -0.80950160057528       -0.00868660897301        0.64237477741208
H           -2.56829306848554       -4.10984835513544        0.23006714247135
H           -5.03594733578623       -4.08084130224225        0.18209396687918
H           -5.03247396511499       -0.11123173104513        1.74517786358585
H           -2.57706567098314       -0.15124050504713        1.85660781379868
H           -0.66720162128407       -4.21401695756034        1.41088874499025
H            1.78231115004595       -4.17271741071117        1.29451290383203
H            4.32939078790548       -3.59506433340395        1.03260147312975
H            6.53914990396701       -2.56070517490178        0.70832239681712
H            6.72336300380074        1.74220564001737        1.44231197221630
H            8.95794501599847        2.74163588034598        1.07760824813697
H           10.04867926419175       -0.57238852202185       -1.37387271740328
H            7.81011686731514       -1.56966360499008       -1.02933842099422
H            4.72742015224014        1.28862456400587        0.23135056236879
H            0.08867286852732        2.13815816699866        1.34535597531608
H           -3.78903063707962        3.01599247910481        3.32964984039208
H           -6.27377660218222        2.86814478944060        3.40239583093460
H           -7.50985740461756        2.45095017074289        1.29487690639596
H           -6.33349003497103        2.21221199153663       -0.79833514104855

 projected vibrational frequencies (cm⁻¹)
eigval :       -0.00    -0.00     0.00     0.00     0.00     0.00
eigval :       13.10    16.09    22.79    27.39    31.31    35.74
eigval :       41.51    44.63    47.49    59.05    64.26    70.88
eigval :       79.19    83.43    85.39    92.99   101.97   114.94
eigval :      124.00   137.02   139.60   147.81   154.10   165.89
eigval :      170.82   187.17   194.33   214.52   219.45   235.29
eigval :      241.42   254.60   259.84   274.78   283.21   299.39
eigval :      325.07   336.36   350.94   358.06   366.73   376.45
eigval :      380.15   383.34   385.51   392.97   399.56   408.25
eigval :      411.15   420.15   426.29   438.35   446.33   449.28
eigval :      462.53   474.16   476.06   494.40   504.32   509.15
eigval :      514.86   528.46   534.37   540.04   545.92   558.23
eigval :      564.27   581.74   587.25   595.15   599.85   607.09
eigval :      610.72   619.33   634.86   662.89   667.95   676.74
eigval :      679.49   685.19   687.61   706.33   721.36   744.41
eigval :      768.94   770.88   772.24   781.01   794.91   805.26
eigval :      811.61   816.99   822.69   826.33   833.46   835.58
eigval :      840.09   850.52   867.55   869.99   873.97   882.99
eigval :      887.31   888.80   891.97   901.38   909.38   910.09
eigval :      910.81   913.21   915.75   917.07   919.27   925.06
eigval :      929.03   938.63   952.75   966.77   997.91  1009.08
eigval :     1009.98  1010.62  1051.08  1060.80  1072.16  1074.43
eigval :     1078.24  1085.29  1093.78  1104.82  1108.76  1113.47
eigval :     1118.73  1121.99  1124.82  1127.67  1130.20  1135.88
eigval :     1139.66  1155.94  1159.56  1164.28  1167.89  1168.69
eigval :     1175.00  1177.34  1189.49  1192.39  1200.87  1214.03
eigval :     1215.94  1224.80  1228.41  1230.87  1235.71  1243.66
eigval :     1250.97  1257.93  1260.65  1268.22  1270.72  1277.89
eigval :     1280.43  1286.07  1289.44  1297.18  1298.61  1303.29
eigval :     1310.84  1313.95  1320.18  1320.95  1322.93  1324.71
eigval :     1327.07  1329.14  1353.89  1363.39  1365.25  1379.15
eigval :     1400.21  1404.57  1413.13  1418.47  1419.98  1431.07
eigval :     1440.50  1441.36  1451.81  1459.86  1471.48  1480.05
eigval :     1490.79  1491.74  1493.72  1495.07  1496.00  1499.82
eigval :     1501.15  1503.96  1508.26  1532.47  1562.86  1564.66
eigval :     1576.05  1579.83  1582.47  1585.36  1588.87  1594.79
eigval :     1602.34  1607.81  2787.84  2867.63  2932.51  2951.08
eigval :     2958.90  2963.93  2969.90  2977.17  2979.12  2985.19
eigval :     2986.67  2994.30  3012.68  3031.12  3034.55  3041.63
eigval :     3076.47  3078.50  3080.45  3087.76  3089.24  3089.88
eigval :     3090.12  3090.71  3091.45  3093.95  3097.61  3100.25
eigval :     3101.40  3104.29  3107.65  3108.60  3109.45  3110.81
eigval :     3123.73  3125.32  3131.68

   temp. (K)  partition function   enthalpy   heat capacity  entropy
                                   cal/mol     cal/K/mol   cal/K/mol   J/K/mol
 298.15  VIB  0.579E+19            24486.573    152.318    152.763
         ROT  0.847E+08              888.752      2.981     39.257
         INT  0.490E+27            25375.325    155.299    192.019
         TR   0.154E+29             1481.254      4.968     45.202
         TOT                       26856.5791   160.2675   237.2210   992.5328

       T/K    H(0)-H(T)+PV         H(T)/Eh          T*S/Eh         G(T)/Eh
   ------------------------------------------------------------------------
    298.15    0.427987E-01    0.713055E+00    0.112711E+00    0.600344E+00
   ------------------------------------------------------------------------

         :::::::::::::::::::::::::::::::::::::::::::::::::::::
         ::                  THERMODYNAMIC                  ::
         :::::::::::::::::::::::::::::::::::::::::::::::::::::
         :: total free energy        -128.903662865309 Eh   ::
         ::.................................................::
         :: total energy             -129.504006380291 Eh   ::
         :: zero point energy           0.670256199363 Eh   ::
         :: G(RRHO) w/o ZPVE           -0.069912684381 Eh   ::
         :: G(RRHO) contrib.            0.600343514982 Eh   ::
         :::::::::::::::::::::::::::::::::::::::::::::::::::::

           -------------------------------------------------
          | TOTAL ENERGY             -129.504006380291 Eh   |
          | TOTAL ENTHALPY           -128.790951497807 Eh   |
          | TOTAL FREE ENERGY        -128.903662865309 Eh   |
          | GRADIENT NORM               0.000081023379 Eh/α |
           -------------------------------------------------

 * finished run on 2025/09/09 at 14:17:04.478
