   * xtb version 6.7.1 (edcfbbe) compiled by 'albert@albert-system' on 2024-07-22

   ID    Z sym.   atoms
    1    6 C      1-6, 8-20, 22-34, 36-41, 43-48
    2    7 N      7
    3    9 F      21, 35
    4    8 O      42
    5    1 H      49-85

          program call               : xtb data2507/gas/DFPFPhe/DFPFPhe.xyz --gfn 2 --ohess vtight --parallel 40 --molden --ceasefiles --namespace data2507/gas/DFPFPhe/DFPFPhe_gas_S0_preOpt
          :  Hamiltonian                  GFN2-xTB          :
 * total energy  :  -129.5562696 Eh     change       -0.5753236E-08 Eh
 * total energy  :  -129.5656407 Eh     change       -0.9371135E-02 Eh
 * total energy  :  -129.5678906 Eh     change       -0.2249878E-02 Eh
 * total energy  :  -129.5685118 Eh     change       -0.6211741E-03 Eh
 * total energy  :  -129.5689009 Eh     change       -0.3891162E-03 Eh
 * total energy  :  -129.5690698 Eh     change       -0.1689380E-03 Eh
 * total energy  :  -129.5692486 Eh     change       -0.1788116E-03 Eh
 * total energy  :  -129.5694634 Eh     change       -0.2147678E-03 Eh
 * total energy  :  -129.5696192 Eh     change       -0.1558043E-03 Eh
 * total energy  :  -129.5697062 Eh     change       -0.8700906E-04 Eh
 * total energy  :  -129.5701867 Eh     change       -0.4954661E-06 Eh
 * total energy  :  -129.5701872 Eh     change       -0.4804420E-06 Eh
 * total energy  :  -129.5701877 Eh     change       -0.4677129E-06 Eh
 * total energy  :  -129.5701881 Eh     change       -0.4652597E-06 Eh
 * total energy  :  -129.5701886 Eh     change       -0.4713485E-06 Eh
 * total energy  :  -129.5701891 Eh     change       -0.4842578E-06 Eh
 * total energy  :  -129.5701896 Eh     change       -0.5097328E-06 Eh
 * total energy  :  -129.5701901 Eh     change       -0.5215185E-06 Eh
 * total energy  :  -129.5701901 Eh     change       -0.1778659E-08 Eh
   *** GEOMETRY OPTIMIZATION CONVERGED AFTER 185 ITERATIONS ***

 final structure:
================
85
 xtb: 6.7.1 (edcfbbe)
C            9.07962331429460       -0.20312298613876        1.12695302994590
C            8.05400959964543        0.53061458698285        1.98305126720254
C            7.12729191005277       -0.40900296048175        2.75677486258075
C            6.27633137390948       -1.33526505612112        1.88674650350723
C            5.31143476579565       -0.58539284436357        0.97269744783129
C            4.40806820819874       -1.55694807050369        0.20584443567896
N            3.50574303770248       -0.89039938662743       -0.70270845986616
C            2.24614664674258       -0.49529537591516       -0.25818851617642
C            1.85177516706224       -0.51915735894396        1.02554493819673
C            0.48227592911382       -0.12151934370968        1.47344029563962
C           -0.53915340204755       -0.01896765022661        0.36875605479744
C           -1.84527521888382       -0.03916389742751        0.67241543706980
C           -2.99437318530433        0.10436154395918       -0.28031248847197
C           -4.11004916081003       -0.86220751806298        0.02372476159903
C           -4.06877976105443       -2.23691439339363        0.03901135377644
C           -5.22510941535459       -2.95093857960898        0.36322732696437
C           -5.20517028990685       -4.42060316572893        0.38385332246604
C           -5.86650763172131       -5.12806435462497        1.38651039530939
C           -5.85031847354535       -6.50953928768770        1.41114119344665
C           -5.16745610934652       -7.18482060289737        0.41626455311598
F           -5.14914640132698       -8.53584042328802        0.43215749276127
C           -4.50228566480982       -6.51471061243055       -0.59396200822889
C           -4.52348354387307       -5.13320253804917       -0.60154488176631
C           -6.39891962429726       -2.25767339690189        0.66302212876912
C           -6.44517853417803       -0.87567713026180        0.64744633269797
C           -5.29371350843314       -0.17263534529323        0.32993227569773
C           -5.03116879761222        1.25188594789179        0.24429461999366
C           -5.85027389260551        2.35024693818914        0.45341202828729
C           -5.31505979832069        3.61714020226997        0.30990936220018
C           -3.97742453042923        3.80842391193656       -0.04085455345592
C           -3.43605946868334        5.16715123381877       -0.18690212749897
C           -2.55778904956332        5.47222938961933       -1.22572772507318
C           -2.04845744961181        6.74792214632969       -1.37502017722675
C           -2.42122331148395        7.72357347764376       -0.46883104592627
F           -1.92617646611382        8.97324407627973       -0.60698622319724
C           -3.28656965407806        7.45457981270346        0.57562975515258
C           -3.79105235066077        6.17508259354173        0.70838338817336
C           -3.15762679975863        2.69757090766115       -0.25541057979795
C           -3.68713826544205        1.43606657621992       -0.11522441264850
C           -0.01829016421191        0.13247958386228       -0.96213536347479
C            1.28102957250425       -0.06678846927579       -1.26545826457017
O            1.65640070319463        0.12183430475403       -2.55859470159960
C            2.96333694791016       -0.07954428265724       -2.90380070868003
C            3.31563632172264        0.22603576790540       -4.20802685723438
C            4.61431171804111        0.03441858688978       -4.64278513581381
C            5.55682501813515       -0.45825436147201       -3.75883377745907
C            5.21139529008996       -0.76010743767123       -2.45365738436117
C            3.90564035848667       -0.58604984428983       -1.99440599609985
H            9.78253367382949        0.50451384445240        0.69331362968840
H            9.63884720065333       -0.91577496290587        1.72953084475241
H            8.60057563032600       -0.74105971810677        0.31299528101617
H            8.58250030290519        1.15374136194495        2.70850191146297
H            7.46384379438129        1.19840018341072        1.35332303129756
H            7.73442749077831       -1.02632732519897        3.42349738655092
H            6.46335324068391        0.19438890451444        3.38086367730343
H            5.69969196468133       -1.98948755330813        2.54628310487509
H            6.92518337236733       -1.97444645479403        1.28552104512207
H            4.69364768994351        0.09224107566584        1.56527350764953
H            5.86631922570763        0.01942114137150        0.25468464974901
H            3.80996228708476       -2.14671557696048        0.90570081833948
H            5.01836612508490       -2.26088876740043       -0.36657602249342
H            2.52337638701023       -0.79566711930903        1.82123194521695
H            0.13502946316842       -0.82309276771529        2.23770872120480
H            0.55465442106543        0.85742383972661        1.96994758383433
H           -2.14100495916138       -0.14055824105868        1.70846164234064
H           -2.65167500999427       -0.02509494604203       -1.31009628490010
H           -3.14706551295771       -2.75889902218704       -0.17347860853561
H           -6.38224603265913       -4.58971227608082        2.16738824052755
H           -6.35438334740507       -7.06416891381699        2.18695794222004
H           -3.98311830751891       -7.07334994709524       -1.35686205382161
H           -4.02163282717708       -4.59911253941208       -1.39423767727645
H           -7.29478769566715       -2.81689966381820        0.89027654936755
H           -7.36394911021617       -0.35688357136829        0.87739175416462
H           -6.88840256868113        2.22254182312628        0.72204214005329
H           -5.94887069217776        4.48043432806205        0.45105731424521
H           -2.28678271605872        4.70648983315504       -1.93673495168378
H           -1.37402312657260        6.99338525170942       -2.18029392778086
H           -3.55212441046538        8.23839281534818        1.26752980693408
H           -4.45387614213860        5.94932180932279        1.53011008595508
H           -2.11440806233240        2.82851418259371       -0.50353536642592
H           -0.68115398573042        0.40162135888941       -1.76911547283614
H            2.55059339287353        0.60784753949061       -4.86526793336361
H            4.88434468372570        0.27075706825412       -5.65969429518265
H            6.57631400484973       -0.60774580700153       -4.08057807212778
H            5.97789019659545       -1.13060710164815       -1.79389312157146

          :  Hamiltonian                  GFN2-xTB          :
         :: gradient norm              0.000033043146 Eh/a0 ::
         :: HOMO-LUMO gap              2.221827976553 eV    ::
         :: SCC energy              -131.718612141115 Eh    ::
         :: -> dispersion             -0.102669218913 Eh    ::
         :: repulsion energy           2.148422009858 Eh    ::

    * Orbital Energies and Occupations

         #    Occupation            Energy/Eh            Energy/eV
      -------------------------------------------------------------
         1        2.0000           -0.8114107             -22.0796
       ...           ...                  ...                  ...
       107        2.0000           -0.4203089             -11.4372
       108        2.0000           -0.4188908             -11.3986
       109        2.0000           -0.4184227             -11.3859
       110        2.0000           -0.4170980             -11.3498
       111        2.0000           -0.4157751             -11.3138
       112        2.0000           -0.4098652             -11.1530
       113        2.0000           -0.4072005             -11.0805
       114        2.0000           -0.3994093             -10.8685
       115        2.0000           -0.3976153             -10.8197
       116        2.0000           -0.3963010             -10.7839
       117        2.0000           -0.3736825             -10.1684
       118        2.0000           -0.3516620              -9.5692
       119        2.0000           -0.3480163              -9.4700 (HOMO)
       120                         -0.2663656              -7.2482 (LUMO)
       121                         -0.2565707              -6.9816
       122                         -0.2411543              -6.5621
       123                         -0.2369005              -6.4464
       124                         -0.2364163              -6.4332
       125                         -0.2251981              -6.1280
       126                         -0.2227912              -6.0625
       127                         -0.2202045              -5.9921
       128                         -0.2178721              -5.9286
       129                         -0.2164638              -5.8903
       130                         -0.1805699              -4.9136
       ...                                ...                  ...
       229                          0.7326637              19.9368
      -------------------------------------------------------------
                  HL-Gap            0.0816507 Eh            2.2218 eV

     #   Z          covCN         q      C6AA      α(0)
     1   6 C        3.751    -0.101    22.497     6.764
     2   6 C        3.799    -0.054    21.537     6.608
     3   6 C        3.801    -0.058    21.620     6.620
     4   6 C        3.802    -0.058    21.616     6.619
     5   6 C        3.801    -0.064    21.734     6.637
     6   6 C        3.749    -0.004    20.713     6.491
     7   7 N        2.744    -0.070    22.605     7.061
     8   6 C        2.905     0.036    27.185     8.549
     9   6 C        2.906    -0.080    29.987     8.979
    10   6 C        3.816    -0.061    21.658     6.624
    11   6 C        2.950     0.005    27.922     8.667
    12   6 C        2.906    -0.056    29.391     8.889
    13   6 C        3.893    -0.023    20.926     6.503
    14   6 C        3.053     0.005    27.864     8.657
    15   6 C        2.919    -0.041    29.012     8.833
    16   6 C        2.979     0.007    27.863     8.659
    17   6 C        2.976     0.008    27.828     8.653
    18   6 C        2.929    -0.034    28.847     8.808
    19   6 C        2.915    -0.050    29.230     8.866
    20   6 C        2.788     0.167    24.394     8.090
    21   9 F        0.787    -0.230    11.554     4.015
    22   6 C        2.915    -0.049    29.228     8.865
    23   6 C        2.930    -0.034    28.841     8.807
    24   6 C        2.926    -0.038    28.954     8.824
    25   6 C        2.912    -0.035    28.859     8.809
    26   6 C        3.038    -0.000    27.995     8.678
    27   6 C        3.037    -0.000    27.997     8.679
    28   6 C        2.913    -0.034    28.859     8.809
    29   6 C        2.926    -0.038    28.956     8.825
    30   6 C        2.979     0.007    27.859     8.658
    31   6 C        2.976     0.008    27.830     8.653
    32   6 C        2.930    -0.034    28.838     8.807
    33   6 C        2.915    -0.049    29.225     8.865
    34   6 C        2.788     0.167    24.394     8.090
    35   9 F        0.787    -0.230    11.554     4.015
    36   6 C        2.915    -0.050    29.231     8.866
    37   6 C        2.929    -0.034    28.849     8.808
    38   6 C        2.919    -0.041    29.018     8.834
    39   6 C        3.054     0.005    27.849     8.655
    40   6 C        2.908    -0.076    29.889     8.965
    41   6 C        2.872     0.129    25.166     8.224
    42   8 O        1.711    -0.241    17.995     5.728
    43   6 C        2.886     0.120    25.364     8.257
    44   6 C        2.919    -0.055    29.374     8.888
    45   6 C        2.919    -0.043    29.058     8.840
    46   6 C        2.919    -0.040    28.994     8.830
    47   6 C        2.924    -0.063    29.569     8.917
    48   6 C        2.917     0.041    27.091     8.535
    49   1 H        0.925     0.033     2.550     2.497
    50   1 H        0.925     0.034     2.529     2.487
    51   1 H        0.925     0.034     2.534     2.489
    52   1 H        0.924     0.030     2.591     2.517
    53   1 H        0.924     0.032     2.564     2.504
    54   1 H        0.924     0.033     2.544     2.494
    55   1 H        0.924     0.030     2.592     2.517
    56   1 H        0.924     0.028     2.616     2.529
    57   1 H        0.924     0.035     2.519     2.482
    58   1 H        0.924     0.038     2.478     2.462
    59   1 H        0.924     0.043     2.406     2.425
    60   1 H        0.924     0.046     2.370     2.408
    61   1 H        0.924     0.046     2.373     2.409
    62   1 H        0.926     0.032     2.561     2.503
    63   1 H        0.924     0.047     2.358     2.401
    64   1 H        0.923     0.051     2.307     2.375
    65   1 H        0.925     0.024     2.678     2.559
    66   1 H        0.924     0.056     2.245     2.343
    67   1 H        0.926     0.033     2.550     2.497
    68   1 H        0.926     0.045     2.388     2.417
    69   1 H        0.926     0.055     2.258     2.350
    70   1 H        0.926     0.055     2.258     2.350
    71   1 H        0.926     0.045     2.383     2.414
    72   1 H        0.926     0.032     2.556     2.500
    73   1 H        0.926     0.032     2.554     2.499
    74   1 H        0.926     0.032     2.553     2.499
    75   1 H        0.926     0.032     2.553     2.499
    76   1 H        0.926     0.046     2.376     2.410
    77   1 H        0.926     0.055     2.254     2.348
    78   1 H        0.926     0.055     2.259     2.351
    79   1 H        0.926     0.044     2.390     2.417
    80   1 H        0.926     0.034     2.529     2.487
    81   1 H        0.926     0.045     2.379     2.412
    82   1 H        0.926     0.048     2.349     2.397
    83   1 H        0.926     0.036     2.507     2.476
    84   1 H        0.926     0.033     2.538     2.491
    85   1 H        0.926     0.037     2.495     2.470

molecular dipole:
                 x           y           z       tot (Debye)
 q only:        0.856      -0.225       0.586
   full:        0.911      -0.260       0.669       2.949

 projected vibrational frequencies (cm⁻¹)
eigval :       -0.00    -0.00     0.00     0.00     0.00     0.00
eigval :       -1.65     6.69    13.66    15.92    19.35    28.34
eigval :       29.15    32.38    41.73    42.77    47.99    51.22
eigval :       59.39    70.45    72.43    86.23    93.81   114.44
eigval :      139.00   139.80   148.51   156.05   165.61   169.73
eigval :      175.05   179.19   198.74   229.98   246.43   251.82
eigval :      254.19   259.52   267.00   273.66   285.32   292.49
eigval :      309.98   321.90   355.92   358.58   373.81   376.49
eigval :      380.14   380.24   386.10   391.93   405.20   411.57
eigval :      412.12   420.69   427.43   439.85   447.77   455.08
eigval :      473.16   488.16   491.33   498.68   507.73   514.30
eigval :      520.71   530.33   540.67   544.94   564.92   571.70
eigval :      581.89   599.26   601.03   609.42   618.90   631.36
eigval :      633.82   661.18   672.72   675.44   681.80   686.49
eigval :      697.98   703.16   723.41   750.86   759.94   768.27
eigval :      773.97   774.79   794.12   798.30   806.87   811.95
eigval :      820.43   826.55   830.63   835.55   838.88   840.53
eigval :      844.40   856.03   867.32   867.57   871.32   888.82
eigval :      889.56   892.70   896.02   899.96   909.40   909.72
eigval :      911.12   912.97   913.79   916.78   917.88   923.11
eigval :      924.69   925.11   944.01   997.51  1005.75  1009.17
eigval :     1009.98  1025.86  1041.83  1054.45  1065.19  1073.07
eigval :     1074.91  1075.69  1094.79  1102.65  1122.30  1122.45
eigval :     1130.05  1132.96  1137.78  1144.68  1147.08  1151.92
eigval :     1161.21  1163.41  1166.99  1167.26  1170.62  1171.30
eigval :     1182.46  1185.09  1188.30  1190.30  1219.58  1223.75
eigval :     1227.16  1231.51  1238.63  1239.18  1242.40  1251.37
eigval :     1257.72  1260.41  1261.39  1262.33  1271.75  1276.23
eigval :     1278.05  1289.49  1294.88  1301.78  1313.25  1320.45
eigval :     1320.89  1327.32  1332.16  1333.96  1339.89  1353.27
eigval :     1357.26  1362.87  1363.58  1367.27  1368.78  1401.22
eigval :     1401.70  1404.66  1416.16  1420.98  1439.84  1440.48
eigval :     1443.19  1452.25  1463.62  1487.09  1491.61  1492.77
eigval :     1495.94  1496.27  1497.69  1500.58  1502.34  1508.19
eigval :     1516.99  1568.94  1574.24  1578.22  1582.11  1587.00
eigval :     1588.04  1592.39  1596.24  1604.33  1608.42  1614.79
eigval :     1653.10  1669.49  2861.98  2947.17  2948.59  2950.24
eigval :     2958.26  2961.59  2966.37  2968.05  2979.51  2982.81
eigval :     2991.68  2993.14  3005.30  3032.04  3035.17  3044.57
eigval :     3059.67  3075.91  3077.59  3080.47  3081.84  3086.95
eigval :     3087.11  3088.73  3090.26  3090.83  3091.43  3091.97
eigval :     3099.74  3102.43  3107.35  3107.42  3107.54  3108.20
eigval :     3108.37  3110.95  3118.14

   temp. (K)  partition function   enthalpy   heat capacity  entropy
                                   cal/mol     cal/K/mol   cal/K/mol   J/K/mol
 298.15  VIB  0.288E+22            24421.046    148.359    156.267
         ROT  0.146E+09              888.752      2.981     40.335
         INT  0.420E+30            25309.798    151.340    196.602
         TR   0.154E+29             1481.254      4.968     45.202
         TOT                       26791.0518   156.3084   241.8036  1011.7062

       T/K    H(0)-H(T)+PV         H(T)/Eh          T*S/Eh         G(T)/Eh
   ------------------------------------------------------------------------
    298.15    0.426943E-01    0.716801E+00    0.114889E+00    0.601912E+00
   ------------------------------------------------------------------------

         :::::::::::::::::::::::::::::::::::::::::::::::::::::
         ::                  THERMODYNAMIC                  ::
         :::::::::::::::::::::::::::::::::::::::::::::::::::::
         :: total free energy        -128.968277804297 Eh   ::
         ::.................................................::
         :: total energy             -129.570190131257 Eh   ::
         :: zero point energy           0.674106750471 Eh   ::
         :: G(RRHO) w/o ZPVE           -0.072194423511 Eh   ::
         :: G(RRHO) contrib.            0.601912326960 Eh   ::
         :::::::::::::::::::::::::::::::::::::::::::::::::::::

           -------------------------------------------------
          | TOTAL ENERGY             -129.570190131257 Eh   |
          | TOTAL ENTHALPY           -128.853389122134 Eh   |
          | TOTAL FREE ENERGY        -128.968277804297 Eh   |
          | GRADIENT NORM               0.000033040661 Eh/α |
          | HOMO-LUMO GAP               2.221827510605 eV   |
           -------------------------------------------------

 * finished run on 2025/09/09 at 13:31:30.260
