   * xtb version 6.7.1 (edcfbbe) compiled by 'albert@albert-system' on 2024-07-22

   ID    Z sym.   atoms
    1    6 C      1-6, 8-20, 22-34, 36-41, 43-48
    2    7 N      7
    3    9 F      21, 35
    4    8 O      42
    5    1 H      49-85

          program call               : xtb data2507/gas/DFPFPhe/DFPFPhe_gas_T1_crest.xyz --gfn 2 --spinpol --tblite --uhf 2 --ohess vtight --parallel 40 --molden --ceasefiles --namespace data2507/gas/DFPFPhe/DFPFPhe_gas_T1_finalOpt
 * total energy  :  -129.5045514 Eh     change       -0.1028883E-07 Eh
 * total energy  :  -129.5046436 Eh     change       -0.9215714E-04 Eh
 * total energy  :  -129.5046747 Eh     change       -0.3111605E-04 Eh
 * total energy  :  -129.5046793 Eh     change       -0.4576675E-05 Eh
 * total energy  :  -129.5046846 Eh     change       -0.5359174E-05 Eh
 * total energy  :  -129.5046878 Eh     change       -0.3190536E-05 Eh
 * total energy  :  -129.5046920 Eh     change       -0.4159894E-05 Eh
 * total energy  :  -129.5046954 Eh     change       -0.3456524E-05 Eh
 * total energy  :  -129.5046981 Eh     change       -0.2685593E-05 Eh
 * total energy  :  -129.5047003 Eh     change       -0.2219060E-05 Eh
 * total energy  :  -129.5047399 Eh     change       -0.8255210E-06 Eh
 * total energy  :  -129.5047408 Eh     change       -0.8210414E-06 Eh
 * total energy  :  -129.5047415 Eh     change       -0.7337427E-06 Eh
 * total energy  :  -129.5047422 Eh     change       -0.7371964E-06 Eh
 * total energy  :  -129.5047427 Eh     change       -0.5002632E-06 Eh
 * total energy  :  -129.5047435 Eh     change       -0.7919206E-06 Eh
 * total energy  :  -129.5047443 Eh     change       -0.8076265E-06 Eh
 * total energy  :  -129.5047452 Eh     change       -0.8460947E-06 Eh
 * total energy  :  -129.5047452 Eh     change       -0.1097675E-08 Eh
   *** GEOMETRY OPTIMIZATION CONVERGED AFTER 44 ITERATIONS ***

 final structure:
================
85
 xtb: 6.7.1 (edcfbbe)
C           -3.14375672368837       -1.87919346792370       -2.23511512996582
C           -3.97252382517916       -1.03161473580456       -1.27905036862984
C           -4.36764975867830        0.30299820155633       -1.90662993410425
C           -5.10772136713570        1.19642450581663       -0.91414770668508
C           -5.52064408633071        2.55367031084918       -1.48667442038665
C           -4.33147698816237        3.42757105394636       -1.91893054106307
N           -3.33802895968572        3.56581409036338       -0.87523783929287
C           -2.18860918801296        2.76872973790779       -0.88856435441399
C           -1.53338929125749        2.44311466540804       -2.07776810174787
C           -0.31054500759203        1.60484187471326       -2.12738711001216
C            0.12033586412140        1.03361850125982       -0.80422683898224
C            1.19404522077415        0.13442421252975       -0.84341407213550
C            1.72130084199512       -0.62257501091662        0.32621408412904
C            1.10805043326072       -2.00766510863553        0.37396148749897
C           -0.22208605270247       -2.34957256419810        0.43699591838348
C           -0.57757345600799       -3.70059685498785        0.44873513795976
C           -1.99436002370279       -4.08567975314581        0.50656454833994
C           -2.47363332850654       -5.15134290202752       -0.25490886381272
C           -3.81008073537090       -5.50118603580807       -0.22706558621329
C           -4.67085669881201       -4.77629207815091        0.57650827251589
F           -5.97975111205720       -5.10999197033109        0.60593130891279
C           -4.22820109176202       -3.71919133204782        1.35012261052262
C           -2.88985010514002       -3.37946953405710        1.30873380512819
C            0.42230814574380       -4.67397759134643        0.39424548668159
C            1.76009904306379       -4.33208838339147        0.32163576319508
C            2.10786286117375       -2.99011639274635        0.30426746457724
C            3.39731139148633       -2.33146528033986        0.21654334381209
C            4.68375943159480       -2.84088104739553        0.13399554963657
C            5.74611418426251       -1.95897340542431        0.05591351311659
C            5.54781745579956       -0.57742447447917        0.05232354876370
C            6.69405333201971        0.33834336478570       -0.03553654601674
C            6.62922101075550        1.48003895003701       -0.83296281056519
C            7.70159835334132        2.34657905216552       -0.92257634003189
C            8.84636360198853        2.06555598805928       -0.19954729057039
F            9.89820811977001        2.90939418256715       -0.27998006463268
C            8.94318520327322        0.94420010513563        0.60385409236769
C            7.86408869759068        0.08448506917108        0.67853009126373
C            4.24852038565888       -0.06956021481463        0.13372260448503
C            3.18979220676237       -0.94293745254911        0.22038862935839
C           -0.53169463391247        1.42655785528304        0.33741682592082
C           -1.65183530460746        2.31647738035801        0.30894415738283
O           -2.15970664181309        2.66766215349116        1.53383114190331
C           -3.12930669744860        3.63397051416412        1.54299218809378
C           -3.50484020188741        4.14066127340161        2.77477974746069
C           -4.48818509919012        5.11576521256704        2.85807357525574
C           -5.07987080484427        5.58441099484360        1.70382812046324
C           -4.70519029532149        5.07707861729838        0.46642439604592
C           -3.73397824002164        4.09021894690531        0.36129948618728
H           -3.69415599949568       -2.06442719326410       -3.15507075207156
H           -2.21532713713943       -1.36983693244936       -2.48538935223237
H           -2.89680160214998       -2.83638604333974       -1.78300774021372
H           -4.86951945239928       -1.58208033434108       -0.98677459726858
H           -3.39285291073534       -0.84185779157629       -0.37264597069164
H           -3.45793767254322        0.80089001654968       -2.24762183097264
H           -5.00166683807162        0.12323007187386       -2.77832898807083
H           -4.47938685539352        1.34994392442329       -0.03397519660266
H           -6.00884064774924        0.67912240411773       -0.57586114561836
H           -6.16434719698170        2.40643166209425       -2.35622295673511
H           -6.09738294096118        3.08620883848980       -0.72730638894059
H           -4.69361465685470        4.41646454501785       -2.21583364877065
H           -3.85599280393563        2.97969939185007       -2.78814832305167
H           -1.86770426457079        2.85111495239567       -3.01750786233824
H           -0.45347942030683        0.77969210917600       -2.84325103102383
H            0.52414344255378        2.19387603639374       -2.54293701998349
H            1.62417030504484       -0.11715185692933       -1.80124137460522
H            1.51387345576985       -0.08200889641538        1.25446988212092
H           -0.98335896746369       -1.58409964726917        0.44983790936594
H           -1.79673426620455       -5.69604267510641       -0.89588946638767
H           -4.18953473995860       -6.31840726819566       -0.82006666464147
H           -4.92601054555702       -3.17889814689567        1.97021015617920
H           -2.53032538341998       -2.56626045889780        1.92057243923710
H            0.14226201516889       -5.71668912917624        0.42771443731149
H            2.51889043738816       -5.09922677785556        0.27885250552071
H            4.85662405205252       -3.90676382565182        0.12814818743019
H            6.75168262332892       -2.34451360509408       -0.02794649172871
H            5.73571436333632        1.68039226760749       -1.40487734952908
H            7.66182774211197        3.22854086090135       -1.54237906864223
H            9.84948416395663        0.75858974134276        1.15855419234751
H            7.92151095771118       -0.78477084575725        1.31619269973381
H            4.08143885173813        0.99754164797568        0.15266284489832
H           -0.24816432488072        1.06213608044017        1.31119480359765
H           -3.02512328601755        3.74917483921627        3.65779231590702
H           -4.78177514529845        5.50000335154470        3.82229371795133
H           -5.84253429574659        6.34659655423959        1.75195098822288
H           -5.17926017503326        5.46237950869470       -0.42169818181559

 projected vibrational frequencies (cm⁻¹)
eigval :       -0.00    -0.00    -0.00    -0.00     0.00     0.00
eigval :        5.47    14.30    20.36    20.96    30.43    31.99
eigval :       39.26    46.06    47.48    54.86    55.38    57.60
eigval :       62.56    68.09    81.33    85.32   101.69   110.70
eigval :      130.63   131.31   141.30   146.81   157.18   163.61
eigval :      175.63   186.95   202.11   215.69   219.92   229.71
eigval :      243.24   262.20   271.84   276.08   287.99   295.01
eigval :      310.69   341.88   359.75   362.43   365.84   374.75
eigval :      380.10   380.75   385.84   395.89   399.10   403.35
eigval :      405.59   421.19   425.08   431.97   435.93   444.91
eigval :      458.81   461.69   466.71   490.59   495.96   506.34
eigval :      515.30   524.93   535.87   541.66   558.27   561.39
eigval :      568.17   578.76   591.60   597.30   605.22   613.82
eigval :      623.09   625.30   647.61   665.66   668.17   675.86
eigval :      686.76   687.58   689.34   705.56   723.27   754.48
eigval :      758.58   764.72   773.13   775.26   791.64   806.35
eigval :      812.58   815.66   823.54   828.32   835.29   840.10
eigval :      842.08   856.40   864.75   867.47   867.61   887.60
eigval :      888.68   891.49   895.31   899.81   907.66   909.61
eigval :      910.34   911.74   913.07   915.55   916.60   924.92
eigval :      925.15   936.70   944.96   967.50   995.60  1006.93
eigval :     1009.28  1010.14  1029.52  1053.33  1068.29  1072.94
eigval :     1074.68  1088.14  1091.83  1102.86  1106.56  1114.06
eigval :     1122.44  1122.68  1126.55  1132.39  1133.17  1139.27
eigval :     1141.05  1152.37  1159.80  1167.09  1167.36  1170.23
eigval :     1171.65  1174.19  1184.03  1190.71  1193.23  1212.92
eigval :     1218.03  1221.28  1224.34  1224.64  1228.13  1240.98
eigval :     1243.57  1254.18  1260.50  1261.69  1272.09  1276.77
eigval :     1278.35  1284.82  1292.57  1295.03  1301.62  1311.07
eigval :     1311.84  1318.01  1320.42  1320.92  1326.31  1327.87
eigval :     1336.68  1346.79  1348.90  1351.05  1363.02  1379.33
eigval :     1401.02  1404.66  1415.60  1417.75  1428.38  1433.63
eigval :     1439.15  1441.97  1460.54  1461.82  1475.06  1479.92
eigval :     1482.68  1491.74  1492.43  1495.48  1496.03  1497.43
eigval :     1503.73  1505.29  1506.39  1541.14  1565.85  1568.51
eigval :     1577.22  1581.12  1584.57  1586.08  1588.70  1594.91
eigval :     1602.39  1606.72  2794.07  2855.73  2930.30  2941.44
eigval :     2958.28  2963.81  2972.12  2974.91  2978.03  2983.07
eigval :     2988.34  2992.03  3027.54  3032.03  3038.92  3047.47
eigval :     3076.82  3078.60  3080.72  3081.71  3086.93  3087.29
eigval :     3088.64  3089.43  3090.29  3091.04  3091.90  3093.79
eigval :     3097.29  3097.52  3107.65  3107.76  3108.21  3108.33
eigval :     3108.68  3109.33  3111.01

   temp. (K)  partition function   enthalpy   heat capacity  entropy
                                   cal/mol     cal/K/mol   cal/K/mol   J/K/mol
 298.15  VIB  0.570E+20            24599.034    151.534    154.999
         ROT  0.107E+09              888.752      2.981     39.723
         INT  0.610E+28            25487.786    154.515    194.722
         TR   0.154E+29             1481.254      4.968     45.202
         TOT                       26969.0401   159.4828   239.9232  1003.8385

       T/K    H(0)-H(T)+PV         H(T)/Eh          T*S/Eh         G(T)/Eh
   ------------------------------------------------------------------------
    298.15    0.429779E-01    0.712797E+00    0.113995E+00    0.598801E+00
   ------------------------------------------------------------------------

         :::::::::::::::::::::::::::::::::::::::::::::::::::::
         ::                  THERMODYNAMIC                  ::
         :::::::::::::::::::::::::::::::::::::::::::::::::::::
         :: total free energy        -128.905943908698 Eh   ::
         ::.................................................::
         :: total energy             -129.504745190405 Eh   ::
         :: zero point energy           0.669818620426 Eh   ::
         :: G(RRHO) w/o ZPVE           -0.071017338719 Eh   ::
         :: G(RRHO) contrib.            0.598801281707 Eh   ::
         :::::::::::::::::::::::::::::::::::::::::::::::::::::

           -------------------------------------------------
          | TOTAL ENERGY             -129.504745190405 Eh   |
          | TOTAL ENTHALPY           -128.791948668882 Eh   |
          | TOTAL FREE ENERGY        -128.905943908698 Eh   |
          | GRADIENT NORM               0.000084205769 Eh/α |
           -------------------------------------------------

 * finished run on 2025/09/09 at 14:45:53.224
