   * xtb version 6.7.1 (edcfbbe) compiled by 'albert@albert-system' on 2024-07-22

   ID    Z sym.   atoms
    1    6 C      1-4, 6-12, 14, 16-23, 25, 27-29
    2    7 N      5, 13, 15, 24, 26
    3    1 H      30-46

          program call               : xtb data2507/gas/CBM/CBM_gas_S0_finalOpt.xtbopt.xyz --gfn 2 --spinpol --tblite --uhf 2 --ohess vtight --parallel 40 --molden --ceasefiles --namespace data2507/gas/CBM/CBM_gas_T1_preOpt
 * total energy  :   -74.4551624 Eh     change       -0.1231945E-07 Eh
 * total energy  :   -74.4592217 Eh     change       -0.4059342E-02 Eh
 * total energy  :   -74.4601991 Eh     change       -0.9773632E-03 Eh
 * total energy  :   -74.4602062 Eh     change       -0.7130054E-05 Eh
 * total energy  :   -74.4602845 Eh     change       -0.7830755E-04 Eh
 * total energy  :   -74.4603083 Eh     change       -0.2372645E-04 Eh
 * total energy  :   -74.4603361 Eh     change       -0.2782308E-04 Eh
 * total energy  :   -74.4603915 Eh     change       -0.5539519E-04 Eh
 * total energy  :   -74.4603256 Eh     change        0.6589237E-04 Eh
 * total energy  :   -74.4604234 Eh     change       -0.9778428E-04 Eh
 * total energy  :   -74.4604312 Eh     change       -0.6410372E-06 Eh
 * total energy  :   -74.4604314 Eh     change       -0.1951956E-06 Eh
 * total energy  :   -74.4604317 Eh     change       -0.3297343E-06 Eh
 * total energy  :   -74.4604320 Eh     change       -0.2171172E-06 Eh
 * total energy  :   -74.4604321 Eh     change       -0.1783554E-06 Eh
 * total energy  :   -74.4604323 Eh     change       -0.1578246E-06 Eh
 * total energy  :   -74.4604321 Eh     change        0.2015331E-06 Eh
 * total energy  :   -74.4604324 Eh     change       -0.3399489E-06 Eh
 * total energy  :   -74.4604325 Eh     change       -0.5396515E-07 Eh
   *** GEOMETRY OPTIMIZATION CONVERGED AFTER 24 ITERATIONS ***

 final structure:
================
46
 xtb: 6.7.1 (edcfbbe)
C           -0.40926245894531       -5.26805535152886        2.47224188565408
C           -0.74844483263219       -4.49912357005488        1.20140817957301
C            0.43071806182958       -4.48515242195790        0.23168778389900
C            0.12665032516857       -3.71530798707469       -1.06069991902199
N           -0.06421880650692       -2.31202969974967       -0.81288321555773
C            0.95304583139728       -1.42188427861560       -0.60295325389558
C            2.33484084772086       -1.61102983623688       -0.63722162306597
C            3.14790973804902       -0.53077360070012       -0.39425713203273
C            2.63013269065908        0.75567383032586       -0.11418689468854
C            3.44413338428983        1.89248066718093        0.13996029320510
C            4.81696670387551        1.98580483838876        0.17473824194650
C            5.41540883578778        3.23340967745518        0.44929816968497
N            5.89945589819932        4.25009836434298        0.67295501481202
C            5.75481071030047        0.96070630521123       -0.03386587329701
N            6.57602107324677        0.17098129933220       -0.19237268752438
C            1.22475333597990        0.93375562760951       -0.08630592261933
C            0.40698380839026       -0.13798559054254       -0.32744908341637
C           -1.03236611978960       -0.29863991318073       -0.37691094951757
C           -2.06748529393743        0.57312472872462       -0.19541791752234
C           -3.41187617509704        0.09663398558765       -0.31503739665080
C           -4.53460146277749        0.90324097903808       -0.15302532738970
C           -4.58360314917703        2.29227939868629        0.14590918470937
C           -5.83572892291446        2.90102234886955        0.26682519398024
N           -6.87605054181426        3.38800194657749        0.36216749771299
C           -3.50857955600542        3.15462187660450        0.34030970468049
N           -2.66008818367809        3.91927444109803        0.51267337307107
C           -3.60659367716771       -1.28984185645921       -0.62173756238538
C           -2.57254014734196       -2.16026406278121       -0.80257028837212
C           -1.26045392097002       -1.67390224525889       -0.67967356532904
H           -1.25785009970100       -5.27185165272991        3.15116834967849
H           -0.15151412525333       -6.29854563899927        2.23874568800408
H            0.43534436360317       -4.81034501118433        2.98201642072924
H           -1.02318355654016       -3.47487887420159        1.46398512751901
H           -1.61124690235899       -4.96381415062934        0.71862923508682
H            1.29622344033876       -4.03465185569761        0.72187066204577
H            0.69221596021415       -5.51008676110472       -0.03711658181869
H           -0.77611734709529       -4.11400389356252       -1.52756455935472
H            0.95835156652783       -3.83174808088559       -1.76158718928599
H            2.76705957167758       -2.57636437629130       -0.85026663922799
H            4.21562336119958       -0.67041328517407       -0.41969076973945
H            2.91223850337118        2.81675897844392        0.33351812962104
H            0.80895112912370        1.90766872594382        0.12349097095041
H           -1.87783002922926        1.60692738371103        0.03491380872899
H           -5.50400071865422        0.43493823155324       -0.26477046360523
H           -4.62190904291738       -1.64554658516976       -0.71192115195955
H           -2.76569861635708       -3.19674619909051       -1.03237119372922

 projected vibrational frequencies (cm⁻¹)
eigval :       -0.00    -0.00    -0.00     0.00     0.00     0.00
eigval :       18.76    21.20    24.44    26.46    43.34    44.56
eigval :       58.47    72.34    84.14    97.50   111.86   121.02
eigval :      121.53   128.44   138.78   158.86   180.98   192.22
eigval :      200.82   226.41   235.46   248.14   262.17   286.08
eigval :      300.96   307.32   321.70   364.76   370.99   384.49
eigval :      388.92   408.08   410.64   429.16   431.74   488.32
eigval :      496.09   537.41   550.55   554.13   558.74   579.65
eigval :      582.52   589.10   589.80   606.52   612.93   674.95
eigval :      698.56   699.37   727.51   768.25   773.23   789.40
eigval :      800.10   808.64   812.38   821.46   826.78   840.36
eigval :      870.80   872.50   881.22   898.34   901.69   904.29
eigval :      956.80   960.56   991.09  1013.37  1033.41  1071.38
eigval :     1097.38  1123.91  1132.74  1157.52  1162.21  1179.57
eigval :     1184.65  1187.48  1203.81  1220.53  1231.66  1239.18
eigval :     1248.64  1281.02  1285.58  1301.56  1308.53  1315.70
eigval :     1338.98  1344.74  1349.72  1364.55  1368.02  1384.68
eigval :     1393.70  1418.40  1421.03  1455.01  1457.88  1476.63
eigval :     1488.56  1494.34  1500.88  1502.33  1504.62  1507.39
eigval :     1537.10  1582.36  1598.15  2220.29  2279.98  2306.46
eigval :     2342.35  2960.77  2967.32  2981.21  2983.15  2994.32
eigval :     2997.28  3037.01  3040.25  3048.36  3054.75  3066.43
eigval :     3085.19  3093.29  3094.53  3097.27  3139.77  3147.20

   temp. (K)  partition function   enthalpy   heat capacity  entropy
                                   cal/mol     cal/K/mol   cal/K/mol   J/K/mol
 298.15  VIB  0.223E+13            15469.420     89.865     97.997
         ROT  0.255E+08              888.752      2.981     36.872
         INT  0.568E+20            16358.173     92.846    134.870
         TR   0.704E+28             1481.254      4.968     43.641
         TOT                       17839.4264    97.8143   178.5113   746.8915

       T/K    H(0)-H(T)+PV         H(T)/Eh          T*S/Eh         G(T)/Eh
   ------------------------------------------------------------------------
    298.15    0.284289E-01    0.367085E+00    0.848165E-01    0.282268E+00
   ------------------------------------------------------------------------

         :::::::::::::::::::::::::::::::::::::::::::::::::::::
         ::                  THERMODYNAMIC                  ::
         :::::::::::::::::::::::::::::::::::::::::::::::::::::
         :: total free energy         -74.178164096473 Eh   ::
         ::.................................................::
         :: total energy              -74.460432489663 Eh   ::
         :: zero point energy           0.338655959321 Eh   ::
         :: G(RRHO) w/o ZPVE           -0.056387566132 Eh   ::
         :: G(RRHO) contrib.            0.282268393189 Eh   ::
         :::::::::::::::::::::::::::::::::::::::::::::::::::::

           -------------------------------------------------
          | TOTAL ENERGY              -74.460432489663 Eh   |
          | TOTAL ENTHALPY            -74.093347594745 Eh   |
          | TOTAL FREE ENERGY         -74.178164096473 Eh   |
          | GRADIENT NORM               0.000067235998 Eh/α |
           -------------------------------------------------

 * finished run on 2025/08/24 at 06:03:26.605
