   * xtb version 6.7.1 (edcfbbe) compiled by 'albert@albert-system' on 2024-07-22

   ID    Z sym.   atoms
    1    6 C      1-4, 6-12, 14, 16-23, 25, 27-29
    2    7 N      5, 13, 15, 24, 26
    3    1 H      30-46

          program call               : xtb data2507/gas/CBM/CBM_gas_T1_crest.xyz --gfn 2 --spinpol --tblite --uhf 2 --ohess vtight --parallel 40 --molden --ceasefiles --namespace data2507/gas/CBM/CBM_gas_T1_finalOpt
 * total energy  :   -74.4602510 Eh     change       -0.8908216E-09 Eh
 * total energy  :   -74.4602663 Eh     change       -0.1533636E-04 Eh
 * total energy  :   -74.4602672 Eh     change       -0.8853744E-06 Eh
 * total energy  :   -74.4603693 Eh     change       -0.1020965E-03 Eh
 * total energy  :   -74.4603845 Eh     change       -0.1521172E-04 Eh
 * total energy  :   -74.4604158 Eh     change       -0.3127431E-04 Eh
 * total energy  :   -74.4604193 Eh     change       -0.3520645E-05 Eh
 * total energy  :   -74.4604087 Eh     change        0.1065688E-04 Eh
 * total energy  :   -74.4604223 Eh     change       -0.1368306E-04 Eh
 * total energy  :   -74.4604246 Eh     change       -0.2277296E-05 Eh
 * total energy  :   -74.4604309 Eh     change       -0.3449951E-06 Eh
 * total energy  :   -74.4604312 Eh     change       -0.3059323E-06 Eh
 * total energy  :   -74.4604315 Eh     change       -0.3038227E-06 Eh
 * total energy  :   -74.4604318 Eh     change       -0.2649621E-06 Eh
 * total energy  :   -74.4604320 Eh     change       -0.2438090E-06 Eh
 * total energy  :   -74.4604320 Eh     change       -0.9482179E-08 Eh
 * total energy  :   -74.4604321 Eh     change       -0.1077272E-06 Eh
 * total energy  :   -74.4604322 Eh     change       -0.3185174E-07 Eh
 * total energy  :   -74.4604322 Eh     change       -0.4268182E-07 Eh
   *** GEOMETRY OPTIMIZATION CONVERGED AFTER 23 ITERATIONS ***

 final structure:
================
46
 xtb: 6.7.1 (edcfbbe)
C           -0.42972552854228       -5.25018218046679        2.48413108162192
C           -0.76319070300906       -4.48789236789391        1.20779624507663
C            0.41971128844575       -4.48017830512699        0.24255060164127
C            0.12204608518634       -3.71501215711285       -1.05413774404551
N           -0.06663454831845       -2.31039145617802       -0.81234409438838
C            0.95181961801296       -1.42146067895686       -0.60274751366677
C            2.33338336706633       -1.61287929653068       -0.63390706538784
C            3.14774963783365       -0.53323149333757       -0.39240353405842
C            2.63153580134636        0.75477144650039       -0.11667469845410
C            3.44668209651673        1.89115110665067        0.13579352336798
C            4.81954601738929        1.98305850424455        0.17184216711105
C            5.41896833487217        3.23061067664356        0.44445174799623
N            5.90395160275301        4.24735239214177        0.66585130519543
C            5.75641220008312        0.95647886509464       -0.03390030540137
N            6.57670706285575        0.16526612197134       -0.18954920519326
C            1.22642490906357        0.93507636991083       -0.09152694641289
C            0.40742122226766       -0.13598797754309       -0.33141576140548
C           -1.03206136403797       -0.29437092898056       -0.38268465749104
C           -2.06588387108998        0.57942228000530       -0.20376963367707
C           -3.41093999384147        0.10493006256547       -0.32364589069045
C           -4.53232673048014        0.91345938127548       -0.16209860503541
C           -4.57880313434040        2.30209525020103        0.13931859307359
C           -5.82978152044762        2.91368942809093        0.25755788984816
N           -6.86934084277583        3.40242436604675        0.35232924403207
C           -3.50234234444396        3.16129472110454        0.33954388088409
N           -2.65268694259861        3.92376098253727        0.51589621328478
C           -3.60760655734985       -1.28141412387482       -0.62974076849148
C           -2.57480276369779       -2.15393402511193       -0.80767815431798
C           -1.26203219792709       -1.66984850890440       -0.68291627875962
H           -1.28109374901264       -5.24967393433858        3.15958184958189
H           -0.17175636394469       -6.28210452155948        2.25731963734547
H            0.41309687541264       -4.79025880869466        2.99487021950269
H           -1.03800678044235       -3.46201717665446        1.46384221397852
H           -1.62454653051440       -4.95437744178849        0.72416475598799
H            1.28418956477777       -4.02920182265217        0.73413153690457
H            0.68033308818025       -5.50669914793209       -0.02097455888279
H           -0.77990356648252       -4.11360202331995       -1.52267558438795
H            0.95602831857705       -3.83603769091773       -1.75149951407009
H            2.76447264300376       -2.57948250154117       -0.84347044398767
H            4.21529267376531       -0.67464628309234       -0.41550217240019
H            2.91561608255867        2.81648701569988        0.32658529458156
H            0.81173642542258        1.91011399287351        0.11521978763859
H           -1.87466218432877        1.61331284341271        0.02478869431319
H           -5.50252398321154        0.44726164538961       -0.27563213769745
H           -4.62339802885416       -1.63539897992434       -0.72131845990908
H           -2.76944415059893       -3.19031441772590       -1.03668661805561

 projected vibrational frequencies (cm⁻¹)
eigval :       -0.00    -0.00     0.00     0.00     0.00     0.00
eigval :       18.53    21.09    24.40    26.24    43.38    44.61
eigval :       58.53    72.41    84.06    97.44   111.90   120.96
eigval :      121.58   128.37   138.85   158.83   180.98   192.25
eigval :      200.73   226.41   235.48   248.14   262.24   286.03
eigval :      300.98   307.38   321.82   364.65   370.85   384.49
eigval :      388.94   408.08   410.64   429.18   431.79   488.22
eigval :      496.02   537.47   550.57   554.11   558.92   579.73
eigval :      582.51   589.16   589.81   606.53   612.94   674.95
eigval :      698.51   699.39   727.24   768.55   773.16   789.48
eigval :      800.14   808.59   812.39   821.40   826.83   840.41
eigval :      870.84   872.54   881.51   898.36   901.71   904.34
eigval :      956.89   960.54   991.35  1013.39  1033.20  1071.40
eigval :     1097.43  1123.90  1132.86  1157.57  1162.25  1179.61
eigval :     1184.66  1187.61  1203.74  1220.47  1231.75  1239.20
eigval :     1248.65  1281.22  1285.58  1301.64  1308.54  1315.75
eigval :     1338.99  1344.59  1349.76  1364.69  1368.01  1384.62
eigval :     1393.71  1418.84  1421.07  1455.11  1458.44  1476.82
eigval :     1488.50  1494.59  1501.27  1502.76  1504.65  1507.44
eigval :     1537.08  1582.45  1598.25  2220.14  2279.91  2306.57
eigval :     2342.34  2961.43  2967.48  2981.64  2983.53  2994.64
eigval :     2997.61  3037.18  3040.42  3049.06  3054.76  3066.52
eigval :     3085.29  3093.30  3094.61  3097.26  3139.68  3147.52

   temp. (K)  partition function   enthalpy   heat capacity  entropy
                                   cal/mol     cal/K/mol   cal/K/mol   J/K/mol
 298.15  VIB  0.228E+13            15469.857     89.861     98.016
         ROT  0.255E+08              888.752      2.981     36.871
         INT  0.581E+20            16358.609     92.842    134.888
         TR   0.704E+28             1481.254      4.968     43.641
         TOT                       17839.8629    97.8103   178.5292   746.9664

       T/K    H(0)-H(T)+PV         H(T)/Eh          T*S/Eh         G(T)/Eh
   ------------------------------------------------------------------------
    298.15    0.284296E-01    0.367103E+00    0.848250E-01    0.282278E+00
   ------------------------------------------------------------------------

         :::::::::::::::::::::::::::::::::::::::::::::::::::::
         ::                  THERMODYNAMIC                  ::
         :::::::::::::::::::::::::::::::::::::::::::::::::::::
         :: total free energy         -74.178154520401 Eh   ::
         ::.................................................::
         :: total energy              -74.460432212155 Eh   ::
         :: zero point energy           0.338673066407 Eh   ::
         :: G(RRHO) w/o ZPVE           -0.056395374653 Eh   ::
         :: G(RRHO) contrib.            0.282277691754 Eh   ::
         :::::::::::::::::::::::::::::::::::::::::::::::::::::

           -------------------------------------------------
          | TOTAL ENERGY              -74.460432212155 Eh   |
          | TOTAL ENTHALPY            -74.093329514541 Eh   |
          | TOTAL FREE ENERGY         -74.178154520401 Eh   |
          | GRADIENT NORM               0.000127849581 Eh/α |
           -------------------------------------------------

 * finished run on 2025/08/24 at 06:07:15.314
