   * xtb version 6.7.1 (edcfbbe) compiled by 'albert@albert-system' on 2024-07-22

   ID    Z sym.   atoms
    1    6 C      1-4, 6-12, 14, 16-23, 25, 27-29
    2    7 N      5, 13, 15, 24, 26
    3    1 H      30-46

          program call               : xtb data2507/gas/CBM/CBM_gas_S0_crest.xyz --gfn 2 --ohess vtight --parallel 40 --molden --ceasefiles --namespace data2507/gas/CBM/CBM_gas_S0_finalOpt
          :  Hamiltonian                  GFN2-xTB          :
 * total energy  :   -74.5309263 Eh     change       -0.2289283E-08 Eh
 * total energy  :   -74.5309151 Eh     change        0.1113831E-04 Eh
 * total energy  :   -74.5309268 Eh     change       -0.1161665E-04 Eh
 * total energy  :   -74.5309269 Eh     change       -0.1805784E-06 Eh
 * total energy  :   -74.5309271 Eh     change       -0.1239623E-06 Eh
 * total energy  :   -74.5309281 Eh     change       -0.1036801E-05 Eh
 * total energy  :   -74.5309284 Eh     change       -0.2768227E-06 Eh
 * total energy  :   -74.5309268 Eh     change        0.1598404E-05 Eh
 * total energy  :   -74.5309288 Eh     change       -0.1988288E-05 Eh
 * total energy  :   -74.5309285 Eh     change        0.2211145E-06 Eh
 * total energy  :   -74.5309285 Eh     change        0.6165428E-07 Eh
 * total energy  :   -74.5309286 Eh     change       -0.9944314E-07 Eh
 * total energy  :   -74.5309287 Eh     change       -0.1423880E-06 Eh
 * total energy  :   -74.5309290 Eh     change       -0.2988045E-06 Eh
 * total energy  :   -74.5309291 Eh     change       -0.8884351E-07 Eh
   *** GEOMETRY OPTIMIZATION CONVERGED AFTER 15 ITERATIONS ***

 final structure:
================
46
 xtb: 6.7.1 (edcfbbe)
C           -0.41490665898001       -5.28059893125710        2.47239573642129
C           -0.74887765698621       -4.51026295214195        1.20125607624479
C            0.42740374631903       -4.50555182771182        0.22762178152662
C            0.12695799386676       -3.72776877932478       -1.05882532126050
N           -0.06020225162277       -2.32185275192389       -0.80995256400517
C            0.95610761990402       -1.42628269960483       -0.59700044679949
C            2.33396538531372       -1.61589668915658       -0.62848857889751
C            3.14715867836321       -0.53242536015921       -0.38844414541051
C            2.62678755375918        0.74885143971268       -0.11344275482363
C            3.45313468420618        1.89625874555156        0.13979022374712
C            4.80822837147321        1.99427705008198        0.16770125560379
C            5.40945904106449        3.24783472208885        0.44056298056369
N            5.89294323941145        4.26307841486481        0.66148646713069
C            5.75673564391468        0.97156585354747       -0.04773676195991
N            6.58554898467909        0.19424346864529       -0.21041297565985
C            1.23825395165593        0.93153932800666       -0.08427954663034
C            0.41106186627386       -0.14639793167334       -0.32464764069095
C           -1.01784951725574       -0.30322588014052       -0.37383289989838
C           -2.06445126547089        0.57730498172819       -0.19400034862978
C           -3.37638275381606        0.10699757036171       -0.31201244569796
C           -4.53229382357092        0.94126522593221       -0.14464926840521
C           -4.59862991817188        2.27011240720669        0.13584715026679
C           -5.86588253500514        2.89058751704755        0.25608341281483
N           -6.89667665435871        3.38252637509733        0.35132995506714
C           -3.52432420648489        3.16323238929923        0.33342135391739
N           -2.69783118510001        3.94126973306791        0.50463993337304
C           -3.59219947732309       -1.25608901775122       -0.61201908911284
C           -2.55948710028029       -2.14494682196682       -0.79294859233081
C           -1.25631460990274       -1.67016747727012       -0.67318169999964
H           -1.26232997318290       -5.27729589553095        3.15305154129570
H           -0.16554261196370       -6.31334137194732        2.23935673662843
H            0.43435643443600       -4.82938219697075        2.98037907278027
H           -1.01360472600367       -3.48298331023124        1.46214052102696
H           -1.61674902863210       -4.96730090524889        0.72007819273532
H            1.29784889310938       -4.06403964086755        0.71741635371754
H            0.67940010780752       -5.53254749446535       -0.04299037743456
H           -0.77735303619187       -4.11919299619328       -1.52938768721776
H            0.95591658422813       -3.84527080465615       -1.76343683317200
H            2.76662099137876       -2.58192643466237       -0.83636451008228
H            4.21514392132882       -0.67248707897937       -0.41190656649924
H            2.91221445389611        2.81584162221020        0.33505173493634
H            0.81902917246218        1.90489198042763        0.12276043589088
H           -1.86410239324511        1.61063161713978        0.03387682805820
H           -5.48640171372611        0.43849615630360       -0.26002787966304
H           -4.60896397286823       -1.60973869386823       -0.70140372754863
H           -2.76612334260820       -3.17945291581700       -1.01829122271714

          :  Hamiltonian                  GFN2-xTB          :
         :: gradient norm              0.000081530782 Eh/a0 ::
         :: HOMO-LUMO gap              1.976896644917 eV    ::
         :: SCC energy               -75.984564523794 Eh    ::
         :: -> dispersion             -0.054819303415 Eh    ::
         :: repulsion energy           1.453635404900 Eh    ::

    * Orbital Energies and Occupations

         #    Occupation            Energy/Eh            Energy/eV
      -------------------------------------------------------------
         1        2.0000           -0.7156531             -19.4739
       ...           ...                  ...                  ...
        57        2.0000           -0.4644535             -12.6384
        58        2.0000           -0.4595650             -12.5054
        59        2.0000           -0.4562073             -12.4140
        60        2.0000           -0.4545059             -12.3677
        61        2.0000           -0.4497136             -12.2373
        62        2.0000           -0.4428969             -12.0518
        63        2.0000           -0.4425627             -12.0427
        64        2.0000           -0.4396241             -11.9628
        65        2.0000           -0.4320664             -11.7571
        66        2.0000           -0.4291090             -11.6766
        67        2.0000           -0.4278253             -11.6417
        68        2.0000           -0.4131753             -11.2431
        69        2.0000           -0.3967294             -10.7956 (HOMO)
        70                         -0.3240797              -8.8187 (LUMO)
        71                         -0.3133884              -8.5277
        72                         -0.2805912              -7.6353
        73                         -0.2428084              -6.6072
        74                         -0.2399494              -6.5294
        75                         -0.2374517              -6.4614
        76                         -0.2196107              -5.9759
        77                         -0.2165728              -5.8932
        78                         -0.2143711              -5.8333
        79                         -0.2115138              -5.7556
        80                         -0.2017804              -5.4907
       ...                                ...                  ...
       133                          1.1645893              31.6901
      -------------------------------------------------------------
                  HL-Gap            0.0726497 Eh            1.9769 eV

     #   Z          covCN         q      C6AA      α(0)
     1   6 C        3.753    -0.106    22.577     6.776
     2   6 C        3.800    -0.052    21.505     6.603
     3   6 C        3.803    -0.065    21.748     6.639
     4   6 C        3.740    -0.005    20.741     6.498
     5   7 N        2.797    -0.026    21.746     6.926
     6   6 C        3.087     0.053    26.725     8.474
     7   6 C        2.907    -0.046    29.135     8.851
     8   6 C        2.925    -0.031    28.777     8.797
     9   6 C        2.969     0.008    27.846     8.656
    10   6 C        2.922    -0.005    28.139     8.699
    11   6 C        2.944     0.014    27.689     8.630
    12   6 C        1.937     0.119    28.168     8.571
    13   7 N        0.911    -0.221    25.836     7.351
    14   6 C        1.925     0.125    28.036     8.551
    15   7 N        0.911    -0.235    26.160     7.397
    16   6 C        2.922    -0.029    28.716     8.788
    17   6 C        3.063    -0.013    28.265     8.718
    18   6 C        3.067    -0.012    28.247     8.715
    19   6 C        2.914    -0.030    28.738     8.791
    20   6 C        2.969     0.006    27.890     8.663
    21   6 C        2.922    -0.005    28.143     8.700
    22   6 C        2.944     0.013    27.716     8.635
    23   6 C        1.936     0.118    28.178     8.572
    24   7 N        0.911    -0.224    25.887     7.359
    25   6 C        1.923     0.125    28.025     8.549
    26   7 N        0.911    -0.237    26.188     7.401
    27   6 C        2.932    -0.032    28.788     8.799
    28   6 C        2.907    -0.047    29.159     8.854
    29   6 C        3.083     0.053    26.716     8.473
    30   1 H        0.925     0.041     2.441     2.443
    31   1 H        0.925     0.039     2.466     2.456
    32   1 H        0.925     0.038     2.474     2.460
    33   1 H        0.924     0.032     2.563     2.504
    34   1 H        0.924     0.032     2.557     2.501
    35   1 H        0.924     0.046     2.374     2.409
    36   1 H        0.924     0.047     2.361     2.403
    37   1 H        0.924     0.056     2.242     2.342
    38   1 H        0.924     0.054     2.268     2.355
    39   1 H        0.926     0.043     2.414     2.430
    40   1 H        0.926     0.057     2.235     2.338
    41   1 H        0.925     0.057     2.233     2.337
    42   1 H        0.926     0.051     2.303     2.373
    43   1 H        0.926     0.057     2.234     2.338
    44   1 H        0.925     0.053     2.284     2.364
    45   1 H        0.926     0.044     2.402     2.424
    46   1 H        0.926     0.039     2.464     2.455

molecular dipole:
                 x           y           z       tot (Debye)
 q only:       -0.943      -3.698      -0.584
   full:       -1.404      -4.323      -0.768      11.717

 projected vibrational frequencies (cm⁻¹)
eigval :       -0.00    -0.00    -0.00    -0.00     0.00     0.00
eigval :       15.20    17.43    24.34    29.15    44.62    46.05
eigval :       57.29    74.54    84.36   100.19   113.23   122.16
eigval :      124.93   129.48   137.62   162.66   186.36   197.17
eigval :      209.58   228.41   235.89   253.57   267.20   288.12
eigval :      302.25   326.48   338.16   371.14   383.33   392.16
eigval :      411.30   414.50   431.29   447.59   450.90   496.06
eigval :      500.81   544.86   560.18   572.66   578.12   583.81
eigval :      590.58   602.57   607.26   616.60   618.10   687.43
eigval :      703.49   712.89   740.48   780.71   790.23   812.12
eigval :      816.06   818.01   836.33   858.81   858.92   873.36
eigval :      879.38   888.75   903.60   906.07   906.23   918.71
eigval :      976.19   982.03  1014.65  1029.12  1071.71  1098.48
eigval :     1127.19  1136.63  1153.62  1158.05  1166.52  1180.32
eigval :     1189.20  1204.17  1221.53  1235.72  1242.91  1250.74
eigval :     1281.50  1286.07  1305.42  1314.10  1325.83  1337.10
eigval :     1348.94  1367.24  1369.25  1377.53  1382.94  1419.30
eigval :     1428.95  1446.10  1462.35  1467.09  1480.08  1482.94
eigval :     1496.13  1502.48  1504.21  1549.71  1554.19  1564.01
eigval :     1570.28  1603.59  1620.76  2340.55  2341.06  2372.10
eigval :     2374.32  2954.33  2966.27  2980.44  2981.46  2991.20
eigval :     2995.36  3035.69  3038.92  3046.16  3046.43  3047.57
eigval :     3082.86  3089.31  3097.26  3097.87  3137.01  3138.22

   temp. (K)  partition function   enthalpy   heat capacity  entropy
                                   cal/mol     cal/K/mol   cal/K/mol   J/K/mol
 298.15  VIB  0.193E+13            15198.479     88.319     96.607
         ROT  0.256E+08              888.752      2.981     36.880
         INT  0.494E+20            16087.231     91.300    133.486
         TR   0.704E+28             1481.254      4.968     43.641
         TOT                       17568.4853    96.2679   177.1277   741.1022

       T/K    H(0)-H(T)+PV         H(T)/Eh          T*S/Eh         G(T)/Eh
   ------------------------------------------------------------------------
    298.15    0.279972E-01    0.370686E+00    0.841591E-01    0.286527E+00
   ------------------------------------------------------------------------

         :::::::::::::::::::::::::::::::::::::::::::::::::::::
         ::                  THERMODYNAMIC                  ::
         :::::::::::::::::::::::::::::::::::::::::::::::::::::
         :: total free energy         -74.244401927510 Eh   ::
         ::.................................................::
         :: total energy              -74.530929118894 Eh   ::
         :: zero point energy           0.342689105700 Eh   ::
         :: G(RRHO) w/o ZPVE           -0.056161914316 Eh   ::
         :: G(RRHO) contrib.            0.286527191384 Eh   ::
         :::::::::::::::::::::::::::::::::::::::::::::::::::::

           -------------------------------------------------
          | TOTAL ENERGY              -74.530929118894 Eh   |
          | TOTAL ENTHALPY            -74.160242849714 Eh   |
          | TOTAL FREE ENERGY         -74.244401927510 Eh   |
          | GRADIENT NORM               0.000081639350 Eh/α |
          | HOMO-LUMO GAP               1.976898817679 eV   |
           -------------------------------------------------

 * finished run on 2025/08/24 at 06:03:23.470
