   * xtb version 6.7.1 (edcfbbe) compiled by 'albert@albert-system' on 2024-07-22

   ID    Z sym.   atoms
    1    6 C      1-4, 6-12, 14, 16-23, 25, 27-29
    2    7 N      5, 13, 15, 24, 26
    3    1 H      30-46

          program call               : xtb data2507/gas/CBM/CBM.xyz --gfn 2 --ohess vtight --parallel 40 --molden --ceasefiles --namespace data2507/gas/CBM/CBM_gas_S0_preOpt
          :  Hamiltonian                  GFN2-xTB          :
 * total energy  :   -74.5064235 Eh     change       -0.7300216E-08 Eh
 * total energy  :   -74.5158126 Eh     change       -0.9389032E-02 Eh
 * total energy  :   -74.5181235 Eh     change       -0.2310961E-02 Eh
 * total energy  :   -74.5182839 Eh     change       -0.1604001E-03 Eh
 * total energy  :   -74.5201580 Eh     change       -0.1874093E-02 Eh
 * total energy  :   -74.5211532 Eh     change       -0.9952004E-03 Eh
 * total energy  :   -74.5223088 Eh     change       -0.1155619E-02 Eh
 * total energy  :   -74.5231584 Eh     change       -0.8495423E-03 Eh
 * total energy  :   -74.5234931 Eh     change       -0.3347283E-03 Eh
 * total energy  :   -74.5244111 Eh     change       -0.9179581E-03 Eh
 * total energy  :   -74.5300089 Eh     change        0.3887962E-06 Eh
 * total energy  :   -74.5300083 Eh     change        0.5182600E-06 Eh
 * total energy  :   -74.5300098 Eh     change       -0.1510884E-05 Eh
 * total energy  :   -74.5300098 Eh     change        0.4395289E-08 Eh
 * total energy  :   -74.5300098 Eh     change        0.3722107E-09 Eh
 * total energy  :   -74.5300098 Eh     change        0.1799546E-07 Eh
 * total energy  :   -74.5300100 Eh     change       -0.1278389E-06 Eh
 * total energy  :   -74.5300099 Eh     change        0.5187758E-07 Eh
 * total energy  :   -74.5300099 Eh     change       -0.1935744E-07 Eh
   *** GEOMETRY OPTIMIZATION CONVERGED AFTER 94 ITERATIONS ***

 final structure:
================
46
 xtb: 6.7.1 (edcfbbe)
C           -4.95552783822833       -2.68899947639538       -0.12730649102042
C           -3.67574269619072       -3.21685806068611        0.51096988752742
C           -2.59129673748856       -2.15019525617650        0.65534833066786
C           -2.03725032260805       -1.68337004821751       -0.69510517691693
N           -0.97197686985601       -0.73089257056353       -0.52206692664003
C            0.35297525829655       -1.03856562432069       -0.35257725283433
C            0.99202332497230       -2.27407092976241       -0.36342198253697
C            2.35486341282897       -2.30551749910252       -0.17832430347313
C            3.11121501609938       -1.13239167698911        0.02115878184841
C            4.53438193406464       -1.13689584682793        0.21546761511527
C            5.39717204910218       -2.18628067286456        0.25059676147001
C            6.77787862999596       -1.94470670445318        0.45676122297137
N            7.89409899977229       -1.74594312479167        0.62367169145925
C            5.10079504162400       -3.55832832219822        0.10379463780073
N            4.93773320169754       -4.68939114169846       -0.00485299055598
C            2.45972693547156        0.10770804921354        0.03454377095548
C            1.09308265824784        0.15383882238854       -0.14918734173788
C            0.13705169221695        1.22816199567156       -0.18362620491689
C            0.25330553266327        2.59557788120609       -0.04392538198993
C           -0.89774342454551        3.38676854068647       -0.12229196491647
C           -0.88261105539069        4.81607919748761        0.00881325215429
C            0.17259612224151        5.64810245926592        0.21665622445166
C           -0.05343002821921        7.04270647373786        0.31373015284489
N           -0.24790011900954        8.16960061359407        0.39038815376653
C            1.53201647261674        5.29713153499943        0.35663784745157
N            2.65279019805576        5.08113758875954        0.47904053873919
C           -2.14678497240627        2.76425263128990       -0.33939317034684
C           -2.27822995833065        1.40304732878795       -0.48055082239235
C           -1.12739146171643        0.62392888290156       -0.40613484686633
H           -4.79249540367779       -2.39925852894155       -1.16236679077008
H           -5.72408383586750       -3.45752964738391       -0.11307233359389
H           -5.32738589850086       -1.82639223178691        0.42148378612094
H           -3.28899184194487       -4.04911387946510       -0.08109561665037
H           -3.91085430521809       -3.60133964325156        1.50520865397906
H           -2.99357583524913       -1.28855716383443        1.19320580628495
H           -1.76551996301095       -2.55402620011269        1.24601052123842
H           -2.82347614911090       -1.21242184693809       -1.28830410379268
H           -1.65235354584567       -2.53924111051056       -1.25570380191775
H            0.44456312362861       -3.19214762900754       -0.50877984733287
H            2.85563026080885       -3.25942248875658       -0.18518870211522
H            4.98070695426480       -0.15798835959989        0.35290469719607
H            3.01995822984012        1.01795474271550        0.18822709923742
H            1.22031474117579        3.03888657564218        0.12395627446117
H           -1.85092207827012        5.29834583522466       -0.07018566501637
H           -3.02945972430867        3.38459990685242       -0.39434170445128
H           -3.24987172468814        0.96201562420999       -0.64077128495577

          :  Hamiltonian                  GFN2-xTB          :
         :: gradient norm              0.000107430376 Eh/a0 ::
         :: HOMO-LUMO gap              1.971475398227 eV    ::
         :: SCC energy               -75.983787006273 Eh    ::
         :: -> dispersion             -0.054102931024 Eh    ::
         :: repulsion energy           1.453777082770 Eh    ::

    * Orbital Energies and Occupations

         #    Occupation            Energy/Eh            Energy/eV
      -------------------------------------------------------------
         1        2.0000           -0.7154783             -19.4692
       ...           ...                  ...                  ...
        57        2.0000           -0.4639170             -12.6238
        58        2.0000           -0.4620882             -12.5741
        59        2.0000           -0.4574177             -12.4470
        60        2.0000           -0.4549838             -12.3807
        61        2.0000           -0.4501512             -12.2492
        62        2.0000           -0.4427284             -12.0473
        63        2.0000           -0.4419459             -12.0260
        64        2.0000           -0.4393956             -11.9566
        65        2.0000           -0.4319803             -11.7548
        66        2.0000           -0.4288724             -11.6702
        67        2.0000           -0.4276632             -11.6373
        68        2.0000           -0.4130121             -11.2386
        69        2.0000           -0.3963696             -10.7858 (HOMO)
        70                         -0.3239193              -8.8143 (LUMO)
        71                         -0.3131584              -8.5215
        72                         -0.2804419              -7.6312
        73                         -0.2425851              -6.6011
        74                         -0.2398608              -6.5269
        75                         -0.2371909              -6.4543
        76                         -0.2195023              -5.9730
        77                         -0.2163251              -5.8865
        78                         -0.2141905              -5.8284
        79                         -0.2112902              -5.7495
        80                         -0.2016603              -5.4875
       ...                                ...                  ...
       133                          1.1647747              31.6951
      -------------------------------------------------------------
                  HL-Gap            0.0724503 Eh            1.9715 eV

     #   Z          covCN         q      C6AA      α(0)
     1   6 C        3.751    -0.106    22.587     6.778
     2   6 C        3.800    -0.056    21.583     6.614
     3   6 C        3.802    -0.062    21.694     6.631
     4   6 C        3.741    -0.005    20.738     6.497
     5   7 N        2.798    -0.029    21.801     6.935
     6   6 C        3.085     0.052    26.735     8.476
     7   6 C        2.907    -0.046    29.136     8.851
     8   6 C        2.925    -0.031    28.775     8.797
     9   6 C        2.969     0.008    27.848     8.656
    10   6 C        2.923    -0.005    28.139     8.699
    11   6 C        2.944     0.014    27.692     8.631
    12   6 C        1.937     0.119    28.168     8.571
    13   7 N        0.911    -0.222    25.840     7.352
    14   6 C        1.925     0.125    28.037     8.551
    15   7 N        0.911    -0.236    26.163     7.398
    16   6 C        2.922    -0.029    28.715     8.788
    17   6 C        3.064    -0.013    28.266     8.718
    18   6 C        3.066    -0.012    28.241     8.714
    19   6 C        2.914    -0.029    28.734     8.790
    20   6 C        2.969     0.006    27.889     8.662
    21   6 C        2.922    -0.005    28.143     8.700
    22   6 C        2.944     0.013    27.716     8.635
    23   6 C        1.936     0.118    28.178     8.572
    24   7 N        0.911    -0.224    25.887     7.359
    25   6 C        1.923     0.125    28.025     8.549
    26   7 N        0.911    -0.237    26.186     7.401
    27   6 C        2.932    -0.032    28.789     8.799
    28   6 C        2.906    -0.047    29.175     8.857
    29   6 C        3.085     0.053    26.725     8.474
    30   1 H        0.925     0.034     2.533     2.489
    31   1 H        0.925     0.042     2.424     2.435
    32   1 H        0.925     0.038     2.474     2.460
    33   1 H        0.924     0.036     2.501     2.473
    34   1 H        0.924     0.042     2.422     2.434
    35   1 H        0.924     0.042     2.417     2.431
    36   1 H        0.924     0.040     2.444     2.445
    37   1 H        0.924     0.058     2.219     2.330
    38   1 H        0.924     0.056     2.247     2.344
    39   1 H        0.926     0.043     2.415     2.430
    40   1 H        0.926     0.057     2.232     2.337
    41   1 H        0.925     0.057     2.233     2.337
    42   1 H        0.926     0.051     2.301     2.372
    43   1 H        0.926     0.057     2.234     2.337
    44   1 H        0.925     0.053     2.285     2.364
    45   1 H        0.926     0.043     2.404     2.425
    46   1 H        0.926     0.040     2.448     2.447

molecular dipole:
                 x           y           z       tot (Debye)
 q only:       -3.660      -1.418      -0.482
   full:       -4.428      -1.400      -0.607      11.904

 projected vibrational frequencies (cm⁻¹)
eigval :       -0.00    -0.00    -0.00     0.00     0.00     0.00
eigval :       15.71    17.43    21.09    26.47    35.75    44.05
eigval :       44.39    69.52    84.26   102.39   106.12   122.11
eigval :      123.27   131.40   136.21   168.22   180.02   207.91
eigval :      209.51   223.72   241.80   265.63   268.31   276.35
eigval :      303.74   327.83   337.53   368.75   386.22   397.59
eigval :      408.33   413.60   431.09   433.81   447.91   470.91
eigval :      496.06   547.99   561.25   571.56   578.23   583.83
eigval :      602.57   606.43   607.36   616.64   626.78   687.47
eigval :      712.70   720.18   748.53   780.51   786.40   812.96
eigval :      815.84   816.42   818.48   853.57   858.66   858.97
eigval :      879.56   888.67   903.83   906.29   914.75   930.96
eigval :      973.68   980.86  1004.08  1028.37  1062.97  1117.68
eigval :     1126.63  1142.29  1153.67  1158.15  1167.22  1180.41
eigval :     1188.66  1197.87  1214.93  1237.58  1250.33  1253.67
eigval :     1269.64  1283.96  1298.31  1314.10  1336.95  1348.67
eigval :     1350.37  1354.85  1367.79  1377.06  1384.10  1418.50
eigval :     1428.93  1446.96  1465.72  1467.73  1482.60  1487.95
eigval :     1492.48  1503.98  1511.25  1549.79  1554.39  1564.25
eigval :     1570.85  1603.56  1620.82  2340.50  2340.93  2371.88
eigval :     2374.14  2965.12  2972.39  2977.05  2985.70  2990.05
eigval :     2993.37  3033.82  3039.36  3046.00  3047.61  3049.15
eigval :     3082.04  3089.33  3095.82  3096.34  3136.84  3138.23

   temp. (K)  partition function   enthalpy   heat capacity  entropy
                                   cal/mol     cal/K/mol   cal/K/mol   J/K/mol
 298.15  VIB  0.401E+13            15248.585     87.782     96.933
         ROT  0.276E+08              888.752      2.981     37.032
         INT  0.111E+21            16137.338     90.763    133.965
         TR   0.704E+28             1481.254      4.968     43.641
         TOT                       17618.5917    95.7311   177.6063   743.1047

       T/K    H(0)-H(T)+PV         H(T)/Eh          T*S/Eh         G(T)/Eh
   ------------------------------------------------------------------------
    298.15    0.280770E-01    0.370720E+00    0.843865E-01    0.286333E+00
   ------------------------------------------------------------------------

         :::::::::::::::::::::::::::::::::::::::::::::::::::::
         ::                  THERMODYNAMIC                  ::
         :::::::::::::::::::::::::::::::::::::::::::::::::::::
         :: total free energy         -74.243676874989 Eh   ::
         ::.................................................::
         :: total energy              -74.530009923518 Eh   ::
         :: zero point energy           0.342642511735 Eh   ::
         :: G(RRHO) w/o ZPVE           -0.056309463205 Eh   ::
         :: G(RRHO) contrib.            0.286333048529 Eh   ::
         :::::::::::::::::::::::::::::::::::::::::::::::::::::

           -------------------------------------------------
          | TOTAL ENERGY              -74.530009923518 Eh   |
          | TOTAL ENTHALPY            -74.159290398677 Eh   |
          | TOTAL FREE ENERGY         -74.243676874989 Eh   |
          | GRADIENT NORM               0.000107578748 Eh/α |
          | HOMO-LUMO GAP               1.971474294122 eV   |
           -------------------------------------------------

 * finished run on 2025/08/24 at 05:59:55.875
