   * xtb version 6.7.1 (edcfbbe) compiled by 'albert@albert-system' on 2024-07-22

   ID    Z sym.   atoms
    1    8 O      1
    2    6 C      2-6, 8-13, 15-38, 40-45, 47-66
    3    7 N      7, 39
    4   14 Si     14, 46
    5    1 H      67-110

          program call               : xtb data2507/toluene/BDAPM/BDAPM_toluene_S0_finalOpt.xtbopt.xyz --gfn 2 --uhf 2 --gbsa toluene --ohess vtight --parallel 40 --molden --ceasefiles --namespace data2507/toluene/BDAPM/BDAPM_toluene_T1_preOpt
      * Solvation model:               GBSA
        Solvent                        toluene
        Solvent mass                       9.2140E+01 g/mol
          :  Hamiltonian                  GFN2-xTB          :
 * total energy  :  -166.3317770 Eh     change       -0.1581992E-07 Eh
 * total energy  :  -166.3342817 Eh     change       -0.2504777E-02 Eh
 * total energy  :  -166.3349854 Eh     change       -0.7036594E-03 Eh
 * total energy  :  -166.3351192 Eh     change       -0.1337620E-03 Eh
 * total energy  :  -166.3352270 Eh     change       -0.1078361E-03 Eh
 * total energy  :  -166.3353085 Eh     change       -0.8152625E-04 Eh
 * total energy  :  -166.3353912 Eh     change       -0.8268834E-04 Eh
 * total energy  :  -166.3354582 Eh     change       -0.6695332E-04 Eh
 * total energy  :  -166.3355075 Eh     change       -0.4928306E-04 Eh
 * total energy  :  -166.3355251 Eh     change       -0.1762607E-04 Eh
 * total energy  :  -166.3359980 Eh     change       -0.3193451E-06 Eh
 * total energy  :  -166.3359983 Eh     change       -0.2917497E-06 Eh
 * total energy  :  -166.3359985 Eh     change       -0.2181979E-06 Eh
 * total energy  :  -166.3359987 Eh     change       -0.1613085E-06 Eh
 * total energy  :  -166.3359988 Eh     change       -0.1461902E-06 Eh
 * total energy  :  -166.3359990 Eh     change       -0.1427338E-06 Eh
 * total energy  :  -166.3359991 Eh     change       -0.1411466E-06 Eh
 * total energy  :  -166.3359992 Eh     change       -0.1003140E-06 Eh
 * total energy  :  -166.3359993 Eh     change       -0.7082988E-07 Eh
   *** GEOMETRY OPTIMIZATION CONVERGED AFTER 173 ITERATIONS ***

 final structure:
================
110
 xtb: 6.7.1 (edcfbbe)
O            0.01631412915944       -4.78618501466176       -0.82117185914834
C            0.00101877952433       -3.52568187195314       -0.62693509400784
C           -1.22692929327386       -2.78254446668093       -0.84101451675832
C           -1.25592275021688       -1.42680284095116       -1.23104093269777
C           -2.44008859605551       -0.77639757389303       -1.45526602266455
C           -3.67665401584480       -1.44160578695462       -1.33155279036901
N           -4.86494239401306       -0.76063778584481       -1.48507405116379
C           -4.90544264007571        0.60744726245093       -1.83016357506869
C           -4.35382093091827        1.04757032280745       -3.02976728463876
C           -4.43326403493539        2.38568052722230       -3.36905122862950
C           -5.06675398181911        3.28524162021552       -2.52343558196586
C           -5.62463401102284        2.84050685462664       -1.33698493287238
C           -5.54929899970573        1.50481562651135       -0.97157847397837
Si          -6.24734314985625        0.69107726719799        0.58465091325595
C           -7.51303059670638        1.73661218977374        1.50897415549924
C           -8.68684615692997        2.14984773166783        0.88401127834185
C           -9.61498740474478        2.92394605396489        1.55662964478771
C           -9.38228264623071        3.29950555641704        2.86998190512395
C           -8.21880213609613        2.89646632778786        3.50471752308533
C           -7.29385816147221        2.12148320112652        2.82760947929266
C           -4.77903775230997        0.11462475587818        1.63630590362388
C           -4.89873814614309       -0.98291854083902        2.48462250088760
C           -3.80995025454960       -1.45814421639907        3.19296844109860
C           -2.57651722853962       -0.84092717473159        3.06502612675781
C           -2.44217671376495        0.25700294622923        2.23193388251212
C           -3.53412038401343        0.72700276404584        1.52510384974019
C           -6.96492723692884       -0.82696211715594       -0.28319335545645
C           -8.20881085668639       -1.40685791296201       -0.08365877215163
C           -8.60971955378514       -2.50338684077465       -0.82729204847232
C           -7.76773342325451       -3.02374408754105       -1.79958488835798
C           -6.52503381282807       -2.45859418236044       -2.02029832879771
C           -6.11839578325040       -1.36959485991465       -1.25597871563179
C           -3.65292929945072       -2.80146642955825       -0.96193882857867
C           -2.46727011523942       -3.45061447004378       -0.75005888509800
C            1.20514847680940       -2.84761565072333       -0.19244275814828
C            2.46352424021179       -3.44306314464749       -0.43354372142908
C            3.62893648076203       -2.86015187130374       -0.01738913195538
C            3.61472098082511       -1.66037301060333        0.72313114923208
N            4.78264903714108       -1.03782225061830        1.11044687013293
C            6.05677722195824       -1.53260386050506        0.75617566069108
C            6.45786546124034       -2.80471112799599        1.15337610981035
C            7.71905789701969       -3.26166880211183        0.81783495555839
C            8.58722537411439       -2.45339158254215        0.09774009266755
C            8.19400721405784       -1.17873674650214       -0.27134916620605
C            6.93147544648002       -0.70152066741130        0.04792446645374
Si           6.24778176436154        1.02407963392912       -0.29647303040620
C            4.84636675443131        0.90541113212513       -1.56678256814623
C            3.90937146886725        1.92928097388769       -1.68308577668541
C            2.84583813189424        1.82564125603448       -2.56097180151962
C            2.69994078694343        0.69029093811401       -3.34149531058344
C            3.62371321070547       -0.33621290898763       -3.23990734636075
C            4.68582213443438       -0.22659243230372       -2.36035157780737
C            7.56553430509644        2.30250165791968       -0.72277248712178
C            7.50414215278099        3.02506848289255       -1.90974248985202
C            8.47260028426321        3.96280934328484       -2.22193873771275
C            9.52250744143484        4.19231914948848       -1.34795830208429
C            9.59833668984853        3.47954565976109       -0.16204310990957
C            8.62720603957790        2.54386571331018        0.14550747864876
C            5.45452618656511        1.27240048173557        1.40239699708881
C            5.48688244184604        2.41326171373577        2.19051957322048
C            4.86182131424037        2.44393963208385        3.42527335554858
C            4.20029440318333        1.31689038279749        3.89247692076198
C            4.16035859213969        0.16594388660116        3.12807977131941
C            4.78098292981576        0.14302642592965        1.88170393832244
C            2.36059334801665       -1.06991588746782        0.98412387032046
C            1.19694879893591       -1.64789880709971        0.55227893247801
H           -0.32641745637627       -0.89638628449345       -1.37188093225640
H           -2.42089709554692        0.26986226012636       -1.71711439961050
H           -3.88192721183992        0.33832370994987       -3.69473652750332
H           -4.00763895806685        2.72548985061229       -4.30175327386629
H           -5.12646092321085        4.32894466483147       -2.79395233809005
H           -6.11912585437573        3.53601001744544       -0.67486840511489
H           -8.87065340060985        1.86050261483418       -0.14086047411643
H          -10.52170070972262        3.23637515409206        1.05819396251130
H          -10.10571871997315        3.90488906778124        3.39712102511529
H           -8.03341903507468        3.18742181386581        4.52907743510197
H           -6.38734218202124        1.80888018421197        3.32555013690113
H           -5.85652370165186       -1.47411158034481        2.58338659705809
H           -3.91916375037228       -2.31628106576771        3.84115216305276
H           -1.72259918315100       -1.21729229773185        3.61018601122520
H           -1.48236383398583        0.74344638795004        2.12870151125425
H           -3.41972776303042        1.58004004453122        0.87147321279953
H           -8.86330850318055       -0.99379117736332        0.66987981842358
H           -9.57820866280965       -2.95006404186964       -0.65782197863018
H           -8.08285678020413       -3.86785222445822       -2.39517352968100
H           -5.87563384641021       -2.84560700373272       -2.79263491415057
H           -4.57883923911125       -3.33565592977381       -0.81721778518964
H           -2.45556341942205       -4.49467084201637       -0.47149434312688
H            2.48115541550357       -4.36814729105112       -0.99193519889560
H            4.56844966685303       -3.31985678149588       -0.28087280742729
H            5.79035675678326       -3.42047825350957        1.73921433920753
H            8.02844662031334       -4.24873606796309        1.12868626994217
H            9.56984759184122       -2.81659337996743       -0.16437785808739
H            8.86936509792836       -0.54025426348831       -0.82178175099022
H            4.01520271917784        2.81501830894899       -1.07277067740296
H            2.12606259882783        2.62861752130363       -2.63594981402071
H            1.86671154489088        0.60310561482100       -4.02429824897131
H            3.51112139287887       -1.22711285149053       -3.84172178764996
H            5.39924055669754       -1.03483591785842       -2.28348694233320
H            6.68748921867190        2.84826793274047       -2.59471874487440
H            8.40974319426450        4.51604415979842       -3.14839018651263
H           10.27986984193385        4.92398192919412       -1.59047945979345
H           10.41620721343810        3.65514621280750        0.52238590850267
H            8.68999685621469        1.98975720388000        1.07121670458984
H            6.00468669417028        3.28707203126534        1.82303576931374
H            4.89100894919016        3.34030384673160        4.02673992384946
H            3.72224661013923        1.33082742037102        4.86091608294259
H            3.66678604843723       -0.72221086172935        3.49650472827284
H            2.31399646017540       -0.13426003575261        1.51953864589465
H            0.25265515150881       -1.18917671731474        0.80199031836262

          :  Hamiltonian                  GFN2-xTB          :
         :: gradient norm              0.000037609084 Eh/a0 ::
         :: HOMO-LUMO gap              0.438453881305 eV    ::
         :: SCC energy              -169.425428425491 Eh    ::
         :: -> dispersion             -0.169882384178 Eh    ::
         :: -> Gsolv                  -0.081593332674 Eh    ::
         :: repulsion energy           3.089429151528 Eh    ::

    * Orbital Energies and Occupations

         #    Occupation            Energy/Eh            Energy/eV
      -------------------------------------------------------------
         1        2.0000           -0.7660704             -20.8458
       ...           ...                  ...                  ...
       145        2.0000           -0.4036909             -10.9850
       146        2.0000           -0.4023565             -10.9487
       147        2.0000           -0.4006539             -10.9023
       148        2.0000           -0.3920215             -10.6674
       149        2.0000           -0.3916517             -10.6574
       150        2.0000           -0.3901452             -10.6164
       151        2.0000           -0.3899913             -10.6122
       152        2.0000           -0.3893613             -10.5951
       153        2.0000           -0.3891210             -10.5885
       154        1.9950           -0.3637799              -9.8990
       155        1.6810           -0.3594654              -9.7816
       156        1.3239           -0.3580457              -9.7429
       157        0.9998           -0.2677851              -7.2868 (HOMO)
       158        0.0002           -0.2516723              -6.8484 (LUMO)
       159        0.0000           -0.2496801              -6.7941
       160                         -0.2421236              -6.5885
       161                         -0.2420156              -6.5856
       162                         -0.2377815              -6.4704
       163                         -0.2361764              -6.4267
       164                         -0.2347873              -6.3889
       165                         -0.2319484              -6.3116
       166                         -0.2308508              -6.2818
       167                         -0.2306107              -6.2752
       168                         -0.2280520              -6.2056
       ...                                ...                  ...
       318                          0.6792932              18.4845
      -------------------------------------------------------------
                  HL-Gap            0.0161128 Eh            0.4385 eV

     #   Z          covCN         q      C6AA      α(0)
     1   8 O        0.858    -0.542    24.740     6.669
     2   6 C        2.831     0.160    24.539     8.118
     3   6 C        2.967    -0.016    28.415     8.744
     4   6 C        2.916    -0.042    29.032     8.836
     5   6 C        2.917    -0.050    29.235     8.866
     6   6 C        2.914     0.056    26.734     8.479
     7   7 N        2.757    -0.054    22.279     7.010
     8   6 C        2.974     0.052    26.837     8.498
     9   6 C        2.918    -0.039    28.966     8.826
    10   6 C        2.920    -0.029    28.723     8.789
    11   6 C        2.917    -0.033    28.815     8.803
    12   6 C        2.926    -0.028    28.697     8.785
    13   6 C        2.868    -0.111    30.801     9.097
    14  14 Si       3.663     0.501    97.398    18.915
    15   6 C        2.865    -0.091    30.288     9.021
    16   6 C        2.938    -0.032    28.795     8.801
    17   6 C        2.917    -0.030    28.741     8.791
    18   6 C        2.920    -0.028    28.696     8.785
    19   6 C        2.917    -0.030    28.742     8.791
    20   6 C        2.938    -0.033    28.823     8.805
    21   6 C        2.863    -0.092    30.306     9.024
    22   6 C        2.937    -0.032    28.796     8.801
    23   6 C        2.917    -0.030    28.745     8.792
    24   6 C        2.921    -0.028    28.699     8.785
    25   6 C        2.917    -0.030    28.741     8.791
    26   6 C        2.936    -0.032    28.787     8.799
    27   6 C        2.868    -0.111    30.802     9.097
    28   6 C        2.926    -0.028    28.701     8.786
    29   6 C        2.917    -0.033    28.814     8.802
    30   6 C        2.920    -0.029    28.728     8.790
    31   6 C        2.918    -0.039    28.960     8.825
    32   6 C        2.973     0.052    26.840     8.498
    33   6 C        2.916    -0.051    29.262     8.871
    34   6 C        2.921    -0.030    28.740     8.791
    35   6 C        2.966    -0.017    28.440     8.747
    36   6 C        2.920    -0.030    28.752     8.793
    37   6 C        2.915    -0.050    29.244     8.868
    38   6 C        2.913     0.055    26.765     8.483
    39   7 N        2.756    -0.052    22.245     7.005
    40   6 C        2.970     0.052    26.835     8.497
    41   6 C        2.918    -0.039    28.972     8.827
    42   6 C        2.920    -0.029    28.735     8.791
    43   6 C        2.917    -0.033    28.820     8.803
    44   6 C        2.927    -0.028    28.709     8.787
    45   6 C        2.868    -0.112    30.826     9.101
    46  14 Si       3.659     0.500    97.453    18.922
    47   6 C        2.863    -0.091    30.286     9.021
    48   6 C        2.937    -0.033    28.810     8.803
    49   6 C        2.917    -0.030    28.753     8.793
    50   6 C        2.921    -0.028    28.702     8.786
    51   6 C        2.917    -0.029    28.732     8.790
    52   6 C        2.936    -0.030    28.759     8.795
    53   6 C        2.865    -0.092    30.295     9.022
    54   6 C        2.937    -0.033    28.829     8.806
    55   6 C        2.917    -0.030    28.745     8.792
    56   6 C        2.920    -0.028    28.698     8.785
    57   6 C        2.917    -0.030    28.743     8.792
    58   6 C        2.938    -0.032    28.792     8.800
    59   6 C        2.867    -0.110    30.791     9.096
    60   6 C        2.926    -0.028    28.689     8.784
    61   6 C        2.917    -0.033    28.817     8.803
    62   6 C        2.920    -0.029    28.724     8.789
    63   6 C        2.918    -0.039    28.964     8.825
    64   6 C        2.972     0.051    26.846     8.499
    65   6 C        2.916    -0.050    29.235     8.867
    66   6 C        2.916    -0.043    29.057     8.839
    67   1 H        0.926     0.033     2.541     2.493
    68   1 H        0.926     0.040     2.452     2.449
    69   1 H        0.926     0.038     2.475     2.460
    70   1 H        0.926     0.041     2.439     2.442
    71   1 H        0.926     0.040     2.442     2.444
    72   1 H        0.926     0.038     2.469     2.457
    73   1 H        0.926     0.030     2.581     2.512
    74   1 H        0.926     0.034     2.537     2.491
    75   1 H        0.926     0.033     2.543     2.494
    76   1 H        0.926     0.031     2.565     2.505
    77   1 H        0.926     0.023     2.685     2.562
    78   1 H        0.926     0.026     2.640     2.541
    79   1 H        0.926     0.029     2.601     2.522
    80   1 H        0.926     0.028     2.615     2.529
    81   1 H        0.926     0.029     2.606     2.524
    82   1 H        0.926     0.025     2.657     2.549
    83   1 H        0.926     0.039     2.468     2.457
    84   1 H        0.926     0.040     2.449     2.447
    85   1 H        0.926     0.040     2.452     2.449
    86   1 H        0.926     0.038     2.478     2.462
    87   1 H        0.926     0.036     2.504     2.475
    88   1 H        0.926     0.030     2.580     2.512
    89   1 H        0.926     0.030     2.583     2.513
    90   1 H        0.926     0.036     2.499     2.472
    91   1 H        0.926     0.038     2.478     2.462
    92   1 H        0.926     0.039     2.459     2.452
    93   1 H        0.926     0.039     2.459     2.452
    94   1 H        0.926     0.038     2.481     2.463
    95   1 H        0.926     0.029     2.603     2.523
    96   1 H        0.926     0.033     2.550     2.497
    97   1 H        0.926     0.029     2.598     2.520
    98   1 H        0.926     0.026     2.648     2.545
    99   1 H        0.926     0.021     2.711     2.575
   100   1 H        0.926     0.023     2.681     2.560
   101   1 H        0.926     0.031     2.568     2.506
   102   1 H        0.926     0.033     2.547     2.496
   103   1 H        0.926     0.033     2.542     2.493
   104   1 H        0.926     0.030     2.591     2.517
   105   1 H        0.926     0.039     2.466     2.456
   106   1 H        0.926     0.041     2.440     2.443
   107   1 H        0.926     0.041     2.440     2.442
   108   1 H        0.926     0.038     2.480     2.463
   109   1 H        0.926     0.038     2.474     2.460
   110   1 H        0.926     0.033     2.538     2.491

molecular dipole:
                 x           y           z       tot (Debye)
 q only:       -0.159       4.561       0.778
   full:       -0.134       4.179       0.715      10.782

 projected vibrational frequencies (cm⁻¹)
eigval :       -0.00     0.00     0.00     0.00     0.00     0.00
eigval :       -2.10     4.85     8.32    12.85    17.50    21.48
eigval :       23.58    26.65    28.45    29.96    31.35    38.30
eigval :       39.00    40.86    42.62    43.31    44.14    48.10
eigval :       57.58    58.70    65.41    70.43    79.42    86.69
eigval :      111.22   126.87   129.33   137.42   139.44   158.47
eigval :      159.64   161.74   167.95   170.86   171.88   178.46
eigval :      191.80   197.86   199.55   201.25   209.47   215.19
eigval :      219.66   229.70   248.65   250.83   274.24   277.55
eigval :      294.64   305.33   316.38   316.46   322.71   352.46
eigval :      354.04   356.27   360.50   361.04   361.86   369.36
eigval :      373.98   384.86   404.40   405.18   408.52   411.71
eigval :      413.35   417.13   417.72   421.42   430.45   432.37
eigval :      450.64   451.48   456.75   466.41   472.42   474.32
eigval :      491.97   492.54   504.39   505.26   523.35   528.21
eigval :      531.26   547.00   583.25   586.43   588.73   588.90
eigval :      589.05   589.19   592.56   608.31   609.68   633.22
eigval :      653.00   653.25   660.21   661.95   662.40   663.23
eigval :      667.00   668.80   668.95   669.11   684.56   695.78
eigval :      697.64   697.75   698.48   707.08   712.83   722.05
eigval :      726.70   733.48   735.53   736.85   737.58   751.07
eigval :      771.04   772.39   774.73   776.81   790.98   804.47
eigval :      825.36   837.82   876.30   878.24   880.59   884.51
eigval :      884.74   884.92   886.51   886.78   888.03   897.14
eigval :      902.10   903.81   904.38   904.94   905.61   906.99
eigval :      907.48   907.56   907.86   911.99   916.51   918.56
eigval :      920.26   921.78   926.00   928.35   928.51   929.79
eigval :      931.40   933.56   934.02   934.28   934.51   934.87
eigval :      937.14   938.04   940.50   974.96   975.09   977.38
eigval :      977.61   991.92   999.69  1059.25  1059.61  1068.38
eigval :     1068.56  1083.09  1083.12  1084.25  1084.63  1086.12
eigval :     1086.70  1087.69  1087.90  1119.15  1119.19  1120.29
eigval :     1120.45  1143.89  1145.14  1145.71  1147.96  1153.12
eigval :     1154.13  1156.68  1158.30  1158.71  1162.82  1165.53
eigval :     1168.58  1175.47  1177.34  1177.82  1178.62  1180.84
eigval :     1181.34  1182.19  1182.36  1193.90  1199.69  1203.96
eigval :     1204.17  1206.19  1207.82  1223.98  1237.00  1237.40
eigval :     1241.87  1247.21  1254.79  1258.45  1258.95  1274.42
eigval :     1280.81  1283.97  1284.56  1286.09  1287.48  1307.89
eigval :     1308.79  1310.40  1310.74  1310.95  1311.19  1312.49
eigval :     1312.96  1315.85  1320.44  1331.43  1337.02  1380.33
eigval :     1407.97  1409.54  1415.45  1417.16  1418.40  1418.88
eigval :     1419.41  1419.72  1423.04  1425.71  1426.46  1435.08
eigval :     1435.75  1438.29  1441.94  1451.75  1456.82  1460.68
eigval :     1461.67  1461.78  1462.96  1463.04  1521.60  1545.32
eigval :     1547.40  1549.03  1551.11  1563.65  1564.74  1567.29
eigval :     1568.52  1574.95  1575.12  1575.36  1575.84  1578.02
eigval :     1591.09  1591.11  1593.05  1593.15  3061.21  3061.45
eigval :     3062.52  3062.64  3063.65  3063.79  3065.01  3065.11
eigval :     3068.72  3068.86  3071.00  3071.48  3071.63  3071.71
eigval :     3071.98  3072.01  3073.31  3073.45  3074.03  3074.64
eigval :     3074.66  3074.88  3076.08  3076.11  3077.55  3078.54
eigval :     3080.84  3081.21  3081.41  3081.68  3082.57  3082.93
eigval :     3083.86  3084.81  3084.92  3086.44  3090.65  3091.10
eigval :     3091.41  3092.17  3096.00  3098.10  3098.40  3101.74

   temp. (K)  partition function   enthalpy   heat capacity  entropy
                                   cal/mol     cal/K/mol   cal/K/mol   J/K/mol
 298.15  VIB  0.316E+31            34236.688    203.591    219.834
         ROT  0.218E+09              888.752      2.981     41.133
         INT  0.687E+39            35125.441    206.572    260.967
         TR   0.251E+29             1481.254      4.968     46.170
         TOT                       36606.6945   211.5398   307.1369  1285.0608

       T/K    H(0)-H(T)+PV         H(T)/Eh          T*S/Eh         G(T)/Eh
   ------------------------------------------------------------------------
    298.15    0.583365E-01    0.896507E+00    0.145931E+00    0.750576E+00
   ------------------------------------------------------------------------

         :::::::::::::::::::::::::::::::::::::::::::::::::::::
         ::                  THERMODYNAMIC                  ::
         :::::::::::::::::::::::::::::::::::::::::::::::::::::
         :: total free energy        -165.585422905377 Eh   ::
         ::.................................................::
         :: total energy             -166.335999278241 Eh   ::
         :: zero point energy           0.838170540278 Eh   ::
         :: G(RRHO) w/o ZPVE           -0.087594167415 Eh   ::
         :: G(RRHO) contrib.            0.750576372863 Eh   ::
         :::::::::::::::::::::::::::::::::::::::::::::::::::::

           -------------------------------------------------
          | TOTAL ENERGY             -166.335999278241 Eh   |
          | TOTAL ENTHALPY           -165.439492256975 Eh   |
          | TOTAL FREE ENERGY        -165.585422905377 Eh   |
          | GRADIENT NORM               0.000039697607 Eh/α |
          | HOMO-LUMO GAP               0.438450440217 eV   |
           -------------------------------------------------

 * finished run on 2025/09/12 at 17:19:10.874
