   * xtb version 6.7.1 (edcfbbe) compiled by 'albert@albert-system' on 2024-07-22

   ID    Z sym.   atoms
    1    8 O      1
    2    6 C      2-6, 8-13, 15-38, 40-45, 47-66
    3    7 N      7, 39
    4   14 Si     14, 46
    5    1 H      67-110

          program call               : xtb data2507/toluene/BDAPM/BDAPM_toluene_S0_crest.xyz --gfn 2 --gbsa toluene --ohess vtight --parallel 40 --molden --ceasefiles --namespace data2507/toluene/BDAPM/BDAPM_toluene_S0_finalOpt
      * Solvation model:               GBSA
        Solvent                        toluene
        Solvent mass                       9.2140E+01 g/mol
          :  Hamiltonian                  GFN2-xTB          :
 * total energy  :  -166.4237960 Eh     change       -0.1016161E-08 Eh
 * total energy  :  -166.4239871 Eh     change       -0.1910943E-03 Eh
 * total energy  :  -166.4240889 Eh     change       -0.1017795E-03 Eh
 * total energy  :  -166.4241225 Eh     change       -0.3363700E-04 Eh
 * total energy  :  -166.4241760 Eh     change       -0.5351897E-04 Eh
 * total energy  :  -166.4242178 Eh     change       -0.4176726E-04 Eh
 * total energy  :  -166.4242470 Eh     change       -0.2923841E-04 Eh
 * total energy  :  -166.4242709 Eh     change       -0.2389610E-04 Eh
 * total energy  :  -166.4242868 Eh     change       -0.1588758E-04 Eh
 * total energy  :  -166.4243049 Eh     change       -0.1805002E-04 Eh
 * total energy  :  -166.4248544 Eh     change       -0.1149450E-05 Eh
 * total energy  :  -166.4248552 Eh     change       -0.8762730E-06 Eh
 * total energy  :  -166.4248559 Eh     change       -0.6871924E-06 Eh
 * total energy  :  -166.4248566 Eh     change       -0.6864225E-06 Eh
 * total energy  :  -166.4248572 Eh     change       -0.6391076E-06 Eh
 * total energy  :  -166.4248577 Eh     change       -0.4176544E-06 Eh
 * total energy  :  -166.4248580 Eh     change       -0.3478880E-06 Eh
 * total energy  :  -166.4248585 Eh     change       -0.4517875E-06 Eh
 * total energy  :  -166.4248585 Eh     change       -0.1182843E-07 Eh
   *** GEOMETRY OPTIMIZATION CONVERGED AFTER 68 ITERATIONS ***

 final structure:
================
110
 xtb: 6.7.1 (edcfbbe)
O            0.05415175289443       -4.99219754562080       -0.81935956709197
C            0.05234134044944       -3.77830812858797       -0.60905750230165
C           -1.13734604463511       -2.95584980886974       -0.88282407633250
C           -1.05032849611699       -1.61641189485469       -1.26923239426272
C           -2.18118146826598       -0.88635332748931       -1.54915150351772
C           -3.45838364895645       -1.45842575002846       -1.44932105930341
N           -4.58817278720474       -0.71085274836497       -1.66942086968490
C           -4.52699060736928        0.67506829265475       -1.96669285092687
C           -3.96556638987350        1.11271774973151       -3.15942608876583
C           -3.93897512955453        2.46663276782212       -3.44623561119118
C           -4.48168179030608        3.37959610884629       -2.55540398582133
C           -5.05488406858358        2.93629969951440       -1.37606961209556
C           -5.07933527927667        1.58443783287920       -1.06373045242831
Si          -5.83308449785618        0.76990005932326        0.46678472399246
C           -7.02331160250410        1.87013022403493        1.42850564837654
C           -8.12529425853111        2.44304826311116        0.79887929184969
C           -9.00440457727438        3.24951239220177        1.49880631305503
C           -8.79488445728320        3.49613769222464        2.84618975486034
C           -7.70304811325269        2.93314550624709        3.48639412771463
C           -6.82630497210800        2.12786423458889        2.78100959731880
C           -4.41091393350748        0.07830747342861        1.51213609632258
C           -4.59803490424923       -1.03260884210540        2.33009592206610
C           -3.54838811775230       -1.57038850150283        3.05284638424392
C           -2.28692435386728       -1.00415218301858        2.96946596880463
C           -2.08429156612719        0.10305142225613        2.16278092943113
C           -3.13762648499647        0.63581167432357        1.44204332161771
C           -6.67199817634810       -0.66539018040580       -0.43443722441337
C           -7.95564362782775       -1.15233283235861       -0.23337660099991
C           -8.44879241778274       -2.18786944067076       -1.00812404213400
C           -7.66288846197224       -2.73792071074057       -2.00865345192517
C           -6.38373124589027       -2.25873490875798       -2.23282550483711
C           -5.88771428936058       -1.23185504978605       -1.44019158528884
C           -3.54246748921140       -2.80301421438855       -1.05717270384159
C           -2.40686252993977       -3.53246217611210       -0.80112369859900
C            1.24340766238376       -3.09090347633353       -0.08210963697270
C            2.51421036177267       -3.57281359537265       -0.40154509405666
C            3.65068859643932       -2.95057725911974        0.05589691425128
C            3.56682866029183       -1.83284151607185        0.89952079112907
N            4.69527051345177       -1.17648480329072        1.32446451526672
C            5.98628927393906       -1.52804665536099        0.85245349717954
C            6.55260194264292       -2.74824947597923        1.19757995338916
C            7.82083370561044       -3.06612521512553        0.74290166531460
C            8.52559105897619       -2.16779528661070       -0.04294842459435
C            7.96389116997006       -0.94485736214189       -0.36664321586243
C            6.69030543844363       -0.61099305988347        0.07135679899692
Si           5.77982860293053        1.02273366264818       -0.19899111918213
C            4.30431792189121        0.73211936068465       -1.35306875777192
C            3.17717867873011        1.54640890471153       -1.28007355379193
C            2.07789106452494        1.31711408142870       -2.08746600998540
C            2.08610209928434        0.26178743868984       -2.98493157659946
C            3.19909719735035       -0.55776996521346       -3.07053308985480
C            4.29564370752960       -0.32296544278105       -2.26059876769830
C            6.90089514650080        2.43720043960119       -0.74323213028227
C            6.62598243100607        3.16925005724960       -1.89342918852690
C            7.45410087011451        4.20325835796963       -2.29325104068717
C            8.57601330704334        4.52135527177993       -1.54550968083361
C            8.86328881297031        3.80170665310509       -0.39667065604703
C            8.03133749463850        2.76991121864806       -0.00126148323596
C            5.10735512544803        1.20151219516841        1.56032564197256
C            5.07766444011043        2.34908035892405        2.34020814549304
C            4.57093104515894        2.31689545738304        3.62782780873735
C            4.10008353213104        1.12489103778307        4.15606814731892
C            4.13298240058179       -0.03358491519688        3.39932741793907
C            4.62773144131924        0.00805343906971        2.10206597881541
C            2.28839540700194       -1.37042474616132        1.24604694986196
C            1.15585821798486       -1.98092454177031        0.76074709899405
H           -0.08063813909092       -1.15187547820353       -1.37191511033573
H           -2.08115044581893        0.14929531168462       -1.83278948634690
H           -3.55753759397487        0.39474862867949       -3.85664719851103
H           -3.50128095843214        2.80794751968843       -4.37307456952633
H           -4.46109975586148        4.43480316485584       -2.78535720169364
H           -5.48302975564064        3.64340759173548       -0.68047111414392
H           -8.29189750387991        2.25262174159918       -0.25189460224811
H           -9.85495486926913        3.68715278451441        0.99542831975024
H           -9.48037274779019        4.12568323482870        3.39535230622002
H           -7.53601733393167        3.12302665606247        4.53735060138740
H           -5.97525557057705        1.69090841111417        3.28347906285211
H           -5.57840628384415       -1.48322241152670        2.39531049619127
H           -3.71084765289852       -2.43632933615844        3.67915586005294
H           -1.46471258100842       -1.42729785379637        3.52916048385609
H           -1.10278871100251        0.55037990483805        2.09239588179758
H           -2.97067721214063        1.49675714878650        0.81064705483508
H           -8.56744321242685       -0.71611264734660        0.54295781285701
H           -9.44681798407771       -2.56458941677419       -0.83834135871562
H           -8.04903357719279       -3.53788274609320       -2.62350431351577
H           -5.77126483763267       -2.67495003312461       -3.02013930119055
H           -4.50785746738354       -3.26893238012905       -0.93688578047642
H           -2.48157032976217       -4.56924156864398       -0.50428218518724
H            2.58916274732298       -4.43674028433965       -1.04711668178935
H            4.61552319846089       -3.32059091635565       -0.25314345300175
H            6.00293335314108       -3.43963514818584        1.82049894977788
H            8.26162994562937       -4.01560279747464        1.00986599563984
H            9.51469060637962       -2.42067887196309       -0.39579054838312
H            8.51292149011683       -0.23835271396669       -0.97216043031162
H            3.16296461562302        2.36750116735495       -0.57735303787472
H            1.21050606052744        1.95816941880639       -2.01504436819748
H            1.22747085749325        0.07613091464584       -3.61459694604428
H            3.20819952230710       -1.38519103979529       -3.76603277543318
H            5.15838062648311       -0.97023734157770       -2.32955242505613
H            5.75288502055109        2.92288756903380       -2.48052864189283
H            7.22608247275102        4.76186674565746       -3.19013682266805
H            9.22525956281170        5.32722121845280       -1.85704500124480
H            9.73769785211531        4.04660632020822        0.18977622065793
H            8.25865451508571        2.21056266117471        0.89520298866259
H            5.45149323130502        3.27455712953932        1.92666212063822
H            4.54580780412428        3.21771444768792        4.22339876792269
H            3.71361814173103        1.09366783536619        5.16443019537995
H            3.77966531075362       -0.96889918551062        3.80987969307342
H            2.18974183084966       -0.50709613539062        1.88516225583715
H            0.18425653719054       -1.60990114323189        1.05196595776774

          :  Hamiltonian                  GFN2-xTB          :
         :: gradient norm              0.000073472638 Eh/a0 ::
         :: HOMO-LUMO gap              2.264508998278 eV    ::
         :: SCC energy              -169.531334741924 Eh    ::
         :: -> dispersion             -0.173207027612 Eh    ::
         :: -> Gsolv                  -0.072335693077 Eh    ::
         :: repulsion energy           3.106476266297 Eh    ::

    * Orbital Energies and Occupations

         #    Occupation            Energy/Eh            Energy/eV
      -------------------------------------------------------------
         1        2.0000           -0.7639131             -20.7871
       ...           ...                  ...                  ...
       144        2.0000           -0.4032548             -10.9731
       145        2.0000           -0.4028223             -10.9614
       146        2.0000           -0.4009714             -10.9110
       147        2.0000           -0.4009019             -10.9091
       148        2.0000           -0.3901175             -10.6156
       149        2.0000           -0.3899866             -10.6121
       150        2.0000           -0.3890301             -10.5860
       151        2.0000           -0.3889697             -10.5844
       152        2.0000           -0.3872549             -10.5377
       153        2.0000           -0.3871887             -10.5359
       154        2.0000           -0.3780177             -10.2864
       155        2.0000           -0.3588183              -9.7639
       156        2.0000           -0.3545174              -9.6469 (HOMO)
       157                         -0.2712981              -7.3824 (LUMO)
       158                         -0.2493405              -6.7849
       159                         -0.2480204              -6.7490
       160                         -0.2408976              -6.5552
       161                         -0.2408417              -6.5536
       162                         -0.2357960              -6.4163
       163                         -0.2349487              -6.3933
       164                         -0.2321276              -6.3165
       165                         -0.2299643              -6.2576
       166                         -0.2298143              -6.2536
       167                         -0.2286952              -6.2231
       ...                                ...                  ...
       318                          0.6832971              18.5935
      -------------------------------------------------------------
                  HL-Gap            0.0832193 Eh            2.2645 eV

     #   Z          covCN         q      C6AA      α(0)
     1   8 O        0.858    -0.467    23.064     6.439
     2   6 C        2.829     0.218    23.415     7.929
     3   6 C        2.971    -0.034    28.853     8.811
     4   6 C        2.920    -0.029    28.726     8.789
     5   6 C        2.922    -0.059    29.461     8.901
     6   6 C        2.915     0.075    26.325     8.414
     7   7 N        2.757    -0.090    22.994     7.122
     8   6 C        2.972     0.055    26.762     8.486
     9   6 C        2.919    -0.042    29.033     8.836
    10   6 C        2.921    -0.030    28.738     8.791
    11   6 C        2.917    -0.034    28.851     8.808
    12   6 C        2.926    -0.030    28.738     8.791
    13   6 C        2.868    -0.112    30.828     9.101
    14  14 Si       3.663     0.501    97.378    18.913
    15   6 C        2.865    -0.093    30.329     9.027
    16   6 C        2.938    -0.032    28.791     8.800
    17   6 C        2.917    -0.030    28.750     8.793
    18   6 C        2.920    -0.028    28.707     8.786
    19   6 C        2.917    -0.030    28.751     8.793
    20   6 C        2.937    -0.033    28.830     8.806
    21   6 C        2.863    -0.092    30.294     9.022
    22   6 C        2.936    -0.032    28.794     8.800
    23   6 C        2.917    -0.030    28.757     8.794
    24   6 C        2.920    -0.029    28.717     8.788
    25   6 C        2.917    -0.030    28.751     8.793
    26   6 C        2.937    -0.031    28.783     8.799
    27   6 C        2.868    -0.111    30.815     9.100
    28   6 C        2.926    -0.029    28.734     8.791
    29   6 C        2.917    -0.034    28.845     8.807
    30   6 C        2.921    -0.029    28.735     8.791
    31   6 C        2.919    -0.041    29.027     8.835
    32   6 C        2.971     0.055    26.761     8.485
    33   6 C        2.921    -0.059    29.475     8.903
    34   6 C        2.923    -0.021    28.521     8.758
    35   6 C        2.971    -0.034    28.847     8.810
    36   6 C        2.923    -0.021    28.523     8.758
    37   6 C        2.921    -0.059    29.466     8.902
    38   6 C        2.916     0.075    26.332     8.415
    39   7 N        2.757    -0.091    23.016     7.125
    40   6 C        2.971     0.055    26.754     8.484
    41   6 C        2.919    -0.042    29.033     8.836
    42   6 C        2.921    -0.030    28.739     8.791
    43   6 C        2.917    -0.034    28.849     8.808
    44   6 C        2.927    -0.030    28.744     8.792
    45   6 C        2.868    -0.112    30.839     9.103
    46  14 Si       3.661     0.501    97.395    18.916
    47   6 C        2.863    -0.091    30.288     9.021
    48   6 C        2.937    -0.032    28.807     8.802
    49   6 C        2.917    -0.030    28.754     8.793
    50   6 C        2.921    -0.029    28.716     8.788
    51   6 C        2.917    -0.030    28.747     8.792
    52   6 C        2.936    -0.031    28.765     8.796
    53   6 C        2.865    -0.093    30.333     9.028
    54   6 C        2.937    -0.033    28.831     8.806
    55   6 C        2.917    -0.030    28.752     8.793
    56   6 C        2.920    -0.028    28.707     8.786
    57   6 C        2.917    -0.030    28.750     8.793
    58   6 C        2.938    -0.032    28.790     8.800
    59   6 C        2.868    -0.111    30.809     9.099
    60   6 C        2.926    -0.029    28.729     8.790
    61   6 C        2.917    -0.034    28.847     8.807
    62   6 C        2.921    -0.029    28.734     8.790
    63   6 C        2.919    -0.041    29.030     8.835
    64   6 C        2.971     0.055    26.761     8.485
    65   6 C        2.922    -0.059    29.474     8.903
    66   6 C        2.920    -0.030    28.740     8.791
    67   1 H        0.926     0.036     2.500     2.472
    68   1 H        0.926     0.038     2.480     2.463
    69   1 H        0.926     0.036     2.509     2.477
    70   1 H        0.926     0.038     2.481     2.463
    71   1 H        0.926     0.037     2.485     2.465
    72   1 H        0.926     0.034     2.525     2.485
    73   1 H        0.926     0.029     2.607     2.525
    74   1 H        0.926     0.033     2.551     2.498
    75   1 H        0.926     0.032     2.554     2.499
    76   1 H        0.926     0.031     2.576     2.510
    77   1 H        0.926     0.022     2.703     2.571
    78   1 H        0.926     0.025     2.654     2.547
    79   1 H        0.926     0.029     2.604     2.523
    80   1 H        0.926     0.028     2.610     2.526
    81   1 H        0.926     0.030     2.592     2.518
    82   1 H        0.926     0.025     2.659     2.550
    83   1 H        0.926     0.034     2.528     2.486
    84   1 H        0.926     0.037     2.487     2.466
    85   1 H        0.926     0.037     2.486     2.466
    86   1 H        0.926     0.036     2.507     2.476
    87   1 H        0.926     0.035     2.520     2.482
    88   1 H        0.926     0.034     2.528     2.486
    89   1 H        0.926     0.034     2.535     2.490
    90   1 H        0.926     0.035     2.518     2.481
    91   1 H        0.926     0.036     2.508     2.476
    92   1 H        0.926     0.037     2.490     2.468
    93   1 H        0.926     0.037     2.494     2.469
    94   1 H        0.926     0.034     2.533     2.489
    95   1 H        0.926     0.027     2.624     2.533
    96   1 H        0.926     0.032     2.563     2.503
    97   1 H        0.926     0.029     2.598     2.521
    98   1 H        0.926     0.026     2.641     2.541
    99   1 H        0.926     0.022     2.698     2.568
   100   1 H        0.926     0.022     2.703     2.571
   101   1 H        0.926     0.031     2.576     2.510
   102   1 H        0.926     0.032     2.555     2.499
   103   1 H        0.926     0.032     2.553     2.498
   104   1 H        0.926     0.028     2.612     2.527
   105   1 H        0.926     0.034     2.525     2.485
   106   1 H        0.926     0.038     2.480     2.463
   107   1 H        0.926     0.038     2.478     2.462
   108   1 H        0.926     0.036     2.507     2.476
   109   1 H        0.926     0.036     2.500     2.472
   110   1 H        0.926     0.037     2.491     2.468

molecular dipole:
                 x           y           z       tot (Debye)
 q only:       -0.099       3.606       0.585
   full:       -0.073       3.304       0.534       8.508

 projected vibrational frequencies (cm⁻¹)
eigval :       -0.00    -0.00    -0.00     0.00     0.00     0.00
eigval :        6.32     9.40    10.99    15.34    18.10    21.36
eigval :       24.49    25.38    28.10    30.89    32.24    39.27
eigval :       39.83    41.26    43.54    45.72    48.47    56.29
eigval :       57.19    58.96    68.09    72.92    82.02    89.58
eigval :      114.55   126.48   127.84   137.43   139.38   156.99
eigval :      159.27   162.32   166.23   169.86   170.80   179.44
eigval :      195.39   197.12   200.36   200.92   213.87   216.13
eigval :      225.21   238.08   249.69   254.18   271.85   273.82
eigval :      305.88   309.56   323.02   326.20   356.89   357.18
eigval :      357.76   358.82   360.06   360.32   372.17   374.74
eigval :      380.10   392.08   405.47   406.52   412.98   413.26
eigval :      418.32   419.30   421.70   424.73   438.63   452.73
eigval :      453.77   455.41   460.94   468.94   481.84   482.12
eigval :      498.47   499.02   511.87   518.49   523.89   525.49
eigval :      559.06   588.72   588.89   589.15   589.31   589.44
eigval :      591.04   599.32   609.25   614.45   638.45   641.40
eigval :      657.17   661.38   662.31   662.58   663.43   665.97
eigval :      675.61   676.33   678.43   692.73   698.10   698.49
eigval :      701.02   702.58   708.21   714.08   722.30   723.00
eigval :      729.92   733.93   736.07   737.04   741.03   758.13
eigval :      775.64   777.15   782.07   783.33   812.87   815.59
eigval :      859.20   862.71   879.38   879.68   883.81   886.90
eigval :      888.11   890.37   891.38   892.18   892.84   902.84
eigval :      906.40   907.51   907.87   908.07   908.50   913.19
eigval :      915.53   917.28   918.63   920.67   921.67   925.13
eigval :      927.57   929.05   929.92   931.51   932.99   933.05
eigval :      933.36   933.73   934.69   935.32   936.04   937.92
eigval :      940.47   941.78   954.31   975.07   975.29   977.63
eigval :      977.90  1007.87  1029.35  1063.80  1064.07  1072.60
eigval :     1072.67  1083.22  1083.37  1084.00  1084.68  1087.97
eigval :     1088.17  1089.06  1089.54  1119.70  1120.01  1120.75
eigval :     1120.83  1145.69  1146.44  1149.98  1151.82  1155.11
eigval :     1155.28  1159.66  1160.89  1164.02  1164.67  1177.30
eigval :     1177.63  1179.45  1179.57  1181.51  1181.68  1182.15
eigval :     1182.28  1186.03  1193.90  1203.71  1204.48  1205.55
eigval :     1206.39  1207.77  1208.36  1224.22  1239.05  1239.68
eigval :     1247.29  1248.23  1265.28  1266.53  1279.18  1285.02
eigval :     1285.44  1286.03  1286.50  1287.24  1287.99  1307.64
eigval :     1308.01  1310.23  1310.43  1310.66  1311.19  1311.32
eigval :     1311.46  1334.53  1339.34  1340.25  1345.65  1417.41
eigval :     1418.30  1418.95  1419.11  1419.72  1420.16  1423.61
eigval :     1424.14  1432.40  1433.11  1433.39  1433.78  1451.04
eigval :     1452.01  1462.21  1462.89  1463.06  1463.65  1491.17
eigval :     1495.32  1543.63  1544.78  1564.58  1564.77  1568.59
eigval :     1568.89  1573.74  1575.41  1575.70  1575.71  1576.19
eigval :     1579.69  1580.32  1580.39  1587.02  1591.04  1591.79
eigval :     1591.99  1593.28  1593.41  1625.99  3060.55  3061.79
eigval :     3061.84  3062.13  3062.84  3063.43  3063.51  3064.10
eigval :     3068.26  3068.90  3069.11  3069.52  3069.71  3069.91
eigval :     3070.06  3070.64  3071.14  3071.19  3071.62  3072.55
eigval :     3073.39  3074.25  3074.49  3074.70  3074.99  3075.37
eigval :     3078.22  3078.24  3078.73  3079.21  3079.57  3081.81
eigval :     3083.35  3083.81  3083.91  3084.35  3088.30  3088.36
eigval :     3089.15  3089.24  3100.90  3101.45  3103.42  3104.60

   temp. (K)  partition function   enthalpy   heat capacity  entropy
                                   cal/mol     cal/K/mol   cal/K/mol   J/K/mol
 298.15  VIB  0.151E+30            33872.839    202.145    215.667
         ROT  0.200E+09              888.752      2.981     40.966
         INT  0.302E+38            34761.591    205.126    256.633
         TR   0.251E+29             1481.254      4.968     46.170
         TOT                       36242.8448   210.0944   302.8026  1266.9263

       T/K    H(0)-H(T)+PV         H(T)/Eh          T*S/Eh         G(T)/Eh
   ------------------------------------------------------------------------
    298.15    0.577566E-01    0.900256E+00    0.143871E+00    0.756384E+00
   ------------------------------------------------------------------------

         :::::::::::::::::::::::::::::::::::::::::::::::::::::
         ::                  THERMODYNAMIC                  ::
         :::::::::::::::::::::::::::::::::::::::::::::::::::::
         :: total free energy        -165.668474153875 Eh   ::
         ::.................................................::
         :: total energy             -166.424858478837 Eh   ::
         :: zero point energy           0.842498984810 Eh   ::
         :: G(RRHO) w/o ZPVE           -0.086114659847 Eh   ::
         :: G(RRHO) contrib.            0.756384324962 Eh   ::
         :::::::::::::::::::::::::::::::::::::::::::::::::::::

           -------------------------------------------------
          | TOTAL ENERGY             -166.424858478837 Eh   |
          | TOTAL ENTHALPY           -165.524602844493 Eh   |
          | TOTAL FREE ENERGY        -165.668474153875 Eh   |
          | GRADIENT NORM               0.000073395453 Eh/α |
          | HOMO-LUMO GAP               2.264511624581 eV   |
           -------------------------------------------------

 * finished run on 2025/09/12 at 17:18:31.099
