   * xtb version 6.7.1 (edcfbbe) compiled by 'albert@albert-system' on 2024-07-22

   ID    Z sym.   atoms
    1    8 O      1
    2    6 C      2-6, 8-13, 15-38, 40-45, 47-66
    3    7 N      7, 39
    4   14 Si     14, 46
    5    1 H      67-110

          program call               : xtb data2507/toluene/BDAPM/BDAPM_toluene_T1_crest.xyz --gfn 2 --uhf 2 --gbsa toluene --ohess vtight --parallel 40 --molden --ceasefiles --namespace data2507/toluene/BDAPM/BDAPM_toluene_T1_finalOpt
      * Solvation model:               GBSA
        Solvent                        toluene
        Solvent mass                       9.2140E+01 g/mol
          :  Hamiltonian                  GFN2-xTB          :
 * total energy  :  -166.3350581 Eh     change       -0.1103513E-07 Eh
 * total energy  :  -166.3353080 Eh     change       -0.2499480E-03 Eh
 * total energy  :  -166.3354066 Eh     change       -0.9859224E-04 Eh
 * total energy  :  -166.3354370 Eh     change       -0.3035580E-04 Eh
 * total energy  :  -166.3354626 Eh     change       -0.2562958E-04 Eh
 * total energy  :  -166.3355001 Eh     change       -0.3748545E-04 Eh
 * total energy  :  -166.3355219 Eh     change       -0.2180460E-04 Eh
 * total energy  :  -166.3355392 Eh     change       -0.1732006E-04 Eh
 * total energy  :  -166.3355484 Eh     change       -0.9160903E-05 Eh
 * total energy  :  -166.3355583 Eh     change       -0.9914195E-05 Eh
 * total energy  :  -166.3356700 Eh     change       -0.6254788E-06 Eh
 * total energy  :  -166.3356705 Eh     change       -0.4799958E-06 Eh
 * total energy  :  -166.3356709 Eh     change       -0.4344200E-06 Eh
 * total energy  :  -166.3356709 Eh     change        0.8238885E-08 Eh
 * total energy  :  -166.3356709 Eh     change        0.5802775E-08 Eh
 * total energy  :  -166.3356711 Eh     change       -0.1959365E-06 Eh
 * total energy  :  -166.3356718 Eh     change       -0.6438991E-06 Eh
 * total energy  :  -166.3356720 Eh     change       -0.2519982E-06 Eh
 * total energy  :  -166.3356720 Eh     change       -0.2335958E-07 Eh
   *** GEOMETRY OPTIMIZATION CONVERGED AFTER 49 ITERATIONS ***

 final structure:
================
110
 xtb: 6.7.1 (edcfbbe)
O           -0.00151624611112       -4.83138063023230        0.00620781000561
C           -0.00101268146894       -3.55571096179675        0.00440747324858
C           -1.18931211883401       -2.83267417383944       -0.40328102979621
C           -1.15151546910512       -1.54061281840229       -0.97067776454216
C           -2.29824499709213       -0.89986315510509       -1.35624212397149
C           -3.55988714407845       -1.51425053997725       -1.22198641439250
N           -4.71591053283337       -0.82658771216366       -1.52082659205246
C           -4.69454989278443        0.49637136590439       -2.01404057083744
C           -4.09904569907047        0.78172038000371       -3.23853820942057
C           -4.12255995630244        2.07618766828266       -3.72482481795860
C           -4.74136083394208        3.08461012218700       -2.99988738505043
C           -5.33815540581782        2.79428471477986       -1.78470378997174
C           -5.32049943289617        1.50530424475326       -1.27395415032569
Si          -6.05882326934430        0.88070018631319        0.35060566157722
C           -7.26387600578965        2.06508902168742        1.18129897858152
C           -8.35559064095040        2.57352309827544        0.48222384110592
C           -9.24398387108694        3.44367728410300        1.08784459581067
C           -9.05362441017714        3.82033086024288        2.40774338717285
C           -7.97221414151503        3.32225678824540        3.11590507657010
C           -7.08601826637720        2.45244634147515        2.50534002561759
C           -4.59242730532962        0.32542774761704        1.41776948298039
C           -4.64382402338330       -0.86428338194453        2.13857715222437
C           -3.53860933614405       -1.32819884972038        2.82850032729517
C           -2.35664377201472       -0.60705317791833        2.80971597914536
C           -2.29059905972616        0.58308150471127        2.10461561390238
C           -3.39859323231090        1.04129415628795        1.41536919447071
C           -6.84015497590107       -0.68080936602131       -0.37186434813530
C           -8.11239772446964       -1.18286218077033       -0.14366350093127
C           -8.54353809437911       -2.33721890548762       -0.77455001437909
C           -7.70230656702302       -2.99736982653338       -1.65867170383537
C           -6.43200177315860       -2.51029406916726       -1.90803660115157
C           -5.99786714192105       -1.35929664888871       -1.25923939179616
C           -3.60041972467447       -2.81836766780041       -0.68935175637384
C           -2.45101507709417       -3.46104099249393       -0.31915049451108
C            1.18779661572063       -2.83257624832404        0.41062220830001
C            2.44918859727564       -3.46167853347485        0.32744330781109
C            3.59893341456325       -2.81883418807781        0.69628590627341
C            3.55899605932069       -1.51364970990043        1.22635145482563
N            4.71531030001427       -0.82598760746136        1.52360778110462
C            5.99711421469217       -1.36007209964901        1.26403767940251
C            6.43062224003919       -2.50903179350588        1.91682099776081
C            7.70096843310500       -2.99719965840889        1.66976727710398
C            8.54258945106837       -2.34051551637490        0.78345711241515
C            8.11200644169746       -1.18819868347579        0.14846916626602
C            6.84002226861902       -0.68469901252845        0.37488356310197
Si           6.05971497941815        0.87520159986927       -0.35218154359449
C            4.59408164281784        0.31616072204088       -1.41841088987750
C            3.39889052800825        1.02970647026342       -1.41721170658588
C            2.29182476214726        0.56818267881545       -2.10575362538584
C            2.36018239487397       -0.62296230295289       -2.80891599178026
C            3.54357766159326       -1.34179003969665       -2.82657573823290
C            4.64782731789218       -0.87460102817099       -2.13733833541893
C            7.26494407992931        2.05719543908305       -1.18601794814879
C            7.08737877750468        2.44060087475383       -2.51124550762468
C            7.97344659624523        3.30895130041058       -3.12406743442330
C            9.05444901382335        3.80948677771793       -2.41702104206826
C            9.24456406081286        3.43670220313357       -1.09599144549948
C            8.35629376197927        2.56800292909217       -0.48811040023393
C            5.32138408524738        1.50471413316964        1.27049390227582
C            5.33939497113323        2.79510386666253        1.77767245148793
C            4.74159610789779        3.08923302513444        2.99145053421782
C            4.12145008860647        2.08328898404777        3.71868920322694
C            4.09789179745728        0.78741416635718        3.23619801963627
C            4.69439404848236        0.49827483006112        2.01307341030088
C            2.29763465349356       -0.89843638228139        1.35965180484940
C            1.15057782211900       -1.53950456819761        0.97571261246187
H           -0.19727832677896       -1.05762122154500       -1.11629594923095
H           -2.23335324975793        0.10154466245105       -1.75238214009047
H           -3.63623052510591       -0.01176426894928       -3.80790132969744
H           -3.66411341104553        2.29616945938330       -4.67774167639935
H           -4.75781751059977        4.09324134764374       -3.38538882735485
H           -5.81771174017555        3.57628843019572       -1.21441247063066
H           -8.50703743939322        2.28153827099235       -0.54712208753941
H          -10.08645839954072        3.83024627940718        0.53193628786100
H           -9.74629667352172        4.49988951365101        2.88328393120555
H           -7.82019515107323        3.61356106708840        4.14562960284449
H           -6.24346518465884        2.06632168800943        3.06074192910337
H           -5.55997174452996       -1.43789920321076        2.15070561433930
H           -3.59317959133554       -2.25961697525438        3.37430652099286
H           -1.48957362492856       -0.97584005063993        3.33922858607352
H           -1.37047233531927        1.15027797459528        2.08647066452142
H           -3.33685124785004        1.96562846941148        0.85854846134158
H           -8.76438264265743       -0.66352179740008        0.54341503663759
H           -9.53414095606073       -2.72268876459459       -0.58406980431108
H           -8.03959188054855       -3.89062271920608       -2.16355656832738
H           -5.78181401092206       -3.00790509694238       -2.61349749559548
H           -4.54931892948151       -3.31079690737550       -0.54586331258005
H           -2.48721058870185       -4.46180802846019        0.08700912446197
H            2.48486043718316       -4.46316275193031       -0.07699870341445
H            4.54767379371879       -3.31187257487396        0.55369509287809
H            5.77998428280095       -3.00404706916452        2.62369036362208
H            8.03796374772586       -3.88859829428800        2.17811481981347
H            9.53310871125382       -2.72699193970587        0.59453207111583
H            8.76431616055317       -0.67154644477726       -0.54032963392737
H            3.33544745518243        1.95507561088828       -0.86230606877200
H            1.37070725377099        1.13380916018058       -2.08889005242955
H            1.49377234450464       -0.99438644757898       -3.33766527346456
H            3.59988292698071       -2.27416800634499       -3.37056215086810
H            5.56498820942947       -1.44662724729780       -2.14818824934708
H            6.24508303303893        2.05262090902522       -3.06574370432498
H            7.82158361563060        3.59729462047430       -4.15464712060422
H            9.74695541455897        4.48801255973505       -2.89426804099718
H           10.08676720718813        3.82513567895380       -0.54097247617410
H            8.50759512383907        2.27897649526479        0.54208955431574
H            5.81992058733155        3.57524815402598        1.20565656632797
H            4.75816759189843        4.09898560244104        3.37401647646480
H            3.66194554325001        2.30631265082852        4.67039166188996
H            3.63451426118048       -0.00433787901821        3.80751215107554
H            2.23313664556364        0.10380828666467        1.75372266240137
H            0.19657002224095       -1.05582830058040        1.12061761467973

          :  Hamiltonian                  GFN2-xTB          :
         :: gradient norm              0.000135436478 Eh/a0 ::
         :: HOMO-LUMO gap              0.427016152402 eV    ::
         :: SCC energy              -169.426500771818 Eh    ::
         :: -> dispersion             -0.175836036490 Eh    ::
         :: -> Gsolv                  -0.078568227910 Eh    ::
         :: repulsion energy           3.090828716236 Eh    ::

    * Orbital Energies and Occupations

         #    Occupation            Energy/Eh            Energy/eV
      -------------------------------------------------------------
         1        2.0000           -0.7664945             -20.8574
       ...           ...                  ...                  ...
       145        2.0000           -0.4036546             -10.9840
       146        2.0000           -0.4014167             -10.9231
       147        2.0000           -0.4000945             -10.8871
       148        2.0000           -0.3915265             -10.6540
       149        2.0000           -0.3914801             -10.6527
       150        2.0000           -0.3901424             -10.6163
       151        2.0000           -0.3901022             -10.6152
       152        2.0000           -0.3894592             -10.5977
       153        2.0000           -0.3894411             -10.5972
       154        1.9947           -0.3638328              -9.9004
       155        1.6827           -0.3595953              -9.7851
       156        1.3226           -0.3581625              -9.7461
       157        0.9997           -0.2674098              -7.2766 (HOMO)
       158        0.0002           -0.2517171              -6.8496 (LUMO)
       159        0.0000           -0.2497093              -6.7949
       160                         -0.2424259              -6.5967
       161                         -0.2424199              -6.5966
       162                         -0.2365384              -6.4365
       163                         -0.2343545              -6.3771
       164                         -0.2338271              -6.3628
       165                         -0.2329770              -6.3396
       166                         -0.2329562              -6.3391
       167                         -0.2311193              -6.2891
       168                         -0.2281358              -6.2079
       ...                                ...                  ...
       318                          0.6797358              18.4966
      -------------------------------------------------------------
                  HL-Gap            0.0156927 Eh            0.4270 eV

     #   Z          covCN         q      C6AA      α(0)
     1   8 O        0.857    -0.542    24.737     6.668
     2   6 C        2.831     0.160    24.543     8.118
     3   6 C        2.967    -0.017    28.422     8.745
     4   6 C        2.916    -0.042    29.054     8.839
     5   6 C        2.917    -0.050    29.234     8.866
     6   6 C        2.914     0.056    26.740     8.479
     7   7 N        2.758    -0.055    22.309     7.015
     8   6 C        2.976     0.051    26.842     8.498
     9   6 C        2.918    -0.039    28.959     8.825
    10   6 C        2.920    -0.029    28.724     8.789
    11   6 C        2.917    -0.033    28.814     8.802
    12   6 C        2.925    -0.028    28.695     8.785
    13   6 C        2.868    -0.111    30.793     9.096
    14  14 Si       3.669     0.502    97.329    18.906
    15   6 C        2.865    -0.091    30.286     9.021
    16   6 C        2.938    -0.032    28.800     8.802
    17   6 C        2.917    -0.030    28.741     8.791
    18   6 C        2.920    -0.028    28.694     8.784
    19   6 C        2.917    -0.030    28.741     8.791
    20   6 C        2.938    -0.033    28.822     8.805
    21   6 C        2.863    -0.093    30.323     9.026
    22   6 C        2.937    -0.031    28.780     8.798
    23   6 C        2.918    -0.029    28.731     8.790
    24   6 C        2.921    -0.028    28.690     8.784
    25   6 C        2.917    -0.030    28.742     8.792
    26   6 C        2.937    -0.032    28.803     8.802
    27   6 C        2.868    -0.111    30.802     9.098
    28   6 C        2.926    -0.028    28.702     8.786
    29   6 C        2.917    -0.033    28.815     8.803
    30   6 C        2.920    -0.029    28.731     8.790
    31   6 C        2.918    -0.039    28.959     8.825
    32   6 C        2.975     0.052    26.834     8.497
    33   6 C        2.916    -0.050    29.253     8.869
    34   6 C        2.920    -0.030    28.747     8.792
    35   6 C        2.967    -0.017    28.421     8.745
    36   6 C        2.920    -0.030    28.747     8.792
    37   6 C        2.916    -0.050    29.252     8.869
    38   6 C        2.914     0.056    26.739     8.479
    39   7 N        2.758    -0.055    22.308     7.015
    40   6 C        2.975     0.052    26.834     8.497
    41   6 C        2.918    -0.039    28.959     8.825
    42   6 C        2.920    -0.029    28.731     8.790
    43   6 C        2.917    -0.033    28.815     8.803
    44   6 C        2.926    -0.028    28.702     8.786
    45   6 C        2.868    -0.111    30.802     9.098
    46  14 Si       3.669     0.502    97.328    18.906
    47   6 C        2.863    -0.093    30.323     9.026
    48   6 C        2.937    -0.032    28.803     8.802
    49   6 C        2.917    -0.030    28.742     8.791
    50   6 C        2.921    -0.028    28.690     8.784
    51   6 C        2.918    -0.029    28.731     8.790
    52   6 C        2.937    -0.031    28.780     8.798
    53   6 C        2.865    -0.091    30.286     9.021
    54   6 C        2.938    -0.033    28.822     8.805
    55   6 C        2.917    -0.030    28.740     8.791
    56   6 C        2.920    -0.028    28.694     8.784
    57   6 C        2.917    -0.030    28.741     8.791
    58   6 C        2.938    -0.032    28.800     8.802
    59   6 C        2.868    -0.111    30.793     9.096
    60   6 C        2.925    -0.028    28.695     8.785
    61   6 C        2.917    -0.033    28.814     8.802
    62   6 C        2.920    -0.029    28.724     8.789
    63   6 C        2.918    -0.039    28.959     8.825
    64   6 C        2.977     0.051    26.842     8.498
    65   6 C        2.917    -0.050    29.234     8.866
    66   6 C        2.916    -0.042    29.053     8.839
    67   1 H        0.926     0.035     2.517     2.481
    68   1 H        0.926     0.038     2.471     2.458
    69   1 H        0.926     0.038     2.478     2.462
    70   1 H        0.926     0.041     2.437     2.441
    71   1 H        0.926     0.041     2.439     2.442
    72   1 H        0.926     0.039     2.460     2.453
    73   1 H        0.926     0.031     2.574     2.509
    74   1 H        0.926     0.034     2.532     2.488
    75   1 H        0.926     0.033     2.540     2.492
    76   1 H        0.926     0.032     2.564     2.504
    77   1 H        0.926     0.023     2.683     2.562
    78   1 H        0.926     0.024     2.679     2.559
    79   1 H        0.926     0.026     2.645     2.543
    80   1 H        0.926     0.027     2.636     2.539
    81   1 H        0.926     0.030     2.584     2.514
    82   1 H        0.926     0.027     2.626     2.534
    83   1 H        0.926     0.038     2.473     2.459
    84   1 H        0.926     0.040     2.452     2.449
    85   1 H        0.926     0.040     2.453     2.449
    86   1 H        0.926     0.038     2.479     2.462
    87   1 H        0.926     0.035     2.511     2.478
    88   1 H        0.926     0.030     2.586     2.515
    89   1 H        0.926     0.030     2.586     2.515
    90   1 H        0.926     0.035     2.511     2.478
    91   1 H        0.926     0.038     2.480     2.462
    92   1 H        0.926     0.040     2.453     2.449
    93   1 H        0.926     0.040     2.451     2.448
    94   1 H        0.926     0.038     2.473     2.459
    95   1 H        0.926     0.027     2.627     2.534
    96   1 H        0.926     0.030     2.585     2.514
    97   1 H        0.926     0.027     2.636     2.539
    98   1 H        0.926     0.026     2.645     2.543
    99   1 H        0.926     0.024     2.678     2.559
   100   1 H        0.926     0.023     2.683     2.562
   101   1 H        0.926     0.032     2.564     2.504
   102   1 H        0.926     0.033     2.540     2.492
   103   1 H        0.926     0.034     2.532     2.488
   104   1 H        0.926     0.031     2.574     2.509
   105   1 H        0.926     0.039     2.460     2.453
   106   1 H        0.926     0.041     2.439     2.442
   107   1 H        0.926     0.041     2.437     2.441
   108   1 H        0.926     0.038     2.478     2.462
   109   1 H        0.926     0.038     2.470     2.458
   110   1 H        0.926     0.035     2.517     2.481

molecular dipole:
                 x           y           z       tot (Debye)
 q only:        0.004       4.761      -0.005
   full:        0.003       4.320      -0.005      10.980

 projected vibrational frequencies (cm⁻¹)
eigval :       -0.00    -0.00    -0.00    -0.00     0.00     0.00
eigval :        8.29     9.51    11.23    13.33    17.79    19.93
eigval :       21.98    23.46    23.96    29.21    30.34    35.58
eigval :       37.35    40.44    42.53    45.80    46.56    50.99
eigval :       57.57    59.10    67.62    70.12    78.41    86.32
eigval :      116.60   126.38   129.36   136.94   139.05   160.91
eigval :      161.54   162.34   165.72   171.30   172.08   179.94
eigval :      191.87   200.22   200.57   201.91   208.18   212.84
eigval :      217.56   230.48   249.01   252.87   273.69   277.51
eigval :      290.51   306.23   315.56   316.78   323.31   351.76
eigval :      353.42   359.60   359.71   360.51   360.64   367.63
eigval :      372.85   384.91   404.56   404.82   409.22   411.28
eigval :      411.56   415.76   418.05   422.83   431.41   433.49
eigval :      450.05   450.56   457.55   466.60   472.66   473.51
eigval :      493.04   493.09   504.66   505.05   523.66   528.54
eigval :      529.38   547.41   583.34   586.76   589.01   589.07
eigval :      589.14   589.16   592.72   608.51   610.18   634.03
eigval :      653.60   653.77   661.32   661.78   662.01   662.44
eigval :      668.01   669.18   669.31   669.39   685.12   696.04
eigval :      697.38   697.48   698.17   705.64   712.88   724.59
eigval :      727.76   734.98   735.56   736.38   736.70   751.33
eigval :      771.88   772.05   775.38   777.47   791.75   804.35
eigval :      825.60   834.50   876.44   879.62   879.91   881.23
eigval :      881.63   885.48   887.17   887.46   887.76   897.45
eigval :      904.69   905.13   905.15   905.19   906.87   907.00
eigval :      907.73   908.74   909.36   912.31   917.87   919.23
eigval :      921.03   922.36   926.38   927.50   930.37   930.49
eigval :      930.52   931.05   931.29   931.61   935.76   936.07
eigval :      936.50   936.82   945.28   974.94   974.99   977.66
eigval :      977.68   992.92  1000.24  1058.97  1059.16  1068.23
eigval :     1068.27  1083.60  1083.63  1085.26  1085.31  1086.15
eigval :     1086.70  1087.54  1087.59  1119.76  1119.92  1121.32
eigval :     1121.36  1144.20  1145.30  1146.03  1148.29  1154.26
eigval :     1155.13  1158.39  1158.59  1158.85  1163.01  1166.20
eigval :     1169.90  1175.16  1177.55  1179.03  1179.25  1182.38
eigval :     1182.60  1185.09  1185.32  1194.57  1200.60  1204.64
eigval :     1205.08  1207.36  1207.85  1224.37  1237.10  1237.19
eigval :     1241.94  1247.09  1256.03  1258.27  1259.27  1275.07
eigval :     1281.37  1284.88  1284.95  1287.06  1287.12  1308.00
eigval :     1308.77  1310.92  1310.95  1311.63  1311.72  1312.48
eigval :     1312.70  1316.89  1321.72  1332.23  1338.23  1381.26
eigval :     1409.14  1410.31  1416.60  1417.96  1419.16  1419.48
eigval :     1420.42  1420.44  1423.74  1425.86  1426.64  1435.34
eigval :     1436.63  1438.35  1441.52  1452.15  1458.38  1460.67
eigval :     1461.80  1461.86  1463.41  1463.43  1523.24  1547.77
eigval :     1547.81  1550.47  1551.85  1564.59  1564.62  1567.74
eigval :     1568.56  1575.27  1575.29  1576.43  1576.47  1578.42
eigval :     1591.03  1591.04  1593.49  1593.56  3061.03  3061.06
eigval :     3061.55  3061.65  3063.68  3063.71  3064.77  3064.78
eigval :     3068.42  3068.49  3071.54  3071.56  3071.73  3071.75
eigval :     3072.00  3072.02  3072.59  3072.84  3074.25  3074.27
eigval :     3074.84  3074.89  3075.57  3075.58  3078.92  3079.38
eigval :     3081.08  3081.12  3081.30  3081.33  3082.23  3082.91
eigval :     3084.78  3084.82  3085.14  3087.24  3091.17  3091.25
eigval :     3091.47  3091.78  3098.19  3098.59  3100.10  3101.02

   temp. (K)  partition function   enthalpy   heat capacity  entropy
                                   cal/mol     cal/K/mol   cal/K/mol   J/K/mol
 298.15  VIB  0.433E+30            34216.796    203.513    217.630
         ROT  0.103E+09              888.752      2.981     39.640
         INT  0.444E+38            35105.548    206.494    257.269
         TR   0.251E+29             1481.254      4.968     46.170
         TOT                       36586.8024   211.4624   303.4394  1269.5903

       T/K    H(0)-H(T)+PV         H(T)/Eh          T*S/Eh         G(T)/Eh
   ------------------------------------------------------------------------
    298.15    0.583048E-01    0.896682E+00    0.144174E+00    0.752508E+00
   ------------------------------------------------------------------------

         :::::::::::::::::::::::::::::::::::::::::::::::::::::
         ::                  THERMODYNAMIC                  ::
         :::::::::::::::::::::::::::::::::::::::::::::::::::::
         :: total free energy        -165.583164091598 Eh   ::
         ::.................................................::
         :: total energy             -166.335672056995 Eh   ::
         :: zero point energy           0.838377012776 Eh   ::
         :: G(RRHO) w/o ZPVE           -0.085869047379 Eh   ::
         :: G(RRHO) contrib.            0.752507965397 Eh   ::
         :::::::::::::::::::::::::::::::::::::::::::::::::::::

           -------------------------------------------------
          | TOTAL ENERGY             -166.335672056995 Eh   |
          | TOTAL ENTHALPY           -165.438990263307 Eh   |
          | TOTAL FREE ENERGY        -165.583164091598 Eh   |
          | GRADIENT NORM               0.000134596699 Eh/α |
          | HOMO-LUMO GAP               0.427020974115 eV   |
           -------------------------------------------------

 * finished run on 2025/09/12 at 17:33:37.272
