   * xtb version 6.7.1 (edcfbbe) compiled by 'albert@albert-system' on 2024-07-22

   ID    Z sym.   atoms
    1    8 O      1
    2    6 C      2-6, 8-13, 15-38, 40-45, 47-66
    3    7 N      7, 39
    4   14 Si     14, 46
    5    1 H      67-110

          program call               : xtb data2507/toluene/BDAPM/BDAPM.xyz --gfn 2 --gbsa toluene --ohess vtight --parallel 40 --molden --ceasefiles --namespace data2507/toluene/BDAPM/BDAPM_toluene_S0_preOpt
      * Solvation model:               GBSA
        Solvent                        toluene
        Solvent mass                       9.2140E+01 g/mol
          :  Hamiltonian                  GFN2-xTB          :
 * total energy  :  -166.3711619 Eh     change       -0.1418300E-08 Eh
 * total energy  :  -166.3986926 Eh     change       -0.2753074E-01 Eh
 * total energy  :  -166.4088209 Eh     change       -0.1012823E-01 Eh
 * total energy  :  -166.4123268 Eh     change       -0.3505925E-02 Eh
 * total energy  :  -166.4140585 Eh     change       -0.1731720E-02 Eh
 * total energy  :  -166.4147347 Eh     change       -0.6762196E-03 Eh
 * total energy  :  -166.4149869 Eh     change       -0.2522006E-03 Eh
 * total energy  :  -166.4151498 Eh     change       -0.1628512E-03 Eh
 * total energy  :  -166.4152963 Eh     change       -0.1464967E-03 Eh
 * total energy  :  -166.4154306 Eh     change       -0.1343641E-03 Eh
 * total energy  :  -166.4158485 Eh     change       -0.1528672E-05 Eh
 * total energy  :  -166.4158497 Eh     change       -0.1167232E-05 Eh
 * total energy  :  -166.4158506 Eh     change       -0.9121229E-06 Eh
 * total energy  :  -166.4158513 Eh     change       -0.6985079E-06 Eh
 * total energy  :  -166.4158516 Eh     change       -0.2548963E-06 Eh
 * total energy  :  -166.4158519 Eh     change       -0.3290055E-06 Eh
 * total energy  :  -166.4158518 Eh     change        0.9273359E-07 Eh
 * total energy  :  -166.4158521 Eh     change       -0.2611159E-06 Eh
 * total energy  :  -166.4158521 Eh     change       -0.4503136E-08 Eh
   *** GEOMETRY OPTIMIZATION CONVERGED AFTER 72 ITERATIONS ***

 final structure:
================
110
 xtb: 6.7.1 (edcfbbe)
O            0.01778126087536       -4.82416863779270        0.10890108574716
C            0.00575091960573       -3.60398247406339        0.07799803886848
C           -1.26847334336073       -2.84472079274171        0.07275104791740
C           -1.39147923453199       -1.60876355955413        0.70771221511048
C           -2.60619617733052       -0.95078728041128        0.71563546129616
C           -3.71016293459023       -1.51283954685864        0.08087821192819
N           -4.96408317721583       -0.82712891404473        0.07800174441328
C           -5.83518520573451       -1.15348644005370        1.11547335658536
C           -5.39675979995426       -2.06139694618929        2.09250738139901
C           -6.20493787816876       -2.43087819504442        3.14642716009143
C           -7.48296871805919       -1.90883559710769        3.26844228927217
C           -7.92057404033301       -1.01348658670382        2.31501100224163
C           -7.12622708489497       -0.62177568746670        1.24218972921976
Si          -7.80688474374104        0.60761044257252        0.00236377247431
C           -8.29510702175558        2.23937332710203        0.83640785791901
C           -7.75129482339956        2.60819391108084        2.06371180003596
C           -8.09453780369312        3.80480595798478        2.66739123955117
C           -8.99060227598580        4.66105537368073        2.04873642204281
C           -9.53998143506719        4.31171441767807        0.82600341248668
C           -9.19354104836737        3.11250411540292        0.22948187117007
C           -9.30276777468066       -0.08965822261212       -0.93398275610827
C          -10.58864805698631        0.01470573970837       -0.41054463371490
C          -11.67976517881599       -0.50494919197352       -1.08375480896433
C          -11.50327596942871       -1.14328549989566       -2.30048778205892
C          -10.23129110719255       -1.25595336504102       -2.83716688071751
C           -9.14467589585929       -0.73532994357376       -2.15718847708833
C           -6.33555695732104        0.81864013725544       -1.13912638808577
C           -6.42512480887885        1.71151253920566       -2.20227194933693
C           -5.39618261761828        1.89148614557553       -3.10285189905232
C           -4.23768499558164        1.14883575248294       -2.93823546189216
C           -4.11987154949209        0.26105183202541       -1.89027736281582
C           -5.15774651207537        0.07891586257996       -0.96254414740889
C           -3.59555980735122       -2.74997248311509       -0.54567700379681
C           -2.38569139839633       -3.41469063375782       -0.53746045693295
C            1.26450146994640       -2.82038658299426        0.04168111772506
C            1.35837955127388       -1.60944906717190       -0.64492227311477
C            2.56054069741861       -0.93086896841198       -0.69297868720032
C            3.68157199567870       -1.44686984237161       -0.04819169245060
N            4.92658318226775       -0.74642737247013       -0.08895370302062
C            5.13583243409142        0.18195722773689        0.92874250926654
C            4.09131150389596        0.42519359916586        1.83450021158591
C            4.22393913089666        1.33861832554261        2.85841072596735
C            5.40388523478765        2.04774173087834        3.01847773593918
C            6.43861227340616        1.80876733421571        2.13848873362372
C            6.33418084593024        0.88964562471528        1.09948219066455
Si           7.80905295914737        0.59678855398006       -0.01956009458313
C            9.23288041617071       -0.24851314125052        0.90830058089229
C            9.43389863135092       -1.62309987135131        0.81794867038124
C           10.46796674736096       -2.24136602498695        1.49849096077559
C           11.32220274833760       -1.49188234621618        2.29035272852948
C           11.13596369892278       -0.12297356281492        2.39447099627524
C           10.10087766296498        0.48824424981683        1.70999693769861
C            8.43074210672136        2.21060930404298       -0.79616681097608
C            9.75829924381147        2.35520603385383       -1.18842508034781
C           10.20805568319321        3.52570578112460       -1.77323056137421
C            9.33176097169833        4.57868594278801       -1.97804464592129
C            8.00642597508683        4.45210335327693       -1.59524077857509
C            7.56387606843287        3.27858304364232       -1.01146103704940
C            7.06393141971994       -0.55274713138101       -1.29792976161186
C            7.82185836866080       -0.92039152822501       -2.40496025760763
C            7.35047778874261       -1.79315037764784       -3.36340473400894
C            6.07715881354217       -2.31823328600491       -3.20918404007307
C            5.30107093682461       -1.96414859957713       -2.12613993104431
C            5.76954108165028       -1.07031303860025       -1.15025155108346
C            3.59540779228068       -2.65748577553527        0.63144243468791
C            2.39760294793462       -3.34337408903080        0.66419794070436
H           -0.54356195580969       -1.17637115176430        1.21662393241820
H           -2.71076178474050        0.00249476388615        1.21175496066371
H           -4.40825387570365       -2.48971165727318        2.03485508509347
H           -5.83013872065860       -3.13237592081598        3.87818750916947
H           -8.11951351906273       -2.19644387179566        4.09188878277037
H           -8.91195749341336       -0.59141511101142        2.39368990024592
H           -7.05424120287711        1.94224640521047        2.55281678485289
H           -7.66413749214852        4.07160373859596        3.62260884625881
H           -9.26118766551341        5.59628613633670        2.51818901270562
H          -10.24108555999119        4.97522899060241        0.33891817077707
H           -9.63272877492770        2.84380092025513       -0.72115641279541
H          -10.73649295448160        0.51815075883198        0.53468776847021
H          -12.67053043983212       -0.41165567892740       -0.66101498940250
H          -12.35413332466221       -1.54899207934160       -2.82932878554126
H          -10.08772934083676       -1.75055379190461       -3.78781152584813
H           -8.15493933466816       -0.82237492349097       -2.58328861710745
H           -7.34057098376915        2.27367592984916       -2.31702408093575
H           -5.49167555035366        2.59032229478909       -3.92048803674179
H           -3.41637107743069        1.25975185021280       -3.63181888342377
H           -3.20349306096016       -0.30046696720132       -1.79845872280265
H           -4.45925166609420       -3.18291073481933       -1.02758826101540
H           -2.28299084814153       -4.37988350190393       -1.01102984886459
H            0.49779005357627       -1.21351318578802       -1.16209120850082
H            2.64292542775858        0.00198873232819       -1.23050830775232
H            3.15737019133485       -0.10670513352496        1.74285219129061
H            3.39684751836197        1.49766450362316        3.53551475069201
H            5.51085605367038        2.76684972779361        3.81693813329123
H            7.36823609694195        2.34823548155643        2.24754690902629
H            8.77371042298935       -2.21291148629149        0.19730807412255
H           10.60935987063409       -3.30973225074411        1.41153698744091
H           12.13134581889087       -1.97181955304493        2.82252931273430
H           11.80025051858522        0.46756346014738        3.01014018029899
H            9.96731121745665        1.55776949594886        1.79137352035092
H           10.44968329367665        1.53955561680052       -1.02777232829468
H           11.24371428970099        3.61871496143386       -2.06971899592390
H            9.68081315332758        5.49458436309261       -2.43365089903959
H            7.31842325223854        5.27126017008235       -1.75182684429191
H            6.52974302984466        3.18696088206016       -0.71013196364250
H            8.81459463411978       -0.50470954960318       -2.50129469447369
H            7.95967016924774       -2.06538691314121       -4.21240193301209
H            5.68046870064340       -3.00975615792719       -3.93888986743071
H            4.31499851743449       -2.39403571631371       -2.04421344504731
H            4.47131784770352       -3.05384973098758        1.12262894647330
H            2.31723336118640       -4.28961717088467        1.17852596627537

          :  Hamiltonian                  GFN2-xTB          :
         :: gradient norm              0.000141125469 Eh/a0 ::
         :: HOMO-LUMO gap              1.420401249475 eV    ::
         :: SCC energy              -169.517610946572 Eh    ::
         :: -> dispersion             -0.161708445782 Eh    ::
         :: -> Gsolv                  -0.071925795186 Eh    ::
         :: repulsion energy           3.101758874338 Eh    ::

    * Orbital Energies and Occupations

         #    Occupation            Energy/Eh            Energy/eV
      -------------------------------------------------------------
         1        2.0000           -0.7537991             -20.5119
       ...           ...                  ...                  ...
       144        2.0000           -0.4010172             -10.9122
       145        2.0000           -0.4002207             -10.8906
       146        2.0000           -0.4001789             -10.8894
       147        2.0000           -0.3983135             -10.8387
       148        2.0000           -0.3982102             -10.8359
       149        2.0000           -0.3860564             -10.5051
       150        2.0000           -0.3860062             -10.5038
       151        2.0000           -0.3832531             -10.4288
       152        2.0000           -0.3831929             -10.4272
       153        2.0000           -0.3774270             -10.2703
       154        2.0000           -0.3773360             -10.2678
       155        2.0000           -0.3518069              -9.5732
       156        2.0000           -0.3517462              -9.5715 (HOMO)
       157                         -0.2995482              -8.1511 (LUMO)
       158                         -0.2502339              -6.8092
       159                         -0.2471344              -6.7249
       160                         -0.2442734              -6.6470
       161                         -0.2418692              -6.5816
       162                         -0.2417362              -6.5780
       163                         -0.2376084              -6.4657
       164                         -0.2372435              -6.4557
       165                         -0.2304540              -6.2710
       166                         -0.2302960              -6.2667
       167                         -0.2249327              -6.1207
       ...                                ...                  ...
       318                          0.6788627              18.4728
      -------------------------------------------------------------
                  HL-Gap            0.0521980 Eh            1.4204 eV

     #   Z          covCN         q      C6AA      α(0)
     1   8 O        0.858    -0.409    21.866     6.269
     2   6 C        2.829     0.230    23.187     7.890
     3   6 C        2.972    -0.013    28.339     8.732
     4   6 C        2.920    -0.025    28.616     8.772
     5   6 C        2.919    -0.036    28.890     8.814
     6   6 C        2.939     0.080    26.207     8.396
     7   7 N        2.750    -0.076    22.718     7.079
     8   6 C        2.932     0.059    26.688     8.472
     9   6 C        2.925    -0.058    29.436     8.897
    10   6 C        2.920    -0.030    28.759     8.794
    11   6 C        2.915    -0.043    29.079     8.843
    12   6 C        2.946    -0.033    28.823     8.805
    13   6 C        2.868    -0.121    31.076     9.138
    14  14 Si       3.635     0.487    97.984    18.987
    15   6 C        2.862    -0.092    30.303     9.023
    16   6 C        2.936    -0.032    28.796     8.801
    17   6 C        2.917    -0.031    28.772     8.796
    18   6 C        2.920    -0.030    28.744     8.792
    19   6 C        2.917    -0.031    28.783     8.798
    20   6 C        2.937    -0.031    28.784     8.799
    21   6 C        2.862    -0.092    30.299     9.023
    22   6 C        2.936    -0.031    28.775     8.797
    23   6 C        2.917    -0.031    28.781     8.797
    24   6 C        2.920    -0.030    28.743     8.792
    25   6 C        2.917    -0.031    28.772     8.796
    26   6 C        2.936    -0.032    28.797     8.801
    27   6 C        2.868    -0.121    31.074     9.138
    28   6 C        2.946    -0.033    28.821     8.805
    29   6 C        2.915    -0.043    29.080     8.843
    30   6 C        2.920    -0.031    28.763     8.795
    31   6 C        2.925    -0.058    29.443     8.898
    32   6 C        2.932     0.058    26.690     8.473
    33   6 C        2.919    -0.035    28.874     8.812
    34   6 C        2.924    -0.015    28.397     8.739
    35   6 C        2.972    -0.013    28.340     8.732
    36   6 C        2.920    -0.025    28.621     8.773
    37   6 C        2.919    -0.036    28.886     8.814
    38   6 C        2.939     0.080    26.205     8.396
    39   7 N        2.750    -0.077    22.728     7.081
    40   6 C        2.932     0.058    26.690     8.473
    41   6 C        2.925    -0.058    29.440     8.898
    42   6 C        2.920    -0.031    28.762     8.795
    43   6 C        2.915    -0.043    29.080     8.843
    44   6 C        2.945    -0.033    28.813     8.804
    45   6 C        2.868    -0.121    31.066     9.136
    46  14 Si       3.635     0.487    97.984    18.987
    47   6 C        2.862    -0.092    30.297     9.022
    48   6 C        2.936    -0.032    28.798     8.801
    49   6 C        2.917    -0.031    28.772     8.796
    50   6 C        2.920    -0.030    28.743     8.792
    51   6 C        2.917    -0.031    28.780     8.797
    52   6 C        2.936    -0.031    28.771     8.797
    53   6 C        2.862    -0.092    30.305     9.023
    54   6 C        2.936    -0.032    28.796     8.801
    55   6 C        2.917    -0.031    28.784     8.798
    56   6 C        2.920    -0.030    28.744     8.792
    57   6 C        2.917    -0.031    28.771     8.796
    58   6 C        2.937    -0.032    28.793     8.800
    59   6 C        2.868    -0.121    31.082     9.139
    60   6 C        2.946    -0.033    28.828     8.806
    61   6 C        2.915    -0.043    29.080     8.843
    62   6 C        2.920    -0.030    28.761     8.795
    63   6 C        2.924    -0.058    29.438     8.898
    64   6 C        2.932     0.058    26.689     8.472
    65   6 C        2.919    -0.035    28.875     8.812
    66   6 C        2.924    -0.015    28.391     8.738
    67   1 H        0.926     0.055     2.255     2.348
    68   1 H        0.926     0.057     2.231     2.336
    69   1 H        0.926     0.025     2.664     2.552
    70   1 H        0.926     0.028     2.622     2.532
    71   1 H        0.926     0.025     2.657     2.549
    72   1 H        0.926     0.020     2.736     2.587
    73   1 H        0.926     0.023     2.692     2.566
    74   1 H        0.926     0.028     2.614     2.528
    75   1 H        0.926     0.029     2.606     2.524
    76   1 H        0.925     0.027     2.625     2.534
    77   1 H        0.926     0.019     2.742     2.590
    78   1 H        0.926     0.020     2.738     2.587
    79   1 H        0.925     0.027     2.622     2.532
    80   1 H        0.926     0.029     2.606     2.524
    81   1 H        0.926     0.028     2.616     2.529
    82   1 H        0.926     0.022     2.703     2.571
    83   1 H        0.926     0.020     2.737     2.587
    84   1 H        0.926     0.025     2.655     2.548
    85   1 H        0.926     0.029     2.607     2.525
    86   1 H        0.926     0.025     2.657     2.549
    87   1 H        0.926     0.055     2.260     2.351
    88   1 H        0.926     0.056     2.241     2.341
    89   1 H        0.926     0.055     2.254     2.348
    90   1 H        0.926     0.057     2.228     2.334
    91   1 H        0.926     0.025     2.654     2.548
    92   1 H        0.926     0.029     2.605     2.524
    93   1 H        0.926     0.025     2.652     2.547
    94   1 H        0.926     0.020     2.741     2.589
    95   1 H        0.926     0.022     2.708     2.573
    96   1 H        0.926     0.028     2.618     2.530
    97   1 H        0.926     0.029     2.605     2.524
    98   1 H        0.925     0.028     2.619     2.531
    99   1 H        0.926     0.020     2.730     2.584
   100   1 H        0.925     0.019     2.743     2.590
   101   1 H        0.925     0.027     2.628     2.535
   102   1 H        0.926     0.029     2.606     2.524
   103   1 H        0.926     0.028     2.610     2.526
   104   1 H        0.926     0.023     2.682     2.561
   105   1 H        0.926     0.020     2.737     2.587
   106   1 H        0.926     0.025     2.660     2.551
   107   1 H        0.926     0.027     2.624     2.533
   108   1 H        0.926     0.024     2.666     2.553
   109   1 H        0.926     0.055     2.262     2.352
   110   1 H        0.926     0.057     2.237     2.339

molecular dipole:
                 x           y           z       tot (Debye)
 q only:       -0.012       1.077      -0.002
   full:       -0.009       1.115      -0.009       2.834

 projected vibrational frequencies (cm⁻¹)
eigval :       -0.00    -0.00     0.00     0.00     0.00     0.00
eigval :        1.16     4.36     6.01     8.11    10.92    22.59
eigval :       24.12    25.12    28.71    29.94    31.63    32.73
eigval :       33.75    38.97    41.02    42.72    47.87    48.95
eigval :       51.15    53.15    56.10    59.78    71.23    99.38
eigval :      102.95   114.09   118.38   133.05   139.51   145.50
eigval :      164.73   165.61   166.76   168.24   182.50   182.61
eigval :      185.94   188.11   202.07   205.59   220.77   221.31
eigval :      226.25   226.66   233.53   245.86   261.39   280.62
eigval :      309.98   313.15   348.27   348.88   358.84   359.74
eigval :      362.38   363.51   364.05   364.96   368.97   377.34
eigval :      386.35   386.56   403.77   407.97   408.98   410.11
eigval :      410.31   414.44   421.99   427.16   432.38   438.81
eigval :      464.40   465.14   468.24   469.73   479.57   479.89
eigval :      498.53   500.99   510.02   510.23   516.40   519.12
eigval :      562.91   588.35   588.95   589.24   589.29   590.01
eigval :      594.50   601.48   610.97   620.72   639.92   647.47
eigval :      659.85   662.64   662.93   663.17   663.26   664.29
eigval :      664.49   664.78   665.33   673.60   690.68   691.77
eigval :      703.52   703.77   709.27   714.27   728.09   734.51
eigval :      735.32   736.30   737.71   741.40   748.75   762.85
eigval :      765.61   768.32   768.51   771.27   821.23   826.84
eigval :      863.22   864.40   864.80   867.14   871.29   875.48
eigval :      882.42   882.47   883.60   885.27   885.68   904.18
eigval :      904.41   905.70   906.56   911.09   911.90   911.95
eigval :      912.61   912.73   913.19   915.03   918.87   922.87
eigval :      923.77   924.34   925.66   927.68   928.26   931.20
eigval :      932.40   932.62   932.78   933.40   934.55   935.26
eigval :      936.51   938.63   952.51   974.90   974.98   976.24
eigval :      976.40  1010.95  1025.87  1081.12  1081.27  1083.85
eigval :     1084.12  1084.89  1084.98  1085.60  1085.64  1109.98
eigval :     1110.19  1113.40  1113.51  1119.01  1119.97  1120.98
eigval :     1121.34  1125.24  1126.42  1144.68  1145.11  1148.92
eigval :     1149.14  1168.96  1171.13  1171.66  1171.96  1172.88
eigval :     1175.10  1179.47  1179.55  1181.24  1182.26  1182.92
eigval :     1193.69  1194.27  1194.75  1196.43  1200.02  1205.22
eigval :     1205.41  1206.61  1208.09  1209.74  1249.20  1255.28
eigval :     1257.44  1259.44  1260.11  1261.00  1265.65  1285.31
eigval :     1285.73  1287.53  1287.95  1289.46  1292.04  1304.35
eigval :     1304.80  1306.24  1308.88  1308.91  1309.00  1310.09
eigval :     1310.20  1325.14  1325.30  1333.39  1333.63  1396.67
eigval :     1398.16  1417.00  1417.74  1418.45  1418.92  1419.65
eigval :     1420.38  1421.78  1422.08  1448.78  1449.13  1462.34
eigval :     1462.63  1463.52  1463.59  1463.90  1464.23  1473.59
eigval :     1474.61  1555.42  1556.39  1556.47  1556.97  1564.57
eigval :     1564.58  1574.51  1574.72  1575.34  1575.64  1581.04
eigval :     1581.23  1587.97  1588.09  1592.08  1592.16  1592.64
eigval :     1592.84  1594.38  1594.39  1658.21  3057.24  3057.54
eigval :     3057.73  3058.25  3058.70  3059.01  3059.22  3059.79
eigval :     3064.91  3065.45  3065.79  3066.11  3066.86  3067.39
eigval :     3067.68  3067.71  3069.20  3069.43  3069.63  3069.96
eigval :     3070.27  3070.29  3070.55  3070.58  3079.81  3080.58
eigval :     3080.71  3081.26  3084.59  3085.00  3085.14  3085.37
eigval :     3086.96  3087.22  3088.14  3089.34  3097.38  3097.71
eigval :     3098.90  3099.84  3100.63  3100.76  3102.12  3103.41

   temp. (K)  partition function   enthalpy   heat capacity  entropy
                                   cal/mol     cal/K/mol   cal/K/mol   J/K/mol
 298.15  VIB  0.387E+32            34048.799    201.135    220.924
         ROT  0.307E+09              888.752      2.981     41.814
         INT  0.119E+41            34937.551    204.116    262.738
         TR   0.251E+29             1481.254      4.968     46.170
         TOT                       36418.8050   209.0845   308.9075  1292.4691

       T/K    H(0)-H(T)+PV         H(T)/Eh          T*S/Eh         G(T)/Eh
   ------------------------------------------------------------------------
    298.15    0.580371E-01    0.900103E+00    0.146772E+00    0.753331E+00
   ------------------------------------------------------------------------

         :::::::::::::::::::::::::::::::::::::::::::::::::::::
         ::                  THERMODYNAMIC                  ::
         :::::::::::::::::::::::::::::::::::::::::::::::::::::
         :: total free energy        -165.662520731501 Eh   ::
         ::.................................................::
         :: total energy             -166.415852073548 Eh   ::
         :: zero point energy           0.842066216463 Eh   ::
         :: G(RRHO) w/o ZPVE           -0.088734874417 Eh   ::
         :: G(RRHO) contrib.            0.753331342046 Eh   ::
         :::::::::::::::::::::::::::::::::::::::::::::::::::::

           -------------------------------------------------
          | TOTAL ENERGY             -166.415852073548 Eh   |
          | TOTAL ENTHALPY           -165.515748797124 Eh   |
          | TOTAL FREE ENERGY        -165.662520731501 Eh   |
          | GRADIENT NORM               0.000141449280 Eh/α |
          | HOMO-LUMO GAP               1.420379791984 eV   |
           -------------------------------------------------

 * finished run on 2025/09/12 at 17:07:52.052
