   * xtb version 6.7.1 (edcfbbe) compiled by 'albert@albert-system' on 2024-07-22

   ID    Z sym.   atoms
    1    8 O      1
    2    6 C      2-12, 14-53
    3    7 N      13
    4    1 H      54-86

          program call               : xtb data2507/gas/SPBP-DPAC/SPBP-DPAC_gas_S0_crest.xyz --gfn 2 --ohess vtight --parallel 40 --molden --ceasefiles --namespace data2507/gas/SPBP-DPAC/SPBP-DPAC_gas_S0_finalOpt
          :  Hamiltonian                  GFN2-xTB          :
 * total energy  :  -133.0685344 Eh     change       -0.6885784E-08 Eh
 * total energy  :  -133.0685361 Eh     change       -0.1653402E-05 Eh
 * total energy  :  -133.0685389 Eh     change       -0.2843999E-05 Eh
 * total energy  :  -133.0685416 Eh     change       -0.2652785E-05 Eh
 * total energy  :  -133.0685432 Eh     change       -0.1565314E-05 Eh
 * total energy  :  -133.0685444 Eh     change       -0.1222475E-05 Eh
 * total energy  :  -133.0685460 Eh     change       -0.1614502E-05 Eh
 * total energy  :  -133.0685483 Eh     change       -0.2298728E-05 Eh
 * total energy  :  -133.0685503 Eh     change       -0.1990272E-05 Eh
 * total energy  :  -133.0685512 Eh     change       -0.9279540E-06 Eh
 * total energy  :  -133.0685510 Eh     change        0.2455213E-06 Eh
 * total energy  :  -133.0685516 Eh     change       -0.6680875E-06 Eh
 * total energy  :  -133.0685519 Eh     change       -0.2397880E-06 Eh
 * total energy  :  -133.0685522 Eh     change       -0.3042458E-06 Eh
 * total energy  :  -133.0685522 Eh     change       -0.1874321E-07 Eh
   *** GEOMETRY OPTIMIZATION CONVERGED AFTER 15 ITERATIONS ***

 final structure:
================
86
 xtb: 6.7.1 (edcfbbe)
O            3.86204500648263        3.76788161049241       -0.74837251480803
C            3.65638359639836        2.65655208709088       -0.28728347839960
C            4.75963909081481        1.70493582253070       -0.01770515163421
C            6.06751980621658        2.18815828938123       -0.01786330913833
C            7.12714802329677        1.35011646181260        0.25852373100000
C            6.88670743272354        0.01164904114070        0.53147173835053
C            5.59438911519980       -0.48012206465156        0.52271916716878
C            4.51868580959584        0.35874834174656        0.25991273343723
C            3.12450403388555       -0.20379188565733        0.17442635171907
C            2.06203648975799        0.84579445048298        0.37911459354439
C            0.79996152925931        0.46306916187579        0.78526489545597
C           -0.22322244527161        1.39521777319174        0.97665321917142
N           -1.45344238226365        0.98333905521022        1.44157486376116
C           -2.60997761271510        1.78994801664420        1.37641793164671
C           -2.72135849039903        2.96929541282825        2.09883477331373
C           -3.88946530091191        3.70766990771273        2.02631514764043
C           -4.94475976184227        3.26311462302451        1.24888081118162
C           -4.84553799193284        2.06974309136899        0.55185248656768
C           -3.68444236992100        1.31878338886446        0.61749164445871
C           -3.44597598438674        0.01071628430141       -0.11985512614814
C           -4.72704033533068       -0.55220732529997       -0.69325897838680
C           -4.89901752662334       -0.76605662782514       -2.05293863665283
C           -6.09152639316186       -1.27847156140160       -2.53718551488710
C           -7.12546414665096       -1.58252078663739       -1.67035146732841
C           -6.96294597186450       -1.37041125279372       -0.31084439455536
C           -5.77384573937624       -0.85912197936015        0.17301210852542
C           -2.38160563781865        0.25858852290376       -1.18955663152864
C           -1.51229824780921       -0.76082108663796       -1.56024640290850
C           -0.50180270565170       -0.52755025518345       -2.47424205054109
C           -0.34376862889893        0.72903146208097       -3.03160233545364
C           -1.22301242639910        1.74136936757323       -2.69200290119135
C           -2.23902067025845        1.50667318841325       -1.78243925482202
C           -2.82101411351278       -0.92063370102266        0.90842366405754
C           -3.16937599398174       -2.24630550104550        1.10399808901170
C           -2.47959767561255       -3.02003665415954        2.02343827305340
C           -1.44328535322856       -2.47284362103673        2.76044001065215
C           -1.08838109041660       -1.14839477251093        2.58001229686779
C           -1.76309226919009       -0.37934975431328        1.64158145214177
C            0.02774422064311        2.73154614377968        0.63462095993352
C            1.27362197942944        3.10779448089776        0.19920305214681
C            2.32147683082607        2.18892909649846        0.09531339393744
C            2.89757712052368       -1.39954947258927        1.06991143415341
C            2.92509504589292       -1.44942852156964        2.44705872534016
C            2.63375455876218       -2.65399501676640        3.07324988208682
C            2.31903865314697       -3.78185050857761        2.33037380239333
C            2.29522907975663       -3.73795678044380        0.94550112732003
C            2.58767612180320       -2.53995050905847        0.31483454654239
C            2.64178186614491       -2.18694562924666       -1.09533208437275
C            2.46540712998758       -2.95382977994993       -2.23547861631698
C            2.60742000592135       -2.34578068610043       -3.47313485359573
C            2.91562958373289       -0.99706823075710       -3.57306412259909
C            3.08857194772764       -0.22107057496324       -2.43443335105924
C            2.95146239757413       -0.82492559705088       -1.20498577435540
H            6.22044074730559        3.23408961841102       -0.23968476564295
H            8.13728182469074        1.73167809190242        0.25953458005723
H            7.71021626835755       -0.65322289018329        0.74742851147166
H            5.41527102382997       -1.52653816973733        0.72429807642825
H            0.59894100974634       -0.58356701104001        0.94747917486317
H           -1.90102419402338        3.29688109702148        2.71942108975662
H           -3.97559689879049        4.62896561712796        2.58240134223923
H           -5.85226204815327        3.84422453441832        1.18559973732642
H           -5.67237640682045        1.73124530324828       -0.05437004413935
H           -4.10022522639194       -0.53152855786436       -2.74072045922474
H           -6.21035764458803       -1.43930148592131       -3.59870822880871
H           -8.05420037965569       -1.98196901299931       -2.05003068020498
H           -7.76529381678804       -1.60341142336465        0.37396384855927
H           -5.65047656589318       -0.69239822051303        1.23414355841411
H           -1.62071550269701       -1.74455115892920       -1.12653985200654
H            0.16903577255418       -1.32837011773899       -2.74499064836573
H            0.45829090916239        0.91395546778681       -3.72967037550622
H           -1.11638941723749        2.72234946947489       -3.13072061653960
H           -2.92000485170562        2.30557164236246       -1.52659410019968
H           -3.96902700451514       -2.68394366256783        0.52507264043079
H           -2.75293500180248       -4.05533796825151        2.16086598314069
H           -0.90901719069170       -3.07551699119641        3.47904908296730
H           -0.28981576906732       -0.70926822241257        3.15877426959819
H           -0.76087774629181        3.46428023726683        0.69235227125627
H            1.47674780163531        4.13553296899474       -0.06291511321474
H            3.16554839490691       -0.56849370280777        3.02459684809706
H            2.65047784270418       -2.71246718381967        4.15176479797275
H            2.09145991871705       -4.70762836961570        2.83866429267282
H            2.05051675752924       -4.61932450996549        0.37161372238183
H            2.22710367000128       -4.00475515133896       -2.16282640718167
H            2.47718393893460       -2.92973374625804       -4.37284675542383
H            3.02484254504548       -0.54618489443394       -4.54838452430001
H            3.33014053041557        0.82915571740198       -2.51144173127184

          :  Hamiltonian                  GFN2-xTB          :
         :: gradient norm              0.000147077469 Eh/a0 ::
         :: HOMO-LUMO gap              2.294873308903 eV    ::
         :: SCC energy              -135.570002372018 Eh    ::
         :: -> dispersion             -0.147519216458 Eh    ::
         :: repulsion energy           2.501450168103 Eh    ::

    * Orbital Energies and Occupations

         #    Occupation            Energy/Eh            Energy/eV
      -------------------------------------------------------------
         1        2.0000           -0.6833363             -18.5945
       ...           ...                  ...                  ...
       112        2.0000           -0.4081593             -11.1066
       113        2.0000           -0.4070045             -11.0752
       114        2.0000           -0.4067369             -11.0679
       115        2.0000           -0.4060325             -11.0487
       116        2.0000           -0.4037027             -10.9853
       117        2.0000           -0.4016772             -10.9302
       118        2.0000           -0.4009992             -10.9117
       119        2.0000           -0.3974149             -10.8142
       120        2.0000           -0.3955505             -10.7635
       121        2.0000           -0.3940645             -10.7230
       122        2.0000           -0.3837519             -10.4424
       123        2.0000           -0.3720911             -10.1251
       124        2.0000           -0.3597080              -9.7882 (HOMO)
       125                         -0.2753732              -7.4933 (LUMO)
       126                         -0.2566230              -6.9831
       127                         -0.2384379              -6.4882
       128                         -0.2360644              -6.4236
       129                         -0.2326363              -6.3304
       130                         -0.2302076              -6.2643
       131                         -0.2294478              -6.2436
       132                         -0.2280853              -6.2065
       133                         -0.2274227              -6.1885
       134                         -0.2257007              -6.1416
       135                         -0.2248423              -6.1183
       ...                                ...                  ...
       245                          0.7267853              19.7768
      -------------------------------------------------------------
                  HL-Gap            0.0843348 Eh            2.2949 eV

     #   Z          covCN         q      C6AA      α(0)
     1   8 O        0.858    -0.400    21.679     6.243
     2   6 C        2.831     0.222    23.328     7.915
     3   6 C        2.978    -0.020    28.507     8.758
     4   6 C        2.925    -0.020    28.513     8.757
     5   6 C        2.917    -0.031    28.782     8.798
     6   6 C        2.920    -0.025    28.637     8.776
     7   6 C        2.922    -0.035    28.874     8.812
     8   6 C        2.983     0.016    27.640     8.624
     9   6 C        3.951     0.011    20.327     6.406
    10   6 C        2.983     0.016    27.641     8.624
    11   6 C        2.929    -0.065    29.606     8.923
    12   6 C        2.915     0.074    26.347     8.417
    13   7 N        2.755    -0.074    22.667     7.071
    14   6 C        2.952     0.058    26.691     8.474
    15   6 C        2.919    -0.044    29.092     8.845
    16   6 C        2.920    -0.032    28.806     8.801
    17   6 C        2.920    -0.035    28.877     8.812
    18   6 C        2.920    -0.035    28.877     8.812
    19   6 C        2.994    -0.001    28.045     8.687
    20   6 C        3.927     0.011    20.332     6.408
    21   6 C        2.975     0.013    27.724     8.637
    22   6 C        2.923    -0.035    28.874     8.812
    23   6 C        2.920    -0.030    28.740     8.791
    24   6 C        2.920    -0.032    28.789     8.799
    25   6 C        2.919    -0.031    28.770     8.796
    26   6 C        2.925    -0.033    28.816     8.803
    27   6 C        2.983     0.012    27.739     8.639
    28   6 C        2.924    -0.034    28.856     8.809
    29   6 C        2.920    -0.030    28.751     8.793
    30   6 C        2.920    -0.030    28.748     8.793
    31   6 C        2.920    -0.029    28.719     8.788
    32   6 C        2.924    -0.035    28.873     8.812
    33   6 C        2.996    -0.001    28.046     8.687
    34   6 C        2.920    -0.035    28.883     8.813
    35   6 C        2.920    -0.036    28.885     8.813
    36   6 C        2.920    -0.032    28.801     8.801
    37   6 C        2.920    -0.043    29.069     8.841
    38   6 C        2.953     0.058    26.699     8.475
    39   6 C        2.920    -0.059    29.464     8.901
    40   6 C        2.924    -0.021    28.528     8.759
    41   6 C        2.977    -0.036    28.882     8.815
    42   6 C        3.056     0.004    27.883     8.660
    43   6 C        2.914    -0.032    28.787     8.798
    44   6 C        2.922    -0.032    28.786     8.798
    45   6 C        2.921    -0.032    28.802     8.801
    46   6 C        2.914    -0.034    28.844     8.807
    47   6 C        3.034     0.001    27.960     8.673
    48   6 C        3.034     0.002    27.949     8.671
    49   6 C        2.915    -0.033    28.833     8.805
    50   6 C        2.921    -0.032    28.802     8.801
    51   6 C        2.923    -0.029    28.721     8.789
    52   6 C        2.913    -0.031    28.765     8.795
    53   6 C        3.063     0.008    27.784     8.644
    54   1 H        0.926     0.059     2.206     2.323
    55   1 H        0.926     0.037     2.496     2.470
    56   1 H        0.926     0.035     2.519     2.482
    57   1 H        0.926     0.032     2.562     2.503
    58   1 H        0.926     0.033     2.548     2.496
    59   1 H        0.926     0.042     2.423     2.434
    60   1 H        0.926     0.037     2.483     2.464
    61   1 H        0.926     0.036     2.504     2.475
    62   1 H        0.926     0.037     2.488     2.467
    63   1 H        0.926     0.032     2.563     2.503
    64   1 H        0.926     0.031     2.573     2.509
    65   1 H        0.926     0.031     2.576     2.510
    66   1 H        0.926     0.030     2.583     2.513
    67   1 H        0.925     0.030     2.591     2.517
    68   1 H        0.926     0.027     2.635     2.539
    69   1 H        0.926     0.030     2.582     2.513
    70   1 H        0.926     0.032     2.557     2.500
    71   1 H        0.926     0.034     2.533     2.489
    72   1 H        0.926     0.029     2.604     2.523
    73   1 H        0.926     0.037     2.487     2.466
    74   1 H        0.926     0.035     2.511     2.478
    75   1 H        0.926     0.036     2.500     2.473
    76   1 H        0.926     0.040     2.455     2.450
    77   1 H        0.926     0.037     2.486     2.466
    78   1 H        0.926     0.059     2.214     2.327
    79   1 H        0.926     0.028     2.612     2.527
    80   1 H        0.926     0.031     2.573     2.508
    81   1 H        0.926     0.030     2.579     2.512
    82   1 H        0.926     0.031     2.567     2.506
    83   1 H        0.926     0.032     2.557     2.500
    84   1 H        0.926     0.032     2.559     2.501
    85   1 H        0.926     0.033     2.538     2.491
    86   1 H        0.926     0.032     2.554     2.499

molecular dipole:
                 x           y           z       tot (Debye)
 q only:       -1.199      -1.332       0.576
   full:       -1.178      -1.530       0.604       5.143

 projected vibrational frequencies (cm⁻¹)
eigval :       -0.00    -0.00    -0.00    -0.00     0.00     0.00
eigval :       12.44    22.04    26.19    29.10    36.13    46.01
eigval :       48.95    51.97    53.10    61.29    64.62    80.85
eigval :       84.12    89.10    92.94    95.51   112.40   127.22
eigval :      140.52   150.09   162.30   169.58   185.86   203.54
eigval :      221.96   227.73   238.30   241.09   249.46   261.16
eigval :      268.09   278.80   289.75   292.85   304.69   312.99
eigval :      318.56   345.54   364.00   374.21   376.29   382.59
eigval :      389.46   397.46   405.14   413.38   418.40   424.77
eigval :      446.61   457.43   458.98   471.88   474.87   476.03
eigval :      493.03   502.71   509.93   512.70   520.31   537.11
eigval :      550.50   566.58   588.33   588.60   589.81   596.31
eigval :      601.06   605.62   609.12   613.64   616.95   625.26
eigval :      635.55   652.91   668.03   673.45   674.25   674.74
eigval :      684.67   692.31   698.20   708.35   719.67   726.93
eigval :      737.31   752.60   755.49   756.87   766.38   775.67
eigval :      782.47   785.13   787.21   789.62   827.30   864.66
eigval :      878.39   879.30   880.12   882.54   883.40   887.28
eigval :      889.55   891.40   895.29   898.60   902.26   907.17
eigval :      907.45   911.43   912.02   916.59   920.43   921.77
eigval :      923.21   923.72   924.45   927.98   928.58   931.03
eigval :      931.45   931.60   932.94   935.15   935.92   937.04
eigval :      938.83   947.93   986.99  1003.63  1005.20  1018.65
eigval :     1074.35  1076.69  1080.22  1087.59  1091.35  1092.15
eigval :     1093.27  1094.00  1111.27  1114.92  1124.22  1126.67
eigval :     1130.18  1134.26  1143.75  1174.08  1174.74  1174.99
eigval :     1178.91  1180.21  1180.69  1182.08  1182.26  1184.76
eigval :     1197.01  1199.75  1201.40  1204.59  1205.96  1210.68
eigval :     1215.88  1230.03  1234.35  1244.25  1250.25  1253.10
eigval :     1259.93  1263.13  1264.15  1268.69  1280.66  1284.57
eigval :     1288.37  1288.41  1292.46  1319.00  1319.48  1324.63
eigval :     1325.65  1328.62  1329.56  1340.72  1359.33  1365.86
eigval :     1426.39  1429.54  1429.97  1430.93  1432.81  1434.23
eigval :     1441.25  1445.80  1451.10  1459.47  1464.23  1470.67
eigval :     1472.32  1474.83  1478.33  1490.96  1550.57  1576.21
eigval :     1577.37  1583.49  1584.47  1586.00  1586.23  1589.10
eigval :     1590.25  1591.82  1595.53  1599.68  1601.11  1601.81
eigval :     1604.18  1604.43  1674.54  3069.83  3072.66  3073.77
eigval :     3074.58  3075.56  3077.32  3077.37  3078.49  3079.81
eigval :     3081.47  3081.82  3082.22  3082.55  3084.22  3086.12
eigval :     3086.49  3086.89  3087.47  3089.11  3089.92  3091.71
eigval :     3091.91  3092.98  3093.61  3094.59  3094.61  3095.44
eigval :     3095.97  3100.38  3100.98  3104.52  3109.51  3113.36

   temp. (K)  partition function   enthalpy   heat capacity  entropy
                                   cal/mol     cal/K/mol   cal/K/mol   J/K/mol
 298.15  VIB  0.189E+18            23737.402    154.578    145.816
         ROT  0.605E+08              888.752      2.981     38.589
         INT  0.114E+26            24626.154    157.559    184.405
         TR   0.170E+29             1481.254      4.968     45.393
         TOT                       26107.4084   162.5274   229.7981   961.4753

       T/K    H(0)-H(T)+PV         H(T)/Eh          T*S/Eh         G(T)/Eh
   ------------------------------------------------------------------------
    298.15    0.416048E-01    0.705326E+00    0.109185E+00    0.596141E+00
   ------------------------------------------------------------------------

         :::::::::::::::::::::::::::::::::::::::::::::::::::::
         ::                  THERMODYNAMIC                  ::
         :::::::::::::::::::::::::::::::::::::::::::::::::::::
         :: total free energy        -132.472410782549 Eh   ::
         ::.................................................::
         :: total energy             -133.068552203909 Eh   ::
         :: zero point energy           0.663721121472 Eh   ::
         :: G(RRHO) w/o ZPVE           -0.067579700112 Eh   ::
         :: G(RRHO) contrib.            0.596141421360 Eh   ::
         :::::::::::::::::::::::::::::::::::::::::::::::::::::

           -------------------------------------------------
          | TOTAL ENERGY             -133.068552203909 Eh   |
          | TOTAL ENTHALPY           -132.363226278888 Eh   |
          | TOTAL FREE ENERGY        -132.472410782549 Eh   |
          | GRADIENT NORM               0.000147140307 Eh/α |
          | HOMO-LUMO GAP               2.294866219868 eV   |
           -------------------------------------------------

 * finished run on 2025/08/29 at 20:02:58.002
