   * xtb version 6.7.1 (edcfbbe) compiled by 'albert@albert-system' on 2024-07-22

   ID    Z sym.   atoms
    1    8 O      1
    2    6 C      2-12, 14-53
    3    7 N      13
    4    1 H      54-86

          program call               : xtb data2507/gas/SPBP-DPAC/SPBP-DPAC_gas_T1_crest.xyz --gfn 2 --spinpol --tblite --uhf 2 --ohess vtight --parallel 40 --molden --ceasefiles --namespace data2507/gas/SPBP-DPAC/SPBP-DPAC_gas_T1_finalOpt
 * total energy  :  -132.9865693 Eh     change        0.4118306E-09 Eh
 * total energy  :  -132.9866159 Eh     change       -0.4657471E-04 Eh
 * total energy  :  -132.9866340 Eh     change       -0.1817909E-04 Eh
 * total energy  :  -132.9866375 Eh     change       -0.3453029E-05 Eh
 * total energy  :  -132.9866411 Eh     change       -0.3618635E-05 Eh
 * total energy  :  -132.9866455 Eh     change       -0.4414153E-05 Eh
 * total energy  :  -132.9866513 Eh     change       -0.5828460E-05 Eh
 * total energy  :  -132.9866577 Eh     change       -0.6314006E-05 Eh
 * total energy  :  -132.9866635 Eh     change       -0.5855418E-05 Eh
 * total energy  :  -132.9866693 Eh     change       -0.5829916E-05 Eh
 * total energy  :  -132.9867274 Eh     change       -0.1621985E-05 Eh
 * total energy  :  -132.9867292 Eh     change       -0.1765644E-05 Eh
 * total energy  :  -132.9867310 Eh     change       -0.1876394E-05 Eh
 * total energy  :  -132.9867330 Eh     change       -0.2002290E-05 Eh
 * total energy  :  -132.9867352 Eh     change       -0.2138624E-05 Eh
 * total energy  :  -132.9867374 Eh     change       -0.2224015E-05 Eh
 * total energy  :  -132.9867397 Eh     change       -0.2266126E-05 Eh
 * total energy  :  -132.9867397 Eh     change        0.2335898E-07 Eh
 * total energy  :  -132.9867397 Eh     change       -0.1776334E-07 Eh
   *** GEOMETRY OPTIMIZATION CONVERGED AFTER 45 ITERATIONS ***

 final structure:
================
86
 xtb: 6.7.1 (edcfbbe)
O            4.74795469897547        3.76607980593909        0.08428533348750
C            4.29532600675900        2.58512347058721        0.08189939572218
C            5.18118875175128        1.43500653078870        0.07818663078690
C            6.56855966769483        1.66095953678093        0.10047018588187
C            7.44884572367637        0.60544720602146        0.11657068414301
C            6.97249690321652       -0.69886554668935        0.10852739136166
C            5.60757596897310       -0.92992530913723        0.08330946303079
C            4.70156761280571        0.11937757223433        0.06637811303424
C            3.22793347135222       -0.20769874165176        0.02812182366878
C            2.35482426001768        1.01997240475915        0.04848734743601
C            0.98793241553510        0.84318934982152        0.06656316385700
C            0.12219191627901        1.93558657036744        0.10871924940983
N           -1.26430336439458        1.64911926820314        0.17414910606725
C           -2.10450214821032        1.87015413410971       -0.89825271983983
C           -1.74182188898923        2.74002297749375       -1.93087201443304
C           -2.63401887843272        3.02802970232492       -2.94185360975792
C           -3.89695496313006        2.45653835491639       -2.94228732799655
C           -4.24046130721835        1.54692376272026       -1.95558481118777
C           -3.35432891180260        1.22966281418999       -0.94005002773682
C           -3.60168627035186        0.08972292334620        0.02957224225442
C           -5.08090593674258       -0.19459661236837        0.20171930618941
C           -5.62480441973236       -1.46072243337026        0.04372407027587
C           -6.98001559676242       -1.67030805505990        0.24096258967392
C           -7.80465731619062       -0.62071046834807        0.60331997819365
C           -7.26652051828355        0.64438275757515        0.77570186170450
C           -5.91513320083479        0.85417403800678        0.57958876410215
C           -2.84027293791503       -1.09931636763144       -0.57435779450171
C           -1.89091989721466       -1.81216967863773        0.14586019157523
C           -1.18258144696046       -2.84268200903622       -0.44928524110724
C           -1.41365920484815       -3.18030316398768       -1.76960171211366
C           -2.37109059030246       -2.48687243495654       -2.49026263776409
C           -3.07473409585363       -1.45467609358702       -1.89891489751051
C           -2.98507660707537        0.44531672688420        1.36287716575728
C           -3.50693370786455        0.00499836195241        2.56762746863073
C           -2.83907256763485        0.23953386460990        3.75819449518590
C           -1.62343524128922        0.90702712624426        3.74868078518108
C           -1.09018709318656        1.36046150713875        2.56103448920430
C           -1.76975171043472        1.14566461199624        1.35816004130894
C            0.64048308110412        3.23354652081059        0.13366344932585
C            1.99570863903867        3.42258297858405        0.10210482167192
C            2.88621951845895        2.32200751141045        0.07481888010413
C            2.85357226236970       -1.13570256929428        1.16826898864600
C            2.89308138110970       -0.87868257613088        2.52073677991178
C            2.49337630312350       -1.87925270457757        3.39675305713426
C            2.07198478692600       -3.11183303921921        2.92166568523583
C            2.03299496627743       -3.37443264844874        1.56134581471795
C            2.41930064135310       -2.37674150808026        0.68157549615840
C            2.46107750750810       -2.34220069575288       -0.77254891342232
C            2.13901644991392       -3.30180568267757       -1.71737864003545
C            2.26284064311893       -2.97880083981934       -3.05913356994983
C            2.70325788337454       -1.72406756533453       -3.45153987497085
C            3.03795659630719       -0.76089203411532       -2.50900294880544
C            2.91418995193496       -1.07781513338157       -1.17452859037131
H            6.91528591396887        2.68293007934162        0.10808046874036
H            8.51227455280437        0.79483279405305        0.13616162712741
H            7.65846106552420       -1.53238851027846        0.12022543866366
H            5.23446768081959       -1.94454535265072        0.07462508720601
H            0.56983469843842       -0.15419292495322        0.04789047384462
H           -0.75962739970557        3.18441105165532       -1.93276705489176
H           -2.34515691781552        3.70569726049083       -3.73064383152612
H           -4.60291421748856        2.69517151093229       -3.72273204911126
H           -5.20967146868626        1.07073251452613       -1.98287161676738
H           -4.99082462034228       -2.29073297941917       -0.23053437683079
H           -7.38997460589538       -2.66135233061244        0.11267923608570
H           -8.86067973313554       -0.78663295201861        0.75583127205449
H           -7.90129162243731        1.46861588960971        1.06588824248029
H           -5.49545207608598        1.84049378829688        0.72001462327144
H           -1.69491154692294       -1.57602049067976        1.18133823228950
H           -0.44454815901681       -3.37567652749837        0.13039521895948
H           -0.85519082017762       -3.97775507230311       -2.23530062991002
H           -2.56831974206956       -2.74603882934719       -3.52000880851362
H           -3.81449251878818       -0.91814702453873       -2.47417670685978
H           -4.43645906428760       -0.54407149386994        2.57315174135316
H           -3.25936820841166       -0.11185231598558        4.68778152872113
H           -1.09165027157909        1.07901819219365        4.67190804330984
H           -0.15083153119694        1.89095749487489        2.55093763002065
H           -0.03113035119418        4.07707033178944        0.20196844829767
H            2.42981318119994        4.41053823961424        0.12395650543015
H            3.22839866901910        0.07971695086344        2.88946674402208
H            2.51461126770602       -1.69713828439873        4.46111728615669
H            1.77099245612181       -3.87782801606074        3.62170075071718
H            1.71225140119515       -4.34043805274784        1.19828283612682
H            1.80416191944782       -4.28359452607700       -1.41614214822509
H            2.01620362694422       -3.71455237387418       -3.81105259257827
H            2.79196589402630       -1.49473387811090       -4.50321875437636
H            3.38942167042485        0.21407049145869       -2.81353280943601

 projected vibrational frequencies (cm⁻¹)
eigval :       -0.00     0.00     0.00     0.00     0.00     0.00
eigval :        9.35    12.67    18.46    30.60    34.00    36.54
eigval :       40.68    48.48    56.96    61.57    62.71    68.80
eigval :       81.94    84.90    87.74   109.47   116.28   129.75
eigval :      131.82   139.24   142.12   174.93   181.13   215.14
eigval :      227.49   228.94   234.06   236.44   238.96   257.56
eigval :      275.24   282.01   288.63   295.59   300.40   307.92
eigval :      310.60   344.95   367.92   371.01   374.83   382.39
eigval :      389.98   397.79   408.94   412.14   417.18   423.74
eigval :      441.38   447.32   448.89   459.68   462.90   467.86
eigval :      474.83   496.05   502.35   510.77   519.48   523.48
eigval :      538.47   545.61   554.99   586.23   587.74   588.26
eigval :      589.65   595.26   600.91   604.75   607.84   617.40
eigval :      626.35   637.36   659.17   659.54   670.43   674.95
eigval :      677.32   684.59   689.19   690.14   700.92   706.91
eigval :      729.41   750.96   753.61   756.97   766.23   767.50
eigval :      773.61   775.21   776.40   785.98   817.39   861.88
eigval :      868.08   870.99   872.67   875.21   877.77   880.53
eigval :      880.84   882.69   889.57   892.63   898.59   901.32
eigval :      902.04   905.72   906.02   910.24   910.84   911.01
eigval :      912.90   913.38   917.46   920.54   922.86   925.35
eigval :      926.85   927.30   930.24   931.77   932.71   934.17
eigval :      934.22   942.36   984.29   998.35  1004.80  1005.93
eigval :     1072.10  1074.01  1078.98  1087.55  1090.88  1091.66
eigval :     1098.35  1099.14  1113.88  1119.30  1123.17  1126.36
eigval :     1127.25  1134.13  1141.45  1162.79  1174.34  1176.46
eigval :     1178.78  1179.48  1180.51  1180.97  1181.88  1182.76
eigval :     1185.97  1193.09  1199.51  1202.84  1205.07  1208.71
eigval :     1212.70  1217.38  1219.49  1225.98  1239.95  1244.69
eigval :     1252.61  1258.29  1258.51  1261.33  1263.70  1284.21
eigval :     1287.24  1292.27  1306.49  1310.14  1318.08  1321.25
eigval :     1325.71  1326.19  1333.25  1334.80  1340.87  1367.84
eigval :     1392.40  1410.76  1421.83  1428.70  1429.33  1429.72
eigval :     1432.36  1433.66  1436.22  1446.32  1447.14  1459.72
eigval :     1468.92  1470.61  1471.85  1473.00  1476.38  1481.99
eigval :     1538.60  1546.91  1555.70  1566.40  1573.48  1574.41
eigval :     1584.94  1586.40  1587.97  1589.42  1596.36  1598.87
eigval :     1601.34  1602.26  1603.22  3068.84  3070.53  3071.27
eigval :     3071.33  3071.70  3074.74  3075.92  3076.02  3076.89
eigval :     3077.86  3079.04  3081.92  3082.54  3083.38  3083.41
eigval :     3085.79  3087.63  3089.63  3089.66  3090.36  3091.30
eigval :     3091.33  3092.09  3092.67  3095.31  3096.23  3096.44
eigval :     3099.79  3100.34  3101.17  3103.27  3106.66  3112.95

   temp. (K)  partition function   enthalpy   heat capacity  entropy
                                   cal/mol     cal/K/mol   cal/K/mol   J/K/mol
 298.15  VIB  0.136E+19            24036.384    155.478    148.405
         ROT  0.641E+08              888.752      2.981     38.705
         INT  0.874E+26            24925.136    158.459    187.110
         TR   0.170E+29             1481.254      4.968     45.393
         TOT                       26406.3900   163.4267   232.5030   972.7927

       T/K    H(0)-H(T)+PV         H(T)/Eh          T*S/Eh         G(T)/Eh
   ------------------------------------------------------------------------
    298.15    0.420813E-01    0.702239E+00    0.110470E+00    0.591770E+00
   ------------------------------------------------------------------------

         :::::::::::::::::::::::::::::::::::::::::::::::::::::
         ::                  THERMODYNAMIC                  ::
         :::::::::::::::::::::::::::::::::::::::::::::::::::::
         :: total free energy        -132.394969993178 Eh   ::
         ::.................................................::
         :: total energy             -132.986739599367 Eh   ::
         :: zero point energy           0.660158044726 Eh   ::
         :: G(RRHO) w/o ZPVE           -0.068388438537 Eh   ::
         :: G(RRHO) contrib.            0.591769606190 Eh   ::
         :::::::::::::::::::::::::::::::::::::::::::::::::::::

           -------------------------------------------------
          | TOTAL ENERGY             -132.986739599367 Eh   |
          | TOTAL ENTHALPY           -132.284500293555 Eh   |
          | TOTAL FREE ENERGY        -132.394969993178 Eh   |
          | GRADIENT NORM               0.000102378245 Eh/α |
           -------------------------------------------------

 * finished run on 2025/08/29 at 20:09:34.290
