   * xtb version 6.7.1 (edcfbbe) compiled by 'albert@albert-system' on 2024-07-22

   ID    Z sym.   atoms
    1    8 O      1
    2    6 C      2-12, 14-53
    3    7 N      13
    4    1 H      54-86

          program call               : xtb data2507/gas/SPBP-DPAC/SPBP-DPAC.xyz --gfn 2 --ohess vtight --parallel 40 --molden --ceasefiles --namespace data2507/gas/SPBP-DPAC/SPBP-DPAC_gas_S0_preOpt
          :  Hamiltonian                  GFN2-xTB          :
 * total energy  :  -133.0285523 Eh     change       -0.6350092E-08 Eh
 * total energy  :  -133.0481613 Eh     change       -0.1960900E-01 Eh
 * total energy  :  -133.0561121 Eh     change       -0.7950826E-02 Eh
 * total energy  :  -133.0580579 Eh     change       -0.1945798E-02 Eh
 * total energy  :  -133.0587752 Eh     change       -0.7172908E-03 Eh
 * total energy  :  -133.0590167 Eh     change       -0.2414757E-03 Eh
 * total energy  :  -133.0591022 Eh     change       -0.8555939E-04 Eh
 * total energy  :  -133.0591484 Eh     change       -0.4620003E-04 Eh
 * total energy  :  -133.0591808 Eh     change       -0.3234585E-04 Eh
 * total energy  :  -133.0592000 Eh     change       -0.1923391E-04 Eh
 * total energy  :  -133.0625963 Eh     change       -0.4985555E-06 Eh
 * total energy  :  -133.0625967 Eh     change       -0.4335679E-06 Eh
 * total energy  :  -133.0625972 Eh     change       -0.4919930E-06 Eh
 * total energy  :  -133.0625977 Eh     change       -0.5143532E-06 Eh
 * total energy  :  -133.0625981 Eh     change       -0.4302493E-06 Eh
 * total energy  :  -133.0625984 Eh     change       -0.3078676E-06 Eh
 * total energy  :  -133.0625987 Eh     change       -0.2329973E-06 Eh
 * total energy  :  -133.0625989 Eh     change       -0.2063146E-06 Eh
 * total energy  :  -133.0625989 Eh     change       -0.9437713E-09 Eh
   *** GEOMETRY OPTIMIZATION CONVERGED AFTER 185 ITERATIONS ***

 final structure:
================
86
 xtb: 6.7.1 (edcfbbe)
O            3.69423816614528        4.50979478080209       -1.10960611767366
C            3.73646593023894        3.34985845170172       -0.73782251984449
C            5.00207321950966        2.70594818815987       -0.33101376032084
C            6.16387637248390        3.48184657747295       -0.33073903578540
C            7.37406235936138        2.94066978846378        0.04324970731528
C            7.43834901704363        1.60696379784718        0.42354596310827
C            6.29659742403623        0.82974120373097        0.42470172369263
C            5.06881930355296        1.36603210961925        0.05039997007421
C            3.86079465599374        0.47222449325567        0.05800059954843
C            2.57681206616694        1.16597470667477       -0.30535249305938
C            1.40048970216819        0.42937776886890       -0.25698439975867
C            0.17469111044213        1.02977911591134       -0.50184080563386
N           -1.03173978332716        0.30677119442983       -0.38630419346310
C           -1.42400238099749       -0.26040027878912        0.82282376795306
C           -0.56379068036973       -0.33795881587180        1.91853310535023
C           -0.95716581326839       -0.97569553570217        3.07828032390332
C           -2.21325282107769       -1.54732268533286        3.16893461775267
C           -3.09541499575107       -1.41534224856970        2.11074631139515
C           -2.72782109047530       -0.75942503184439        0.94623847827504
C           -3.74299536716835       -0.43111334966465       -0.13494539891609
C           -4.88504700863614       -1.43088762991053       -0.13024330383280
C           -6.21643693317674       -1.05473220795459       -0.03246067502831
C           -7.21909188495176       -2.01085052131326       -0.05442326527411
C           -6.90455210846632       -3.35176503518682       -0.17826221580210
C           -5.57736981264965       -3.73533946301090       -0.28570250283022
C           -4.57763144164547       -2.78254126175013       -0.26424385750782
C           -4.23279349336572        0.99263133896429        0.14551158410476
C           -4.32828709985268        1.94392457726131       -0.86185093773746
C           -4.76832078990002        3.22691813107582       -0.58287732656560
C           -5.12394565737194        3.57987892415393        0.70614243911492
C           -5.03997131570449        2.63617756404651        1.71577218516492
C           -4.59731540826610        1.35631431210353        1.43779976239934
C           -3.04340277567431       -0.46556690191134       -1.47709906289973
C           -3.69659669229376       -0.84100145412243       -2.64074446307339
C           -3.06415020264395       -0.76554747341230       -3.86940119829436
C           -1.75945032013698       -0.30832842770889       -3.94010418683621
C           -1.08765811682920        0.05520721400792       -2.79019022025314
C           -1.72219488252588       -0.01537486816779       -1.54973702514328
C            0.12302397926975        2.37465362916769       -0.87119613463028
C            1.28931214175327        3.09743798754317       -0.95902118293515
C            2.52450394149776        2.51250053257514       -0.66138914659412
C            3.67994476634892       -0.20158569381442        1.40757552970199
C            3.42304530048503        0.39253492132971        2.62300536104900
C            3.24295286528084       -0.42440478638296        3.73177534943293
C            3.31822197474671       -1.80406175737508        3.61631159051176
C            3.57741798019223       -2.40400638723143        2.39421036565327
C            3.75774815009304       -1.59568994936648        1.28406976820287
C            4.01902604787665       -1.92212878607317       -0.11006988426458
C            4.19402885460774       -3.14027360099460       -0.74556180278468
C            4.43263943900310       -3.14765111126547       -2.11070600255673
C            4.49472616737300       -1.96396868786568       -2.83025992681706
C            4.31952821242428       -0.73879396529148       -2.20009040168973
C            4.08386836161039       -0.72922730349032       -0.84360839522081
H            6.07873729357645        4.51540829145933       -0.63225428849973
H            8.26654954058589        3.54812283187437        0.04082552715776
H            8.38226654052602        1.17310128783767        0.71885979028254
H            6.35088746947174       -0.20860947786382        0.71925656046171
H            1.43841333923556       -0.62548566775324       -0.02636822830086
H            0.41613757311013        0.11024005562838        1.87738827134330
H           -0.26977176008039       -1.02803643748429        3.90949273706018
H           -2.51863554098737       -2.06355521828817        4.06615286351874
H           -4.09415931414177       -1.81833203620267        2.19731095051632
H           -6.47849070115198       -0.01110015854630        0.05864074462501
H           -8.25140167864163       -1.70200487027177        0.02396175782901
H           -7.68791085006746       -4.09512828319347       -0.19449114447766
H           -5.32192010724257       -4.78002482783492       -0.38796356007191
H           -3.54280076360715       -3.08264475022021       -0.35143147749950
H           -4.06311110539293        1.68775871925049       -1.87683608142861
H           -4.83383125364246        3.95224144293763       -1.38106796042765
H           -5.46603714478490        4.58108648367332        0.92281401559886
H           -5.31984294309312        2.89715545219214        2.72607366852862
H           -4.53606864304655        0.63118764377042        2.23544091063729
H           -4.72124234586890       -1.17761602337550       -2.58607711294235
H           -3.59175049598916       -1.05287045879492       -4.76590610653485
H           -1.25687388549223       -0.24137751139089       -4.89342255457386
H           -0.06318100821033        0.39129374388869       -2.84805068208203
H           -0.83428377562540        2.83009117858057       -1.07647832388668
H            1.28113343423863        4.13995537605555       -1.24020369875055
H            3.35935847804873        1.46762992316291        2.71070849452394
H            3.03845163322006        0.02152888338585        4.69378779094027
H            3.17096028434842       -2.41977095692917        4.49145868912953
H            3.63198203050205       -3.47896054749777        2.30918094330767
H            4.14646445810054       -4.06471775143372       -0.18964149096104
H            4.57253593273891       -4.08857698223498       -2.62229548795780
H            4.68190013387548       -1.99439819343808       -3.89325515870729
H            4.36867654262296        0.18423674913190       -2.75938801895661

          :  Hamiltonian                  GFN2-xTB          :
         :: gradient norm              0.000022944163 Eh/a0 ::
         :: HOMO-LUMO gap              1.647502775827 eV    ::
         :: SCC energy              -135.562547710365 Eh    ::
         :: -> dispersion             -0.137751085163 Eh    ::
         :: repulsion energy           2.499948832023 Eh    ::

    * Orbital Energies and Occupations

         #    Occupation            Energy/Eh            Energy/eV
      -------------------------------------------------------------
         1        2.0000           -0.6969190             -18.9641
       ...           ...                  ...                  ...
       112        2.0000           -0.4096333             -11.1467
       113        2.0000           -0.4088337             -11.1249
       114        2.0000           -0.4054090             -11.0317
       115        2.0000           -0.4044647             -11.0060
       116        2.0000           -0.4033087             -10.9746
       117        2.0000           -0.4025095             -10.9528
       118        2.0000           -0.4005517             -10.8996
       119        2.0000           -0.3977853             -10.8243
       120        2.0000           -0.3920456             -10.6681
       121        2.0000           -0.3898123             -10.6073
       122        2.0000           -0.3883936             -10.5687
       123        2.0000           -0.3851364             -10.4801
       124        2.0000           -0.3516122              -9.5679 (HOMO)
       125                         -0.2910676              -7.9204 (LUMO)
       126                         -0.2618915              -7.1264
       127                         -0.2433138              -6.6209
       128                         -0.2393189              -6.5122
       129                         -0.2350720              -6.3966
       130                         -0.2345467              -6.3823
       131                         -0.2279652              -6.2032
       132                         -0.2266204              -6.1667
       133                         -0.2263871              -6.1603
       134                         -0.2238084              -6.0901
       135                         -0.2212060              -6.0193
       ...                                ...                  ...
       245                          0.7192591              19.5720
      -------------------------------------------------------------
                  HL-Gap            0.0605446 Eh            1.6475 eV

     #   Z          covCN         q      C6AA      α(0)
     1   8 O        0.858    -0.386    21.410     6.204
     2   6 C        2.831     0.223    23.304     7.911
     3   6 C        2.976    -0.021    28.516     8.759
     4   6 C        2.926    -0.019    28.486     8.753
     5   6 C        2.917    -0.030    28.744     8.792
     6   6 C        2.920    -0.023    28.578     8.767
     7   6 C        2.924    -0.033    28.828     8.805
     8   6 C        2.981     0.018    27.609     8.619
     9   6 C        3.951     0.011    20.317     6.405
    10   6 C        2.984     0.018    27.595     8.617
    11   6 C        2.926    -0.047    29.169     8.857
    12   6 C        2.926     0.074    26.357     8.419
    13   7 N        2.754    -0.071    22.620     7.064
    14   6 C        2.927     0.058    26.693     8.473
    15   6 C        2.922    -0.058    29.432     8.897
    16   6 C        2.920    -0.032    28.810     8.802
    17   6 C        2.917    -0.043    29.070     8.841
    18   6 C        2.923    -0.035    28.884     8.813
    19   6 C        2.990    -0.009    28.227     8.715
    20   6 C        3.923     0.009    20.360     6.413
    21   6 C        2.978     0.015    27.675     8.629
    22   6 C        2.922    -0.036    28.899     8.816
    23   6 C        2.920    -0.030    28.761     8.795
    24   6 C        2.920    -0.032    28.809     8.802
    25   6 C        2.919    -0.030    28.758     8.794
    26   6 C        2.926    -0.032    28.789     8.799
    27   6 C        2.980     0.013    27.725     8.637
    28   6 C        2.923    -0.037    28.911     8.818
    29   6 C        2.920    -0.031    28.767     8.795
    30   6 C        2.919    -0.032    28.803     8.801
    31   6 C        2.920    -0.030    28.759     8.794
    32   6 C        2.925    -0.035    28.875     8.812
    33   6 C        2.987    -0.008    28.200     8.711
    34   6 C        2.923    -0.035    28.882     8.813
    35   6 C        2.918    -0.042    29.043     8.837
    36   6 C        2.919    -0.032    28.802     8.801
    37   6 C        2.922    -0.055    29.355     8.885
    38   6 C        2.936     0.059    26.678     8.471
    39   6 C        2.920    -0.041    29.025     8.835
    40   6 C        2.925    -0.020    28.499     8.755
    41   6 C        2.975    -0.024    28.599     8.772
    42   6 C        3.061     0.005    27.861     8.656
    43   6 C        2.914    -0.032    28.804     8.801
    44   6 C        2.923    -0.029    28.732     8.790
    45   6 C        2.921    -0.030    28.752     8.793
    46   6 C        2.915    -0.033    28.812     8.802
    47   6 C        3.033     0.002    27.943     8.671
    48   6 C        3.034     0.002    27.950     8.672
    49   6 C        2.915    -0.033    28.821     8.803
    50   6 C        2.921    -0.031    28.767     8.795
    51   6 C        2.923    -0.030    28.743     8.792
    52   6 C        2.914    -0.032    28.804     8.801
    53   6 C        3.059     0.005    27.857     8.655
    54   1 H        0.926     0.063     2.158     2.297
    55   1 H        0.926     0.040     2.451     2.448
    56   1 H        0.926     0.038     2.472     2.459
    57   1 H        0.926     0.034     2.530     2.487
    58   1 H        0.926     0.043     2.403     2.424
    59   1 H        0.926     0.028     2.617     2.530
    60   1 H        0.926     0.028     2.612     2.527
    61   1 H        0.926     0.028     2.608     2.526
    62   1 H        0.926     0.031     2.565     2.505
    63   1 H        0.926     0.031     2.576     2.510
    64   1 H        0.926     0.029     2.600     2.521
    65   1 H        0.926     0.029     2.601     2.522
    66   1 H        0.926     0.029     2.600     2.522
    67   1 H        0.926     0.028     2.618     2.530
    68   1 H        0.926     0.030     2.584     2.514
    69   1 H        0.926     0.029     2.599     2.521
    70   1 H        0.926     0.030     2.593     2.518
    71   1 H        0.926     0.029     2.598     2.521
    72   1 H        0.926     0.033     2.548     2.496
    73   1 H        0.926     0.032     2.560     2.502
    74   1 H        0.926     0.030     2.590     2.517
    75   1 H        0.926     0.031     2.575     2.509
    76   1 H        0.926     0.025     2.657     2.549
    77   1 H        0.926     0.047     2.360     2.402
    78   1 H        0.926     0.068     2.105     2.269
    79   1 H        0.926     0.028     2.614     2.529
    80   1 H        0.926     0.034     2.525     2.485
    81   1 H        0.926     0.034     2.527     2.486
    82   1 H        0.926     0.034     2.524     2.484
    83   1 H        0.926     0.035     2.522     2.484
    84   1 H        0.926     0.035     2.523     2.484
    85   1 H        0.926     0.035     2.514     2.480
    86   1 H        0.926     0.029     2.595     2.519

molecular dipole:
                 x           y           z       tot (Debye)
 q only:        0.276      -1.198       0.385
   full:        0.347      -1.354       0.451       3.732

 projected vibrational frequencies (cm⁻¹)
eigval :       -0.00    -0.00    -0.00     0.00     0.00     0.00
eigval :        5.89     9.38    13.18    15.72    24.09    30.12
eigval :       41.74    46.88    49.16    58.36    60.84    62.59
eigval :       75.75    83.54    84.28   103.58   114.26   123.21
eigval :      127.54   136.82   139.10   169.13   188.22   223.02
eigval :      228.98   231.10   234.20   235.97   239.01   259.53
eigval :      281.10   283.98   292.38   293.70   305.60   309.27
eigval :      316.75   341.44   368.85   372.34   373.35   388.91
eigval :      390.23   395.23   408.46   412.28   426.06   432.37
eigval :      444.17   449.90   454.10   459.34   469.88   474.48
eigval :      478.60   498.16   502.86   514.05   518.01   535.52
eigval :      547.61   562.80   584.13   588.41   588.79   593.46
eigval :      598.39   603.50   607.15   610.67   629.44   640.21
eigval :      642.93   651.40   662.80   671.42   674.23   680.91
eigval :      684.97   690.29   692.01   697.55   709.55   729.98
eigval :      740.17   751.86   754.81   757.06   767.11   775.07
eigval :      778.38   779.05   786.13   790.96   841.35   869.12
eigval :      870.50   878.26   879.51   879.75   879.89   885.73
eigval :      886.14   894.27   896.66   900.08   901.51   904.79
eigval :      909.71   911.82   912.38   914.00   918.24   919.82
eigval :      922.30   922.93   925.92   927.25   928.21   928.99
eigval :      930.94   931.68   932.61   932.74   933.25   933.75
eigval :      945.02   949.70   986.13  1000.76  1004.09  1016.66
eigval :     1073.76  1077.31  1079.49  1087.98  1092.02  1094.21
eigval :     1105.77  1110.41  1118.95  1120.74  1125.43  1128.39
eigval :     1130.48  1133.49  1142.50  1169.79  1175.84  1179.62
eigval :     1180.02  1182.03  1182.26  1182.73  1184.07  1186.45
eigval :     1190.20  1196.93  1202.47  1203.71  1208.45  1213.48
eigval :     1222.17  1227.65  1231.50  1238.78  1247.28  1250.80
eigval :     1257.76  1264.98  1266.11  1268.11  1272.61  1283.23
eigval :     1288.43  1292.30  1313.71  1317.94  1320.59  1324.65
eigval :     1325.26  1331.20  1334.01  1335.63  1347.97  1366.16
eigval :     1412.42  1425.89  1428.42  1430.15  1431.44  1434.25
eigval :     1439.49  1441.71  1459.61  1465.49  1468.00  1470.43
eigval :     1471.41  1474.31  1476.48  1488.75  1559.07  1572.55
eigval :     1577.37  1582.12  1584.88  1585.35  1587.42  1587.88
eigval :     1589.53  1592.44  1596.32  1598.78  1601.31  1601.70
eigval :     1603.23  1603.41  1677.75  3070.31  3072.06  3073.77
eigval :     3075.80  3075.92  3076.57  3076.85  3078.27  3079.20
eigval :     3079.94  3080.08  3080.76  3082.13  3083.92  3085.83
eigval :     3087.00  3087.32  3087.78  3088.62  3088.98  3089.13
eigval :     3091.28  3092.70  3093.45  3094.27  3095.04  3095.42
eigval :     3096.24  3096.35  3098.06  3098.93  3100.01  3106.79

   temp. (K)  partition function   enthalpy   heat capacity  entropy
                                   cal/mol     cal/K/mol   cal/K/mol   J/K/mol
 298.15  VIB  0.175E+20            23967.045    153.406    149.862
         ROT  0.748E+08              888.752      2.981     39.011
         INT  0.131E+28            24855.798    156.387    188.873
         TR   0.170E+29             1481.254      4.968     45.393
         TOT                       26337.0515   161.3549   234.2659   980.1687

       T/K    H(0)-H(T)+PV         H(T)/Eh          T*S/Eh         G(T)/Eh
   ------------------------------------------------------------------------
    298.15    0.419708E-01    0.705150E+00    0.111307E+00    0.593843E+00
   ------------------------------------------------------------------------

         :::::::::::::::::::::::::::::::::::::::::::::::::::::
         ::                  THERMODYNAMIC                  ::
         :::::::::::::::::::::::::::::::::::::::::::::::::::::
         :: total free energy        -132.468755888990 Eh   ::
         ::.................................................::
         :: total energy             -133.062598878350 Eh   ::
         :: zero point energy           0.663179529548 Eh   ::
         :: G(RRHO) w/o ZPVE           -0.069336540187 Eh   ::
         :: G(RRHO) contrib.            0.593842989360 Eh   ::
         :::::::::::::::::::::::::::::::::::::::::::::::::::::

           -------------------------------------------------
          | TOTAL ENERGY             -133.062598878350 Eh   |
          | TOTAL ENTHALPY           -132.357448585693 Eh   |
          | TOTAL FREE ENERGY        -132.468755888990 Eh   |
          | GRADIENT NORM               0.000022941831 Eh/α |
          | HOMO-LUMO GAP               1.647502296659 eV   |
           -------------------------------------------------

 * finished run on 2025/08/29 at 19:58:52.549
