   * xtb version 6.7.1 (edcfbbe) compiled by 'albert@albert-system' on 2024-07-22

   ID    Z sym.   atoms
    1    8 O      1
    2    6 C      2-12, 14-53
    3    7 N      13
    4    1 H      54-86

          program call               : xtb data2507/gas/SPBP-DPAC/SPBP-DPAC_gas_S0_finalOpt.xtbopt.xyz --gfn 2 --spinpol --tblite --uhf 2 --ohess vtight --parallel 40 --molden --ceasefiles --namespace data2507/gas/SPBP-DPAC/SPBP-DPAC_gas_T1_preOpt
 * total energy  :  -132.9792640 Eh     change       -0.1837415E-07 Eh
 * total energy  :  -132.9822862 Eh     change       -0.3022203E-02 Eh
 * total energy  :  -132.9830122 Eh     change       -0.7260142E-03 Eh
 * total energy  :  -132.9830909 Eh     change       -0.7864929E-04 Eh
 * total energy  :  -132.9831538 Eh     change       -0.6293758E-04 Eh
 * total energy  :  -132.9831893 Eh     change       -0.3548578E-04 Eh
 * total energy  :  -132.9832230 Eh     change       -0.3373670E-04 Eh
 * total energy  :  -132.9832543 Eh     change       -0.3131330E-04 Eh
 * total energy  :  -132.9832823 Eh     change       -0.2795651E-04 Eh
 * total energy  :  -132.9833104 Eh     change       -0.2811117E-04 Eh
 * total energy  :  -132.9834344 Eh     change       -0.1659548E-05 Eh
 * total energy  :  -132.9834356 Eh     change       -0.1166806E-05 Eh
 * total energy  :  -132.9834366 Eh     change       -0.1035445E-05 Eh
 * total energy  :  -132.9834372 Eh     change       -0.5617694E-06 Eh
 * total energy  :  -132.9834378 Eh     change       -0.5964784E-06 Eh
 * total energy  :  -132.9834382 Eh     change       -0.4598688E-06 Eh
 * total energy  :  -132.9834385 Eh     change       -0.3167075E-06 Eh
 * total energy  :  -132.9834387 Eh     change       -0.1896228E-06 Eh
 * total energy  :  -132.9834388 Eh     change       -0.7264381E-07 Eh
   *** GEOMETRY OPTIMIZATION CONVERGED AFTER 30 ITERATIONS ***

 final structure:
================
86
 xtb: 6.7.1 (edcfbbe)
O            3.98242936072175        3.92245782598135       -0.24392684667219
C            3.74206338316506        2.70222874783191       -0.01035229447425
C            4.80832313228690        1.72832385137791        0.12322786836740
C            6.13886284206196        2.18339399685010        0.11522778596089
C            7.18038289209359        1.29877740577491        0.26383744290454
C            6.92734780963225       -0.05725240169211        0.42542922217025
C            5.61966376970028       -0.51623640663812        0.42361960551989
C            4.55488912901122        0.35676010497644        0.27928392778800
C            3.15341551728236       -0.19508513314910        0.19282477655912
C            2.11173055503481        0.86764808567928        0.43472726410583
C            0.83205450675995        0.48638495437667        0.75822938674545
C           -0.19298533042001        1.42414233533610        0.96894753271727
N           -1.45443026137604        0.98742373610206        1.33700232304981
C           -2.60424613785396        1.79176204911445        1.30065030356011
C           -2.70409656159469        2.97754667146609        2.01936443120930
C           -3.87415423849209        3.71270878058802        1.96643026001568
C           -4.94488091338624        3.26409859442824        1.21140551319986
C           -4.85982035065871        2.06346793613492        0.52324251143133
C           -3.70051704537592        1.31085460776278        0.57294260896968
C           -3.47843563639729       -0.00243732708601       -0.15717584027121
C           -4.77079185754998       -0.57259773769080       -0.69774692411671
C           -4.97024258175909       -0.79838412743618       -2.05169059815410
C           -6.17152217288259       -1.31729205922394       -2.50635090622685
C           -7.18639935149678       -1.61576145993524       -1.61529631070735
C           -6.99600456965006       -1.39187692122813       -0.26135021850647
C           -5.79809335945491       -0.87407822859087        0.19327831967358
C           -2.43430589337676        0.23568320513872       -1.25111041589823
C           -1.56895388841121       -0.78572907342210       -1.62561283546908
C           -0.57107886289885       -0.55819946673369       -2.55486902901841
C           -0.42383757411152        0.69374321952314       -3.12548278160300
C           -1.30144474573813        1.70686203509538       -2.78370244075385
C           -2.30345504785432        1.47874178729622       -1.85692639521231
C           -2.82885467420015       -0.92006219078984        0.86602765878639
C           -3.16105239353912       -2.24547673956754        1.08056144128023
C           -2.43785002171175       -3.01016944127445        1.98340912124295
C           -1.37909887136644       -2.45266068395025        2.68190334281074
C           -1.03393156821029       -1.13021831406308        2.47961647567402
C           -1.74571922577721       -0.36702499328782        1.55921152049462
C            0.08649610555025        2.77637675196464        0.70285462535561
C            1.35346891881566        3.16736918509898        0.36687843459698
C            2.40971033808137        2.23319438915472        0.25493691009947
C            2.92012803951527       -1.38846550632109        1.09142278535277
C            2.96577802323115       -1.43922655201794        2.46782513883837
C            2.66347135301007       -2.63894808067026        3.09833293788682
C            2.31927856894765       -3.76117685452453        2.36008726377253
C            2.27611311483742       -3.71641236738446        0.97549754068340
C            2.57987306734796       -2.52349955207805        0.34087171574371
C            2.61908365333116       -2.17054723808170       -1.07016944469134
C            2.41596706370176       -2.93477290697440       -2.20736345517741
C            2.55026182124178       -2.32811129139441       -3.44682715334160
C            2.87620513268815       -0.98380272647733       -3.55015773621413
C            3.07614920366989       -0.21102696985236       -2.41383198172486
C            2.94846245188167       -0.81298915002469       -1.18186258391318
H            6.31293490571836        3.24124251201005       -0.00858185998747
H            8.19748273230448        1.66307962474713        0.25522701315194
H            7.74201776090552       -0.75538326287251        0.54513874789067
H            5.42059383842749       -1.57329886995541        0.53254163196737
H            0.60722489514497       -0.56639166592071        0.82296060175526
H           -1.87911803438478        3.30346679726214        2.63405783840586
H           -3.95070924094513        4.63517242652484        2.52156463815769
H           -5.85321930107193        3.84471529600929        1.16204418092897
H           -5.69840349462537        1.71951838822037       -0.06324428877500
H           -4.18621088047302       -0.56854723368740       -2.75766699220526
H           -6.31227919227991       -1.48744819647401       -3.56359959531005
H           -8.12208486254037       -2.01990506388383       -1.97194926989251
H           -7.78317047215172       -1.62060973288240        0.44211398008507
H           -5.65306619845520       -0.69832561817941        1.25021155535984
H           -1.66939724032676       -1.76621480972455       -1.18285654659820
H            0.09973046495958       -1.35894593968867       -2.82557723507280
H            0.36890957180385        0.87420386387884       -3.83505275130561
H           -1.20449726015348        2.68383852951548       -3.23337158835032
H           -2.98219247046743        2.27883194633940       -1.59873308147223
H           -3.97511619030404       -2.69118465877723        0.52873955445847
H           -2.70232078938465       -4.04507804312308        2.13765051216112
H           -0.81925363111385       -3.04695051251819        3.38743670969650
H           -0.22243426545693       -0.68284827980854        3.03315865584249
H           -0.70020714406643        3.51271490060630        0.73804481785807
H            1.57842802334589        4.20406009894338        0.17007072169005
H            3.23139647069412       -0.56296157455164        3.04134259033028
H            2.69585136285322       -2.69849242492863        4.17655949403867
H            2.08481436722612       -4.68373912036249        2.87146402978273
H            2.00901562165847       -4.59384804564184        0.40530636457653
H            2.16473903169340       -3.98270221987976       -2.13229430497436
H            2.40107490602937       -2.91029503440014       -4.34498965345140
H            2.97948384072131       -0.53476569981301       -4.52717353267636
H            3.33364355879882        0.83481441035653       -2.49295427279349

 projected vibrational frequencies (cm⁻¹)
eigval :       -0.00    -0.00    -0.00     0.00     0.00     0.00
eigval :       10.83    19.06    23.99    27.03    34.62    44.44
eigval :       48.75    50.18    52.22    61.95    63.40    80.09
eigval :       84.27    87.13    92.36    95.53   114.86   126.04
eigval :      138.28   146.35   162.57   168.21   182.23   207.48
eigval :      219.10   229.05   238.38   240.38   251.34   259.73
eigval :      268.51   278.24   286.61   292.15   298.29   306.19
eigval :      319.77   328.74   341.95   357.34   373.84   375.96
eigval :      387.71   393.73   401.81   411.28   413.73   419.83
eigval :      443.57   448.94   455.90   458.00   469.72   473.33
eigval :      474.92   490.40   502.37   507.16   509.20   517.23
eigval :      535.02   542.93   552.52   585.20   588.03   588.60
eigval :      589.03   597.56   602.86   603.96   609.27   613.09
eigval :      618.73   635.37   639.98   661.49   673.04   673.68
eigval :      675.89   684.11   690.09   694.67   704.46   715.47
eigval :      727.36   751.23   755.59   756.51   763.52   764.44
eigval :      773.88   779.14   782.72   786.53   797.11   848.17
eigval :      859.45   873.77   878.43   879.60   880.67   882.44
eigval :      882.81   886.99   890.80   892.27   898.46   902.42
eigval :      902.71   906.76   907.96   910.04   910.80   911.72
eigval :      912.16   919.08   920.66   922.57   926.43   927.53
eigval :      928.50   930.62   931.12   933.27   933.88   935.77
eigval :      936.59   938.51   985.93  1001.87  1004.49  1008.19
eigval :     1071.33  1073.77  1078.92  1087.46  1088.43  1091.14
eigval :     1091.31  1092.21  1109.83  1110.47  1119.89  1126.36
eigval :     1129.77  1131.28  1142.10  1170.00  1172.62  1173.74
eigval :     1175.18  1177.94  1180.01  1181.06  1181.95  1182.27
eigval :     1190.76  1195.23  1198.90  1200.82  1203.24  1204.26
eigval :     1210.02  1212.40  1222.08  1228.83  1241.81  1247.83
eigval :     1251.72  1258.66  1261.63  1263.11  1266.59  1283.05
eigval :     1284.18  1288.00  1290.71  1314.86  1319.00  1319.81
eigval :     1324.96  1326.09  1330.32  1334.91  1347.45  1366.66
eigval :     1395.71  1416.94  1426.53  1428.36  1429.79  1430.27
eigval :     1432.31  1433.97  1438.14  1441.96  1444.47  1457.63
eigval :     1459.69  1463.15  1469.62  1472.05  1474.38  1477.87
eigval :     1529.57  1540.70  1562.62  1566.36  1568.74  1573.43
eigval :     1584.37  1584.56  1588.79  1589.52  1595.24  1600.17
eigval :     1600.93  1603.05  1603.34  3069.73  3070.29  3070.88
eigval :     3071.56  3073.92  3076.51  3077.43  3077.69  3078.59
eigval :     3080.53  3083.05  3083.79  3085.68  3086.08  3086.30
eigval :     3087.36  3089.67  3089.90  3090.37  3090.52  3091.45
eigval :     3092.23  3095.84  3096.49  3096.77  3097.39  3098.33
eigval :     3100.00  3103.57  3104.30  3105.14  3105.72  3108.42

   temp. (K)  partition function   enthalpy   heat capacity  entropy
                                   cal/mol     cal/K/mol   cal/K/mol   J/K/mol
 298.15  VIB  0.451E+18            24038.275    156.113    147.750
         ROT  0.611E+08              888.752      2.981     38.610
         INT  0.276E+26            24927.028    159.093    186.360
         TR   0.170E+29             1481.254      4.968     45.393
         TOT                       26408.2815   164.0616   231.7527   969.6534

       T/K    H(0)-H(T)+PV         H(T)/Eh          T*S/Eh         G(T)/Eh
   ------------------------------------------------------------------------
    298.15    0.420843E-01    0.702091E+00    0.110113E+00    0.591978E+00
   ------------------------------------------------------------------------

         :::::::::::::::::::::::::::::::::::::::::::::::::::::
         ::                  THERMODYNAMIC                  ::
         :::::::::::::::::::::::::::::::::::::::::::::::::::::
         :: total free energy        -132.391460968906 Eh   ::
         ::.................................................::
         :: total energy             -132.983438811711 Eh   ::
         :: zero point energy           0.660006770531 Eh   ::
         :: G(RRHO) w/o ZPVE           -0.068028927726 Eh   ::
         :: G(RRHO) contrib.            0.591977842805 Eh   ::
         :::::::::::::::::::::::::::::::::::::::::::::::::::::

           -------------------------------------------------
          | TOTAL ENERGY             -132.983438811711 Eh   |
          | TOTAL ENTHALPY           -132.281347765825 Eh   |
          | TOTAL FREE ENERGY        -132.391460968906 Eh   |
          | GRADIENT NORM               0.000053958888 Eh/α |
           -------------------------------------------------

 * finished run on 2025/08/29 at 20:03:10.398
