   * xtb version 6.7.1 (edcfbbe) compiled by 'albert@albert-system' on 2024-07-22

   ID    Z sym.   atoms
    1    8 O      1, 10, 22, 30, 38, 46
    2    6 C      2-9, 11-13, 15-21, 23-29, 31-37, 39-45, 47-49
    3    7 N      14
    4    1 H      50-70

          program call               : xtb data2507/toluene/NAQ3/NAQ3_toluene_S0_finalOpt.xtbopt.xyz --gfn 2 --uhf 2 --gbsa toluene --ohess vtight --parallel 40 --molden --ceasefiles --namespace data2507/toluene/NAQ3/NAQ3_toluene_T1_preOpt
      * Solvation model:               GBSA
        Solvent                        toluene
        Solvent mass                       9.2140E+01 g/mol
          :  Hamiltonian                  GFN2-xTB          :
 * total energy  :  -127.9676810 Eh     change       -0.2196734E-07 Eh
 * total energy  :  -127.9687407 Eh     change       -0.1059686E-02 Eh
 * total energy  :  -127.9689902 Eh     change       -0.2494731E-03 Eh
 * total energy  :  -127.9690326 Eh     change       -0.4243222E-04 Eh
 * total energy  :  -127.9690499 Eh     change       -0.1733368E-04 Eh
 * total energy  :  -127.9690562 Eh     change       -0.6225275E-05 Eh
 * total energy  :  -127.9690588 Eh     change       -0.2634547E-05 Eh
 * total energy  :  -127.9690604 Eh     change       -0.1573045E-05 Eh
 * total energy  :  -127.9690613 Eh     change       -0.9119524E-06 Eh
 * total energy  :  -127.9690625 Eh     change       -0.1266798E-05 Eh
 * total energy  :  -127.9690693 Eh     change       -0.8977512E-06 Eh
 * total energy  :  -127.9690702 Eh     change       -0.9472300E-06 Eh
 * total energy  :  -127.9690709 Eh     change       -0.7223391E-06 Eh
 * total energy  :  -127.9690713 Eh     change       -0.3943421E-06 Eh
 * total energy  :  -127.9690712 Eh     change        0.1475188E-06 Eh
 * total energy  :  -127.9690713 Eh     change       -0.1465093E-06 Eh
 * total energy  :  -127.9690715 Eh     change       -0.1957391E-06 Eh
 * total energy  :  -127.9690716 Eh     change       -0.1191248E-06 Eh
 * total energy  :  -127.9690717 Eh     change       -0.9161744E-07 Eh
   *** GEOMETRY OPTIMIZATION CONVERGED AFTER 25 ITERATIONS ***

 final structure:
================
70
 xtb: 6.7.1 (edcfbbe)
O           -3.57452574252087       -5.09508096554498       -1.77120677148203
C           -3.75208111810894       -4.16828166472641       -0.98243518836743
C           -5.03908846332889       -3.94446651395794       -0.30987876699872
C           -6.09565985160108       -4.81730982501655       -0.57964833300091
C           -7.32617000622256       -4.64282546782580        0.02034061678619
C           -7.52445688026582       -3.58935491226503        0.90614963231151
C           -6.49146700871230       -2.71757532515614        1.18338320202801
C           -5.23849059485745       -2.88211166418749        0.58695440299650
C           -4.17188388333043       -1.93404985449204        0.92495956186064
O           -4.33465070330804       -1.00702148066124        1.71383453969822
C           -2.87826215057533       -2.16012085123715        0.25344334336226
C           -1.83599230234881       -1.28250048580695        0.51919594133841
C           -0.58839037958192       -1.44765062551532       -0.08038206928022
N            0.43811555673038       -0.55177503117698        0.20142358990278
C            0.13450854490824        0.79474884332835        0.39762361114863
C            0.81411068260520        1.55283313378334        1.36651702720815
C            0.48552486149345        2.87278184311399        1.55615190747332
C           -0.52895002085057        3.48376144626521        0.80919121232758
C           -1.18897949775473        2.73648302484180       -0.18129024684259
C           -0.85489396453934        1.40245428667212       -0.37257696185245
C           -2.24000007534336        3.32550715639112       -1.03408380000860
O           -2.79825697004843        2.67129914380020       -1.90952634558161
C           -2.56871632817079        4.72986564983105       -0.76461868125161
C           -3.56544281674566        5.34160269420365       -1.52859693396167
C           -3.90663028487306        6.66217749983328       -1.31656146798666
C           -3.25843390836266        7.39727430861093       -0.33056891919707
C           -2.27198478956234        6.80693656188647        0.43389351953033
C           -1.91428560741176        5.47239759607374        0.23200698433839
C           -0.86358117487965        4.88846683888053        1.07803701895467
O           -0.29023765093774        5.53377384804666        1.95256174949918
C            1.75467916731413       -0.99040398001551        0.27466461455681
C            2.05852494159315       -2.27850424529403        0.75425158896809
C            3.36384761610706       -2.69929405732364        0.80950877065289
C            4.41565350951303       -1.86263554830044        0.41522098298590
C            4.11529075380988       -0.58164164564629       -0.08017894450548
C            2.79392261432893       -0.15891405700940       -0.14109241812740
C            5.16930022700029        0.34100770144435       -0.54600281249927
O            4.89953370549854        1.45414747827807       -0.98757586284897
C            6.54508078508154       -0.15779475567301       -0.44426012367413
C            7.58941350037372        0.67311261692098       -0.85780616784184
C            8.89999056123752        0.24574750452273       -0.79115089973018
C            9.19303768810257       -1.02343550324965       -0.30462643349775
C            8.17303898218024       -1.85538212537841        0.11104668658147
C            6.84167698375369       -1.43834283562788        0.05121541223501
C            5.79393781258429       -2.35653115334592        0.51862531826836
O            6.04909958493107       -3.47541372941547        0.95977962547861
C           -0.38627544437020       -2.53112882910203       -0.95536256705703
C           -1.41462447213570       -3.40255806241335       -1.21540689768902
C           -2.68044350768134       -3.22637779512442       -0.64202605479361
H           -5.91870705756237       -5.62700628205251       -1.27257268691192
H           -8.13349343113104       -5.32492981493460       -0.19939650225453
H           -8.48510815950659       -3.45270323561164        1.37926331461420
H           -6.62116798469870       -1.89247462824418        1.86854070804335
H           -2.01091984375694       -0.48217533655252        1.22336605802675
H            1.56895742728966        1.08460328377037        1.97925254627532
H            0.98264023837617        3.46729417211741        2.30830491747086
H           -1.36767028565177        0.85434056277024       -1.14972613302701
H           -4.05526445958907        4.75022401023325       -2.28848337212679
H           -4.67570212818167        7.12239995907470       -1.91825979678211
H           -3.52496376274685        8.42947453240817       -0.16114522818921
H           -1.75555287722155        7.35801809707678        1.20631651133403
H            1.26439573534556       -2.91724406049483        1.10870369736188
H            3.61715351414397       -3.67884720942557        1.18725779244065
H            2.59051784451687        0.82124881470635       -0.54721082631554
H            7.33740431240409        1.65420164838980       -1.23336853955118
H            9.69594055796062        0.89733773031184       -1.11857674519513
H           10.21742507774411       -1.35956193810585       -0.25046088100804
H            8.37691582844628       -2.84427142356787        0.49527539306787
H            0.56706088541714       -2.65085277104956       -1.44652642807901
H           -1.28450150482236       -4.22977617635001       -1.89744584956928

          :  Hamiltonian                  GFN2-xTB          :
         :: gradient norm              0.000110581472 Eh/a0 ::
         :: HOMO-LUMO gap              0.016123536578 eV    ::
         :: SCC energy              -130.019377445266 Eh    ::
         :: -> dispersion             -0.099944337561 Eh    ::
         :: -> Gsolv                  -0.067633965153 Eh    ::
         :: repulsion energy           2.050305706159 Eh    ::

    * Orbital Energies and Occupations

         #    Occupation            Energy/Eh            Energy/eV
      -------------------------------------------------------------
         1        2.0000           -0.7204330             -19.6040
       ...           ...                  ...                  ...
       104        2.0000           -0.4312004             -11.7336
       105        2.0000           -0.4310450             -11.7293
       106        2.0000           -0.4298014             -11.6955
       107        2.0000           -0.4296790             -11.6922
       108        2.0000           -0.4296511             -11.6914
       109        2.0000           -0.4189794             -11.4010
       110        2.0000           -0.4188217             -11.3967
       111        2.0000           -0.4185938             -11.3905
       112        1.9954           -0.4037229             -10.9859
       113        1.9650           -0.4017651             -10.9326
       114        1.9232           -0.4009773             -10.9111
       115        1.1165           -0.3966905             -10.7945
       116        0.5755           -0.3381135              -9.2005 (HOMO)
       117        0.4209           -0.3375209              -9.1844 (LUMO)
       118        0.0036           -0.3324838              -9.0473
       119                         -0.2928012              -7.9675
       120                         -0.2909266              -7.9165
       121                         -0.2846129              -7.7447
       122                         -0.2643197              -7.1925
       123                         -0.2632416              -7.1632
       124                         -0.2548509              -6.9348
       125                         -0.2533725              -6.8946
       126                         -0.2525530              -6.8723
       127                         -0.2442557              -6.6465
       ...                                ...                  ...
       217                          0.7054669              19.1967
      -------------------------------------------------------------
                  HL-Gap            0.0005926 Eh            0.0161 eV

     #   Z          covCN         q      C6AA      α(0)
     1   8 O        0.858    -0.414    21.963     6.283
     2   6 C        2.832     0.217    23.425     7.931
     3   6 C        2.975    -0.013    28.322     8.730
     4   6 C        2.923    -0.013    28.340     8.730
     5   6 C        2.917    -0.018    28.450     8.747
     6   6 C        2.917    -0.018    28.460     8.748
     7   6 C        2.923    -0.013    28.335     8.729
     8   6 C        2.975    -0.013    28.344     8.733
     9   6 C        2.833     0.219    23.388     7.925
    10   8 O        0.858    -0.413    21.947     6.281
    11   6 C        2.973    -0.008    28.207     8.712
    12   6 C        2.926    -0.024    28.601     8.770
    13   6 C        2.927     0.064    26.561     8.452
    14   7 N        2.754     0.022    20.873     6.785
    15   6 C        2.927     0.065    26.555     8.451
    16   6 C        2.917    -0.031    28.772     8.796
    17   6 C        2.921    -0.009    28.240     8.714
    18   6 C        2.974    -0.008    28.222     8.714
    19   6 C        2.973    -0.007    28.200     8.711
    20   6 C        2.925    -0.024    28.593     8.769
    21   6 C        2.832     0.220    23.367     7.921
    22   8 O        0.858    -0.411    21.902     6.275
    23   6 C        2.974    -0.013    28.345     8.733
    24   6 C        2.923    -0.013    28.330     8.729
    25   6 C        2.917    -0.018    28.451     8.747
    26   6 C        2.917    -0.017    28.440     8.745
    27   6 C        2.923    -0.013    28.335     8.729
    28   6 C        2.974    -0.013    28.323     8.730
    29   6 C        2.831     0.218    23.400     7.927
    30   8 O        0.858    -0.412    21.918     6.277
    31   6 C        2.925     0.065    26.548     8.450
    32   6 C        2.917    -0.033    28.821     8.803
    33   6 C        2.921    -0.009    28.249     8.716
    34   6 C        2.974    -0.009    28.241     8.717
    35   6 C        2.973    -0.007    28.203     8.711
    36   6 C        2.925    -0.025    28.638     8.776
    37   6 C        2.832     0.219    23.386     7.925
    38   8 O        0.858    -0.412    21.916     6.277
    39   6 C        2.974    -0.014    28.352     8.734
    40   6 C        2.923    -0.013    28.337     8.730
    41   6 C        2.917    -0.018    28.457     8.748
    42   6 C        2.917    -0.018    28.447     8.746
    43   6 C        2.923    -0.013    28.342     8.730
    44   6 C        2.974    -0.013    28.331     8.731
    45   6 C        2.831     0.217    23.417     7.930
    46   8 O        0.858    -0.415    21.975     6.285
    47   6 C        2.916    -0.033    28.824     8.804
    48   6 C        2.921    -0.009    28.249     8.716
    49   6 C        2.974    -0.009    28.239     8.717
    50   1 H        0.926     0.065     2.138     2.287
    51   1 H        0.926     0.062     2.171     2.304
    52   1 H        0.926     0.062     2.174     2.306
    53   1 H        0.926     0.064     2.154     2.295
    54   1 H        0.926     0.075     2.030     2.228
    55   1 H        0.926     0.074     2.044     2.236
    56   1 H        0.926     0.081     1.968     2.194
    57   1 H        0.926     0.076     2.019     2.222
    58   1 H        0.926     0.065     2.147     2.291
    59   1 H        0.926     0.063     2.168     2.303
    60   1 H        0.926     0.063     2.165     2.301
    61   1 H        0.926     0.066     2.134     2.284
    62   1 H        0.926     0.075     2.030     2.228
    63   1 H        0.926     0.081     1.964     2.191
    64   1 H        0.926     0.077     2.010     2.217
    65   1 H        0.926     0.064     2.150     2.293
    66   1 H        0.926     0.062     2.181     2.309
    67   1 H        0.926     0.062     2.180     2.309
    68   1 H        0.926     0.065     2.143     2.289
    69   1 H        0.926     0.076     2.025     2.225
    70   1 H        0.926     0.082     1.962     2.190

molecular dipole:
                 x           y           z       tot (Debye)
 q only:        0.112      -0.132       0.083
   full:        0.094      -0.094       0.068       0.379

 projected vibrational frequencies (cm⁻¹)
eigval :       -0.00    -0.00    -0.00    -0.00     0.00     0.00
eigval :       13.68    15.52    17.99    21.60    24.67    32.80
eigval :       35.90    39.75    42.03    83.52    94.10   101.76
eigval :      107.83   110.13   111.07   123.85   134.45   136.08
eigval :      146.67   149.45   159.06   164.98   187.63   201.40
eigval :      215.16   245.55   254.94   259.36   273.50   276.42
eigval :      294.87   307.24   318.53   355.09   361.34   367.82
eigval :      368.77   371.66   374.57   383.41   386.46   390.78
eigval :      395.15   403.45   404.70   405.49   410.51   413.91
eigval :      425.29   437.86   449.34   455.74   474.04   475.10
eigval :      500.66   507.93   514.07   538.72   580.68   584.96
eigval :      600.41   604.36   607.88   612.05   615.55   620.05
eigval :      629.60   652.63   654.63   658.78   660.47   661.84
eigval :      673.81   677.02   677.59   681.20   682.76   684.46
eigval :      688.66   755.18   755.90   756.58   765.40   769.23
eigval :      780.06   783.09   786.02   817.05   828.08   833.08
eigval :      838.18   869.60   875.03   882.14   885.31   887.00
eigval :      887.90   890.21   895.23   915.72   919.48   920.81
eigval :      923.58   923.96   926.06   926.63   928.87   929.03
eigval :      931.86   945.10   945.97   977.61  1011.87  1025.37
eigval :     1079.60  1080.35  1080.89  1082.36  1082.79  1083.61
eigval :     1114.99  1115.64  1117.71  1145.55  1145.99  1150.68
eigval :     1166.55  1167.92  1169.40  1176.47  1177.71  1178.22
eigval :     1211.63  1213.69  1215.25  1222.58  1223.47  1226.64
eigval :     1232.43  1236.11  1237.52  1247.47  1248.39  1251.15
eigval :     1256.22  1261.76  1272.62  1309.22  1313.52  1337.94
eigval :     1341.40  1345.64  1351.63  1386.53  1395.98  1400.48
eigval :     1409.16  1409.76  1410.11  1421.11  1422.40  1430.86
eigval :     1436.63  1437.58  1447.52  1498.57  1501.99  1513.29
eigval :     1514.23  1519.76  1535.27  1536.79  1538.43  1554.73
eigval :     1555.50  1555.75  1556.36  1556.86  1557.61  1605.37
eigval :     1607.70  1610.65  1619.02  3083.64  3084.03  3084.03
eigval :     3086.81  3087.07  3087.08  3090.65  3090.98  3091.74
eigval :     3091.85  3092.39  3092.72  3092.78  3093.07  3093.32
eigval :     3099.08  3099.60  3099.79  3100.83  3102.04  3102.49

   temp. (K)  partition function   enthalpy   heat capacity  entropy
                                   cal/mol     cal/K/mol   cal/K/mol   J/K/mol
 298.15  VIB  0.115E+18            22173.689    138.490    136.361
         ROT  0.109E+09              888.752      2.981     39.764
         INT  0.126E+26            23062.441    141.471    176.125
         TR   0.155E+29             1481.254      4.968     45.210
         TOT                       24543.6951   146.4387   221.3353   926.0667

       T/K    H(0)-H(T)+PV         H(T)/Eh          T*S/Eh         G(T)/Eh
   ------------------------------------------------------------------------
    298.15    0.391129E-01    0.531743E+00    0.105164E+00    0.426580E+00
   ------------------------------------------------------------------------

         :::::::::::::::::::::::::::::::::::::::::::::::::::::
         ::                  THERMODYNAMIC                  ::
         :::::::::::::::::::::::::::::::::::::::::::::::::::::
         :: total free energy        -127.542492183064 Eh   ::
         ::.................................................::
         :: total energy             -127.969071735059 Eh   ::
         :: zero point energy           0.492630208435 Eh   ::
         :: G(RRHO) w/o ZPVE           -0.066050656440 Eh   ::
         :: G(RRHO) contrib.            0.426579551995 Eh   ::
         :::::::::::::::::::::::::::::::::::::::::::::::::::::

           -------------------------------------------------
          | TOTAL ENERGY             -127.969071735059 Eh   |
          | TOTAL ENTHALPY           -127.437328658763 Eh   |
          | TOTAL FREE ENERGY        -127.542492183064 Eh   |
          | GRADIENT NORM               0.000116700812 Eh/α |
          | HOMO-LUMO GAP               0.016125930195 eV   |
           -------------------------------------------------

 * finished run on 2025/08/21 at 17:42:07.082
