   * xtb version 6.7.1 (edcfbbe) compiled by 'albert@albert-system' on 2024-07-22

   ID    Z sym.   atoms
    1    8 O      1, 10, 22, 30, 38, 46
    2    6 C      2-9, 11-13, 15-21, 23-29, 31-37, 39-45, 47-49
    3    7 N      14
    4    1 H      50-70

          program call               : xtb data2507/toluene/NAQ3/NAQ3_toluene_T1_crest.xyz --gfn 2 --uhf 2 --gbsa toluene --ohess vtight --parallel 40 --molden --ceasefiles --namespace data2507/toluene/NAQ3/NAQ3_toluene_T1_finalOpt
      * Solvation model:               GBSA
        Solvent                        toluene
        Solvent mass                       9.2140E+01 g/mol
          :  Hamiltonian                  GFN2-xTB          :
 * total energy  :  -127.9686928 Eh     change       -0.4401699E-08 Eh
 * total energy  :  -127.9689373 Eh     change       -0.2444625E-03 Eh
 * total energy  :  -127.9689979 Eh     change       -0.6062994E-04 Eh
 * total energy  :  -127.9690086 Eh     change       -0.1073411E-04 Eh
 * total energy  :  -127.9690136 Eh     change       -0.4990822E-05 Eh
 * total energy  :  -127.9690186 Eh     change       -0.4968582E-05 Eh
 * total energy  :  -127.9690231 Eh     change       -0.4536885E-05 Eh
 * total energy  :  -127.9690291 Eh     change       -0.5952648E-05 Eh
 * total energy  :  -127.9690369 Eh     change       -0.7829111E-05 Eh
 * total energy  :  -127.9690435 Eh     change       -0.6601611E-05 Eh
 * total energy  :  -127.9690689 Eh     change       -0.1571334E-05 Eh
 * total energy  :  -127.9690698 Eh     change       -0.9017788E-06 Eh
 * total energy  :  -127.9690701 Eh     change       -0.3491635E-06 Eh
 * total energy  :  -127.9690700 Eh     change        0.8447059E-07 Eh
 * total energy  :  -127.9690702 Eh     change       -0.1308103E-06 Eh
 * total energy  :  -127.9690703 Eh     change       -0.1634727E-06 Eh
 * total energy  :  -127.9690705 Eh     change       -0.1372864E-06 Eh
 * total energy  :  -127.9690705 Eh     change       -0.1257732E-07 Eh
 * total energy  :  -127.9690706 Eh     change       -0.8741083E-07 Eh
   *** GEOMETRY OPTIMIZATION CONVERGED AFTER 26 ITERATIONS ***

 final structure:
================
70
 xtb: 6.7.1 (edcfbbe)
O           -3.55775504422469       -5.10958883794690       -1.76700835464722
C           -3.73809991781033       -4.18200876213389       -0.97973666269841
C           -5.02573995780613       -3.96085449627524       -0.30763657336696
C           -6.08010839804504       -4.83650295213070       -0.57696851187350
C           -7.31119324950045       -4.66458381812793        0.02255840166637
C           -7.51219447103706       -3.61100174942402        0.90763527171355
C           -6.48138044910289       -2.73653437954577        1.18451046701715
C           -5.22790451272667       -2.89828453544189        0.58835544319214
C           -4.16379169672732       -1.94712945039576        0.92552135228466
O           -4.32880722593989       -1.02026620856510        1.71416360971658
C           -2.86978883706392       -2.16991265330438        0.25366252176545
C           -1.82997578718405       -1.28891378051463        0.51800026279302
C           -0.58214594855006       -1.45107893331815       -0.08189014312347
N            0.44203760787430       -0.55216454666378        0.19876357491417
C            0.13465082633794        0.79368314030141        0.39375306183410
C            0.81117108899069        1.55414019208819        1.36295518541900
C            0.47832219895683        2.87309350656801        1.55191093712730
C           -0.53725787670718        3.48075681417037        0.80370829968752
C           -1.19380744993607        2.73129637674574       -0.18743577246101
C           -0.85572191638753        1.39811723284521       -0.37772820794061
C           -2.24513979505221        3.31713666687053       -1.04198177581967
O           -2.80020939401546        2.66113821746057       -1.91812886761617
C           -2.57876369707056        4.72036920342494       -0.77285343681863
C           -3.57642753894706        5.32895597263501       -1.53814679810571
C           -3.92257818856089        6.64821463689472       -1.32609583375507
C           -3.27843878536224        7.38520161263158       -0.33884666625411
C           -2.29093507199321        6.79809704861714        0.42671550949424
C           -1.92829067735113        5.46486976199534        0.22488713221498
C           -0.87667543026964        4.88437765842355        1.07210510448044
O           -0.30650732728954        5.53150820498815        1.94737093003547
C            1.75966026887149       -0.98730661503181        0.27293024984823
C            2.06634866620001       -2.27425556750529        0.75382670583871
C            3.37260580359537       -2.69194853339928        0.81004301924667
C            4.42257733122980       -1.85330592655107        0.41514918689843
C            4.11947494557726       -0.57345548344297       -0.08151234532035
C            2.79716317167487       -0.15371239342709       -0.14306218144683
C            5.17168899430487        0.35086636545720       -0.54827821340687
O            4.89975907293268        1.46325564790356       -0.99032765420606
C            6.54849674663132       -0.14530129022304       -0.44668730483236
C            7.59110226486398        0.68688442533364       -0.86199231002122
C            8.90250186299376        0.26195162678614       -0.79557270467582
C            9.19815631508248       -1.00599449280332       -0.30743147412217
C            8.17988723438748       -1.83919142297963        0.10999044024683
C            6.84774859176751       -1.42465287678625        0.05029202318338
C            5.80192546513111       -2.34420307858277        0.51925433869789
O            6.05934564845268       -3.46180530522045        0.96227046090622
C           -0.37723204724385       -2.53482589237368       -0.95591905308628
C           -1.40312381356068       -3.40950443767359       -1.21463386242067
C           -2.66918659001871       -3.23650658993699       -0.64080713558272
H           -5.90093632953984       -5.64625569562673       -1.26926042868152
H           -8.11683286413518       -5.34875260142957       -0.19694002722331
H           -8.47328009638602       -3.47632805152300        1.38044145280801
H           -6.61333086320670       -1.91131799911983        1.86910070561168
H           -2.00696042627383       -0.48834678933093        1.22138930751722
H            1.56680766181517        1.08826035586357        1.97651469662275
H            0.97271906022152        3.46938626950234        2.30444833446162
H           -1.36609573492992        0.84815694251062       -1.15515809063906
H           -4.06296126789516        4.73614761567480       -2.29903906539046
H           -4.69246087200281        7.10588498599677       -1.92869870540715
H           -3.54900151585713        8.41632665993715       -0.16926307068708
H           -1.77751756331321        7.35066745414474        1.20008950222479
H            1.27355507158022       -2.91451574329313        1.10852566977158
H            3.62804381438033       -3.67054037602103        1.18883984286962
H            2.59168136922615        0.82568576228885       -0.54999775637807
H            7.33716520502236        1.66697604175610       -1.23885830344202
H            9.69707578068928        0.91446433032259       -1.12449174084828
H           10.22318134319834       -1.34018176674692       -0.25334468850631
H            8.38576070860890       -2.82717865968063        0.49547244016579
H            0.57626412224028       -2.65224435464620       -1.44732562107051
H           -1.27097063571228       -4.23702622509373       -1.89591625049411

          :  Hamiltonian                  GFN2-xTB          :
         :: gradient norm              0.000104838278 Eh/a0 ::
         :: HOMO-LUMO gap              0.016167210161 eV    ::
         :: SCC energy              -130.019362983990 Eh    ::
         :: -> dispersion             -0.099939574509 Eh    ::
         :: -> Gsolv                  -0.067633202311 Eh    ::
         :: repulsion energy           2.050292409043 Eh    ::

    * Orbital Energies and Occupations

         #    Occupation            Energy/Eh            Energy/eV
      -------------------------------------------------------------
         1        2.0000           -0.7204297             -19.6039
       ...           ...                  ...                  ...
       104        2.0000           -0.4312040             -11.7337
       105        2.0000           -0.4310445             -11.7293
       106        2.0000           -0.4298069             -11.6956
       107        2.0000           -0.4296800             -11.6922
       108        2.0000           -0.4296503             -11.6914
       109        2.0000           -0.4189803             -11.4010
       110        2.0000           -0.4188280             -11.3969
       111        2.0000           -0.4185926             -11.3905
       112        1.9954           -0.4037276             -10.9860
       113        1.9650           -0.4017692             -10.9327
       114        1.9231           -0.4009792             -10.9112
       115        1.1165           -0.3966925             -10.7946
       116        0.5757           -0.3381179              -9.2007 (HOMO)
       117        0.4207           -0.3375240              -9.1845 (LUMO)
       118        0.0036           -0.3324885              -9.0475
       119                         -0.2927982              -7.9674
       120                         -0.2909299              -7.9166
       121                         -0.2846125              -7.7447
       122                         -0.2643256              -7.1927
       123                         -0.2632434              -7.1632
       124                         -0.2548515              -6.9349
       125                         -0.2533732              -6.8946
       126                         -0.2525577              -6.8724
       127                         -0.2442603              -6.6467
       ...                                ...                  ...
       217                          0.7054521              19.1963
      -------------------------------------------------------------
                  HL-Gap            0.0005939 Eh            0.0162 eV

     #   Z          covCN         q      C6AA      α(0)
     1   8 O        0.858    -0.414    21.964     6.283
     2   6 C        2.832     0.217    23.425     7.931
     3   6 C        2.975    -0.013    28.322     8.730
     4   6 C        2.923    -0.013    28.340     8.730
     5   6 C        2.917    -0.018    28.450     8.747
     6   6 C        2.917    -0.018    28.460     8.748
     7   6 C        2.923    -0.013    28.335     8.729
     8   6 C        2.975    -0.013    28.344     8.733
     9   6 C        2.833     0.219    23.389     7.925
    10   8 O        0.858    -0.413    21.947     6.281
    11   6 C        2.973    -0.008    28.207     8.712
    12   6 C        2.926    -0.024    28.600     8.770
    13   6 C        2.927     0.064    26.561     8.452
    14   7 N        2.754     0.022    20.873     6.785
    15   6 C        2.927     0.065    26.555     8.451
    16   6 C        2.917    -0.031    28.772     8.796
    17   6 C        2.921    -0.009    28.240     8.714
    18   6 C        2.974    -0.008    28.222     8.714
    19   6 C        2.973    -0.007    28.200     8.711
    20   6 C        2.925    -0.024    28.593     8.769
    21   6 C        2.832     0.220    23.367     7.921
    22   8 O        0.858    -0.411    21.902     6.275
    23   6 C        2.974    -0.013    28.345     8.733
    24   6 C        2.923    -0.013    28.330     8.729
    25   6 C        2.917    -0.018    28.451     8.747
    26   6 C        2.917    -0.017    28.440     8.745
    27   6 C        2.923    -0.013    28.335     8.729
    28   6 C        2.974    -0.013    28.323     8.730
    29   6 C        2.831     0.218    23.400     7.927
    30   8 O        0.858    -0.412    21.918     6.277
    31   6 C        2.925     0.065    26.548     8.450
    32   6 C        2.917    -0.033    28.821     8.803
    33   6 C        2.921    -0.009    28.249     8.716
    34   6 C        2.974    -0.009    28.241     8.717
    35   6 C        2.973    -0.007    28.202     8.711
    36   6 C        2.925    -0.025    28.638     8.776
    37   6 C        2.832     0.219    23.385     7.924
    38   8 O        0.858    -0.412    21.915     6.276
    39   6 C        2.974    -0.014    28.352     8.734
    40   6 C        2.923    -0.013    28.337     8.730
    41   6 C        2.917    -0.018    28.457     8.748
    42   6 C        2.917    -0.018    28.447     8.746
    43   6 C        2.923    -0.013    28.342     8.730
    44   6 C        2.974    -0.013    28.331     8.731
    45   6 C        2.831     0.217    23.417     7.930
    46   8 O        0.858    -0.415    21.975     6.285
    47   6 C        2.916    -0.033    28.824     8.804
    48   6 C        2.921    -0.009    28.249     8.716
    49   6 C        2.974    -0.009    28.239     8.717
    50   1 H        0.926     0.065     2.138     2.287
    51   1 H        0.926     0.062     2.171     2.304
    52   1 H        0.926     0.062     2.174     2.306
    53   1 H        0.926     0.064     2.154     2.295
    54   1 H        0.926     0.075     2.030     2.228
    55   1 H        0.926     0.074     2.044     2.236
    56   1 H        0.926     0.081     1.968     2.194
    57   1 H        0.926     0.076     2.019     2.222
    58   1 H        0.926     0.065     2.147     2.291
    59   1 H        0.926     0.063     2.168     2.303
    60   1 H        0.926     0.063     2.165     2.301
    61   1 H        0.926     0.066     2.134     2.284
    62   1 H        0.926     0.075     2.030     2.228
    63   1 H        0.926     0.081     1.964     2.191
    64   1 H        0.926     0.077     2.010     2.217
    65   1 H        0.926     0.064     2.150     2.293
    66   1 H        0.926     0.062     2.181     2.309
    67   1 H        0.926     0.062     2.180     2.309
    68   1 H        0.926     0.065     2.143     2.289
    69   1 H        0.926     0.076     2.025     2.225
    70   1 H        0.926     0.082     1.962     2.190

molecular dipole:
                 x           y           z       tot (Debye)
 q only:        0.113      -0.131       0.079
   full:        0.095      -0.093       0.064       0.376

 projected vibrational frequencies (cm⁻¹)
eigval :       -0.00    -0.00     0.00     0.00     0.00     0.00
eigval :       13.72    15.62    17.55    21.83    24.69    32.68
eigval :       35.75    39.69    41.89    83.53    93.98   101.76
eigval :      107.92   109.86   111.05   123.96   134.34   136.08
eigval :      146.66   149.42   158.82   164.96   187.41   201.49
eigval :      214.99   245.46   254.93   259.39   273.51   276.51
eigval :      294.76   307.40   318.69   355.16   361.34   367.98
eigval :      368.68   371.66   374.57   383.42   386.50   390.78
eigval :      395.19   403.24   404.64   405.49   410.60   413.93
eigval :      425.21   437.85   449.20   455.74   474.12   475.06
eigval :      500.56   507.89   514.15   538.67   580.68   584.94
eigval :      600.39   604.36   607.94   612.01   615.52   620.04
eigval :      629.65   652.63   654.62   658.85   660.39   661.74
eigval :      673.81   677.01   677.62   681.16   682.90   684.42
eigval :      688.63   755.23   755.96   756.60   765.41   769.21
eigval :      780.27   781.00   785.97   817.09   828.28   833.07
eigval :      838.23   869.60   875.07   881.89   884.99   887.06
eigval :      888.16   889.90   895.04   915.82   920.18   920.72
eigval :      923.02   923.61   924.27   926.40   928.65   929.02
eigval :      931.61   945.07   945.98   977.48  1011.79  1025.42
eigval :     1079.65  1080.24  1081.00  1082.35  1082.84  1083.63
eigval :     1114.90  1115.48  1117.54  1145.44  1146.07  1150.40
eigval :     1166.68  1168.11  1169.43  1176.37  1177.38  1178.22
eigval :     1211.79  1213.63  1215.20  1222.75  1223.66  1226.88
eigval :     1232.42  1236.12  1237.56  1246.80  1248.54  1251.13
eigval :     1256.24  1261.65  1273.13  1309.34  1313.56  1337.93
eigval :     1341.40  1345.63  1351.63  1386.48  1395.83  1400.51
eigval :     1409.13  1409.94  1410.04  1421.22  1422.47  1430.70
eigval :     1436.76  1438.10  1447.50  1498.39  1501.86  1513.16
eigval :     1514.26  1519.75  1535.12  1536.87  1538.39  1554.73
eigval :     1555.58  1555.74  1556.37  1556.83  1557.66  1605.24
eigval :     1607.78  1610.64  1619.00  3083.64  3084.01  3084.05
eigval :     3086.82  3087.00  3087.06  3090.60  3090.93  3091.69
eigval :     3091.85  3092.40  3092.69  3092.76  3093.01  3093.27
eigval :     3099.12  3099.59  3099.80  3100.86  3102.00  3102.59

   temp. (K)  partition function   enthalpy   heat capacity  entropy
                                   cal/mol     cal/K/mol   cal/K/mol   J/K/mol
 298.15  VIB  0.117E+18            22176.085    138.489    136.382
         ROT  0.109E+09              888.752      2.981     39.764
         INT  0.128E+26            23064.837    141.470    176.146
         TR   0.155E+29             1481.254      4.968     45.210
         TOT                       24546.0914   146.4382   221.3562   926.1542

       T/K    H(0)-H(T)+PV         H(T)/Eh          T*S/Eh         G(T)/Eh
   ------------------------------------------------------------------------
    298.15    0.391167E-01    0.531731E+00    0.105173E+00    0.426558E+00
   ------------------------------------------------------------------------

         :::::::::::::::::::::::::::::::::::::::::::::::::::::
         ::                  THERMODYNAMIC                  ::
         :::::::::::::::::::::::::::::::::::::::::::::::::::::
         :: total free energy        -127.542512857011 Eh   ::
         ::.................................................::
         :: total energy             -127.969070570514 Eh   ::
         :: zero point energy           0.492614484372 Eh   ::
         :: G(RRHO) w/o ZPVE           -0.066056770869 Eh   ::
         :: G(RRHO) contrib.            0.426557713503 Eh   ::
         :::::::::::::::::::::::::::::::::::::::::::::::::::::

           -------------------------------------------------
          | TOTAL ENERGY             -127.969070570514 Eh   |
          | TOTAL ENTHALPY           -127.437339399581 Eh   |
          | TOTAL FREE ENERGY        -127.542512857011 Eh   |
          | GRADIENT NORM               0.000111014586 Eh/α |
          | HOMO-LUMO GAP               0.016161082977 eV   |
           -------------------------------------------------

 * finished run on 2025/08/21 at 17:48:39.816
