   * xtb version 6.7.1 (edcfbbe) compiled by 'albert@albert-system' on 2024-07-22

   ID    Z sym.   atoms
    1    8 O      1, 10, 22, 30, 38, 46
    2    6 C      2-9, 11-13, 15-21, 23-29, 31-37, 39-45, 47-49
    3    7 N      14
    4    1 H      50-70

          program call               : xtb data2507/toluene/NAQ3/NAQ3.xyz --gfn 2 --gbsa toluene --ohess vtight --parallel 40 --molden --ceasefiles --namespace data2507/toluene/NAQ3/NAQ3_toluene_S0_preOpt
      * Solvation model:               GBSA
        Solvent                        toluene
        Solvent mass                       9.2140E+01 g/mol
          :  Hamiltonian                  GFN2-xTB          :
 * total energy  :  -128.0077613 Eh     change       -0.3651905E-09 Eh
 * total energy  :  -128.0176825 Eh     change       -0.9921250E-02 Eh
 * total energy  :  -128.0221014 Eh     change       -0.4418922E-02 Eh
 * total energy  :  -128.0235254 Eh     change       -0.1423933E-02 Eh
 * total energy  :  -128.0241643 Eh     change       -0.6388999E-03 Eh
 * total energy  :  -128.0243391 Eh     change       -0.1747771E-03 Eh
 * total energy  :  -128.0244267 Eh     change       -0.8769173E-04 Eh
 * total energy  :  -128.0245132 Eh     change       -0.8649042E-04 Eh
 * total energy  :  -128.0246036 Eh     change       -0.9039095E-04 Eh
 * total energy  :  -128.0246917 Eh     change       -0.8812048E-04 Eh
 * total energy  :  -128.0250638 Eh     change       -0.3862364E-05 Eh
 * total energy  :  -128.0250671 Eh     change       -0.3348157E-05 Eh
 * total energy  :  -128.0250691 Eh     change       -0.2014546E-05 Eh
 * total energy  :  -128.0250702 Eh     change       -0.1020563E-05 Eh
 * total energy  :  -128.0250708 Eh     change       -0.6095109E-06 Eh
 * total energy  :  -128.0250713 Eh     change       -0.5202163E-06 Eh
 * total energy  :  -128.0250717 Eh     change       -0.4311207E-06 Eh
 * total energy  :  -128.0250721 Eh     change       -0.3397037E-06 Eh
 * total energy  :  -128.0250721 Eh     change       -0.4979938E-08 Eh
   *** GEOMETRY OPTIMIZATION CONVERGED AFTER 44 ITERATIONS ***

 final structure:
================
70
 xtb: 6.7.1 (edcfbbe)
O           -3.66616878377741       -5.03022156973521       -1.86168202365785
C           -3.82675559948175       -4.10921065197252       -1.07298859773338
C           -5.12649010683637       -3.86603368222666       -0.41256766882935
C           -6.19370468137894       -4.71377512617480       -0.69950704822569
C           -7.42714397228949       -4.52688756195421       -0.10061358407061
C           -7.61044776970995       -3.48478811264399        0.79647825361245
C           -6.55930358496713       -2.63469744615550        1.09047779044779
C           -5.31193974825541       -2.81196805727745        0.49480308330972
C           -4.22043572726295       -1.88250851850221        0.84068550275231
O           -4.37636183776171       -0.95735187475881        1.62267925206243
C           -2.91747825198454       -2.13045912473167        0.18269459363124
C           -1.85764371176791       -1.28761788554472        0.48315307624625
C           -0.60724319607468       -1.46420713103144       -0.10913656315600
N            0.44323885467883       -0.59629952845274        0.19862358221623
C            0.17201434800907        0.75691175177473        0.41959464881218
C            0.87186318592943        1.48058276812459        1.39045425216998
C            0.58289772994917        2.81101585246134        1.60264563105009
C           -0.40607494956282        3.46399614663478        0.86561446369900
C           -1.10875442082943        2.74248018046216       -0.11045311295941
C           -0.81244026244687        1.40465189473434       -0.32585287843523
C           -2.16901759216421        3.36836416689501       -0.93262311276454
O           -2.77903861411971        2.73493142164721       -1.78021627733686
C           -2.44511515574370        4.79209325683671       -0.66521956731620
C           -3.43069366443493        5.43665141912820       -1.41043563545067
C           -3.72272174110782        6.77119929456279       -1.19234244158693
C           -3.03042251697816        7.48109222743198       -0.22219397794754
C           -2.04891749223992        6.85321161294668        0.52441618277121
C           -1.74385634025517        5.51041441931047        0.31504762848069
C           -0.68488944718639        4.88468496378471        1.13461171934100
O           -0.07345482592878        5.51286806978089        1.98751056776332
C            1.75271893653147       -1.07109463055757        0.27993413449564
C            2.02127703164213       -2.35357464680647        0.77144374969771
C            3.31956224590580       -2.80806062093507        0.84689590516331
C            4.39151867491715       -2.01046896310666        0.44299857983403
C            4.12749767801436       -0.72316969793131       -0.04769438735077
C            2.81914575320223       -0.26893308966610       -0.12701501651999
C            5.21300890117793        0.17925710890403       -0.49527494926064
O            4.97844381468340        1.29862320110769       -0.92345284797174
C            6.58542297341784       -0.35000399671177       -0.38875352429981
C            7.64903046781078        0.45605529926606       -0.79024758777579
C            8.95236998835334       -0.00073989607918       -0.70905072283476
C            9.20967808065408       -1.27483333775791       -0.22426723038199
C            8.16262697739748       -2.08546800696982        0.17772409705113
C            6.84580763737087       -1.63815987665269        0.10272736821735
C            5.76114128070362       -2.54031460408346        0.54350472310394
O            5.98962248793552       -3.66508184318117        0.96675074029383
C           -0.43047848778452       -2.51543592163509       -1.01492966288562
C           -1.48048750559547       -3.35718824896875       -1.31090650704572
C           -2.73513494117043       -3.18471921886773       -0.72424453815087
H           -6.02962501443385       -5.51931106729482       -1.40044404059871
H           -8.24413933877618       -5.19306498658742       -0.33274376761786
H           -8.57095417767100       -3.33525371728224        1.26576974469953
H           -6.67975047865498       -1.81684903826975        1.78596194868753
H           -2.02505667956302       -0.49376788814590        1.19645401097819
H            1.63035017015990        0.99123670427467        1.98205261488943
H            1.11121899659708        3.37529353916276        2.35667190403142
H           -1.36026710163527        0.87910645048196       -1.09454554566345
H           -3.95749838567265        4.86449612766687       -2.16019324998332
H           -4.48877546007645        7.25691863004075       -1.77745241744492
H           -3.25504365047069        8.52240452803417       -0.04798757419192
H           -1.49737696108670        7.38767738859474        1.28415146731697
H            1.20848116577365       -2.98204034060888        1.10159171674229
H            3.53585047153800       -3.79324687344374        1.23257314914117
H            2.64676598382838        0.72061852420323       -0.52453973042379
H            7.42573674163278        1.44423660986662       -1.16539036494851
H            9.76611569370538        0.63518896176274       -1.02294934342857
H           10.22486952123109       -1.63601611430704       -0.15962158580629
H            8.34112402581123       -3.08066309580429        0.55835156657369
H            0.52731657224154       -2.65707349489533       -1.49168971969459
H           -1.35561621368308       -4.16570203216122       -2.01581884552991

          :  Hamiltonian                  GFN2-xTB          :
         :: gradient norm              0.000058033104 Eh/a0 ::
         :: HOMO-LUMO gap              1.426011379894 eV    ::
         :: SCC energy              -130.082484348905 Eh    ::
         :: -> dispersion             -0.099970816905 Eh    ::
         :: -> Gsolv                  -0.064689220030 Eh    ::
         :: repulsion energy           2.057412277132 Eh    ::

    * Orbital Energies and Occupations

         #    Occupation            Energy/Eh            Energy/eV
      -------------------------------------------------------------
         1        2.0000           -0.7248935             -19.7254
       ...           ...                  ...                  ...
       103        2.0000           -0.4335127             -11.7965
       104        2.0000           -0.4330050             -11.7827
       105        2.0000           -0.4325014             -11.7690
       106        2.0000           -0.4316484             -11.7458
       107        2.0000           -0.4315115             -11.7420
       108        2.0000           -0.4312572             -11.7351
       109        2.0000           -0.4203937             -11.4395
       110        2.0000           -0.4202791             -11.4364
       111        2.0000           -0.4199946             -11.4286
       112        2.0000           -0.4028161             -10.9612
       113        2.0000           -0.4023081             -10.9474
       114        2.0000           -0.4014915             -10.9251
       115        2.0000           -0.3888813             -10.5820 (HOMO)
       116                         -0.3364763              -9.1560 (LUMO)
       117                         -0.3359041              -9.1404
       118                         -0.3309758              -9.0063
       119                         -0.2906336              -7.9085
       120                         -0.2889052              -7.8615
       121                         -0.2836363              -7.7181
       122                         -0.2601555              -7.0792
       123                         -0.2594275              -7.0594
       124                         -0.2536300              -6.9016
       125                         -0.2518964              -6.8544
       126                         -0.2509482              -6.8286
       ...                                ...                  ...
       217                          0.7142599              19.4360
      -------------------------------------------------------------
                  HL-Gap            0.0524050 Eh            1.4260 eV

     #   Z          covCN         q      C6AA      α(0)
     1   8 O        0.858    -0.404    21.752     6.253
     2   6 C        2.830     0.226    23.263     7.904
     3   6 C        2.974    -0.012    28.302     8.726
     4   6 C        2.923    -0.012    28.321     8.727
     5   6 C        2.917    -0.015    28.388     8.737
     6   6 C        2.917    -0.016    28.408     8.740
     7   6 C        2.923    -0.012    28.311     8.726
     8   6 C        2.974    -0.013    28.330     8.731
     9   6 C        2.831     0.228    23.217     7.896
    10   8 O        0.858    -0.399    21.653     6.239
    11   6 C        2.973    -0.009    28.243     8.717
    12   6 C        2.927    -0.030    28.751     8.793
    13   6 C        2.923     0.070    26.426     8.430
    14   7 N        2.753    -0.028    21.795     6.934
    15   6 C        2.924     0.071    26.421     8.429
    16   6 C        2.919    -0.035    28.869     8.811
    17   6 C        2.922    -0.011    28.284     8.721
    18   6 C        2.973    -0.017    28.430     8.746
    19   6 C        2.973    -0.009    28.244     8.717
    20   6 C        2.927    -0.030    28.744     8.792
    21   6 C        2.831     0.228    23.216     7.896
    22   8 O        0.858    -0.398    21.647     6.238
    23   6 C        2.974    -0.013    28.329     8.731
    24   6 C        2.923    -0.012    28.311     8.726
    25   6 C        2.917    -0.016    28.407     8.740
    26   6 C        2.917    -0.015    28.387     8.737
    27   6 C        2.923    -0.012    28.319     8.727
    28   6 C        2.974    -0.012    28.300     8.726
    29   6 C        2.830     0.226    23.260     7.903
    30   8 O        0.858    -0.403    21.747     6.252
    31   6 C        2.922     0.070    26.427     8.430
    32   6 C        2.919    -0.037    28.912     8.817
    33   6 C        2.922    -0.011    28.293     8.723
    34   6 C        2.973    -0.018    28.455     8.750
    35   6 C        2.973    -0.009    28.247     8.718
    36   6 C        2.926    -0.032    28.787     8.799
    37   6 C        2.831     0.228    23.223     7.897
    38   8 O        0.858    -0.397    21.626     6.235
    39   6 C        2.974    -0.013    28.333     8.731
    40   6 C        2.923    -0.012    28.314     8.726
    41   6 C        2.917    -0.016    28.409     8.740
    42   6 C        2.917    -0.015    28.388     8.737
    43   6 C        2.923    -0.012    28.323     8.727
    44   6 C        2.974    -0.012    28.304     8.727
    45   6 C        2.830     0.225    23.267     7.904
    46   8 O        0.858    -0.405    21.776     6.257
    47   6 C        2.918    -0.036    28.898     8.815
    48   6 C        2.922    -0.011    28.294     8.723
    49   6 C        2.973    -0.017    28.440     8.748
    50   1 H        0.926     0.068     2.112     2.272
    51   1 H        0.926     0.064     2.151     2.294
    52   1 H        0.926     0.064     2.156     2.296
    53   1 H        0.926     0.066     2.127     2.280
    54   1 H        0.926     0.069     2.097     2.264
    55   1 H        0.926     0.065     2.144     2.290
    56   1 H        0.926     0.074     2.040     2.233
    57   1 H        0.926     0.069     2.092     2.262
    58   1 H        0.926     0.067     2.124     2.279
    59   1 H        0.926     0.064     2.152     2.294
    60   1 H        0.926     0.064     2.148     2.292
    61   1 H        0.926     0.068     2.111     2.272
    62   1 H        0.926     0.065     2.137     2.286
    63   1 H        0.926     0.074     2.037     2.232
    64   1 H        0.926     0.070     2.082     2.256
    65   1 H        0.926     0.067     2.123     2.278
    66   1 H        0.926     0.063     2.160     2.299
    67   1 H        0.926     0.064     2.158     2.297
    68   1 H        0.926     0.067     2.117     2.275
    69   1 H        0.926     0.066     2.129     2.282
    70   1 H        0.926     0.075     2.030     2.228

molecular dipole:
                 x           y           z       tot (Debye)
 q only:       -0.101       0.110      -0.019
   full:       -0.111       0.137      -0.027       0.454

 projected vibrational frequencies (cm⁻¹)
eigval :       -0.00     0.00     0.00     0.00     0.00     0.00
eigval :       14.00    16.06    18.94    20.48    25.10    32.07
eigval :       34.52    37.66    38.70    82.45    90.88   100.39
eigval :      102.87   104.19   106.83   127.84   132.13   133.10
eigval :      146.03   148.13   159.01   163.41   187.87   199.09
eigval :      212.81   246.56   254.31   259.63   276.40   278.21
eigval :      291.79   312.48   339.74   367.67   369.96   370.88
eigval :      371.57   373.13   373.32   387.72   390.61   391.76
eigval :      397.21   400.25   402.94   404.68   410.92   414.94
eigval :      425.11   436.36   449.06   451.28   474.24   474.59
eigval :      502.39   521.57   523.28   531.96   588.37   593.52
eigval :      608.31   610.38   616.42   625.29   626.50   629.65
eigval :      636.60   657.84   659.18   671.55   674.23   675.30
eigval :      682.41   683.66   685.16   686.57   689.04   690.49
eigval :      693.18   766.07   769.57   770.63   773.18   774.61
eigval :      786.69   791.37   792.79   817.48   839.54   842.97
eigval :      849.19   874.05   878.53   889.63   892.91   894.74
eigval :      896.16   898.29   901.43   924.01   926.86   928.01
eigval :      928.45   931.54   932.40   934.17   936.15   936.94
eigval :      937.57   952.36   952.47   986.28  1025.57  1037.53
eigval :     1081.77  1082.14  1082.92  1085.05  1085.54  1086.16
eigval :     1115.75  1116.57  1118.45  1153.42  1168.00  1169.13
eigval :     1172.46  1172.67  1173.37  1181.48  1195.39  1197.36
eigval :     1218.74  1220.97  1221.99  1228.25  1232.94  1234.71
eigval :     1240.09  1250.70  1251.68  1253.13  1268.18  1268.39
eigval :     1291.10  1299.40  1308.67  1330.08  1334.53  1334.64
eigval :     1339.57  1347.77  1348.60  1400.05  1407.12  1414.01
eigval :     1416.32  1416.85  1417.53  1452.97  1453.97  1454.40
eigval :     1461.79  1465.92  1468.19  1540.29  1546.57  1548.39
eigval :     1554.67  1554.84  1567.04  1567.58  1568.01  1568.15
eigval :     1571.55  1571.91  1574.53  1639.72  1640.09  1643.91
eigval :     1653.12  1653.18  1654.33  3085.40  3085.49  3085.75
eigval :     3087.91  3087.99  3088.06  3091.06  3092.04  3092.47
eigval :     3093.44  3093.60  3093.79  3093.87  3094.12  3094.18
eigval :     3101.16  3101.41  3101.85  3101.98  3102.25  3103.81

   temp. (K)  partition function   enthalpy   heat capacity  entropy
                                   cal/mol     cal/K/mol   cal/K/mol   J/K/mol
 298.15  VIB  0.134E+18            22050.740    136.986    135.927
         ROT  0.110E+09              888.752      2.981     39.778
         INT  0.148E+26            22939.493    139.967    175.705
         TR   0.155E+29             1481.254      4.968     45.210
         TOT                       24420.7465   144.9348   220.9152   924.3091

       T/K    H(0)-H(T)+PV         H(T)/Eh          T*S/Eh         G(T)/Eh
   ------------------------------------------------------------------------
    298.15    0.389169E-01    0.535661E+00    0.104964E+00    0.430697E+00
   ------------------------------------------------------------------------

         :::::::::::::::::::::::::::::::::::::::::::::::::::::
         ::                  THERMODYNAMIC                  ::
         :::::::::::::::::::::::::::::::::::::::::::::::::::::
         :: total free energy        -127.594375388389 Eh   ::
         ::.................................................::
         :: total energy             -128.025072067783 Eh   ::
         :: zero point energy           0.496743668985 Eh   ::
         :: G(RRHO) w/o ZPVE           -0.066046989591 Eh   ::
         :: G(RRHO) contrib.            0.430696679394 Eh   ::
         :::::::::::::::::::::::::::::::::::::::::::::::::::::

           -------------------------------------------------
          | TOTAL ENERGY             -128.025072067783 Eh   |
          | TOTAL ENTHALPY           -127.489411462061 Eh   |
          | TOTAL FREE ENERGY        -127.594375388389 Eh   |
          | GRADIENT NORM               0.000058010260 Eh/α |
          | HOMO-LUMO GAP               1.426012099139 eV   |
           -------------------------------------------------

 * finished run on 2025/08/21 at 17:38:07.172
