   * xtb version 6.7.1 (edcfbbe) compiled by 'albert@albert-system' on 2024-07-22

   ID    Z sym.   atoms
    1    8 O      1, 10, 22, 30, 38, 46
    2    6 C      2-9, 11-13, 15-21, 23-29, 31-37, 39-45, 47-49
    3    7 N      14
    4    1 H      50-70

          program call               : xtb data2507/toluene/NAQ3/NAQ3_toluene_S0_crest.xyz --gfn 2 --gbsa toluene --ohess vtight --parallel 40 --molden --ceasefiles --namespace data2507/toluene/NAQ3/NAQ3_toluene_S0_finalOpt
      * Solvation model:               GBSA
        Solvent                        toluene
        Solvent mass                       9.2140E+01 g/mol
          :  Hamiltonian                  GFN2-xTB          :
 * total energy  :  -128.0247289 Eh     change       -0.3177945E-08 Eh
 * total energy  :  -128.0249286 Eh     change       -0.1997137E-03 Eh
 * total energy  :  -128.0249817 Eh     change       -0.5313950E-04 Eh
 * total energy  :  -128.0249914 Eh     change       -0.9659051E-05 Eh
 * total energy  :  -128.0249971 Eh     change       -0.5700762E-05 Eh
 * total energy  :  -128.0250028 Eh     change       -0.5683071E-05 Eh
 * total energy  :  -128.0250073 Eh     change       -0.4535566E-05 Eh
 * total energy  :  -128.0250125 Eh     change       -0.5137499E-05 Eh
 * total energy  :  -128.0250185 Eh     change       -0.6045539E-05 Eh
 * total energy  :  -128.0250252 Eh     change       -0.6731469E-05 Eh
 * total energy  :  -128.0250534 Eh     change       -0.5873239E-06 Eh
 * total energy  :  -128.0250537 Eh     change       -0.3044113E-06 Eh
 * total energy  :  -128.0250539 Eh     change       -0.1946752E-06 Eh
 * total energy  :  -128.0250542 Eh     change       -0.2555133E-06 Eh
 * total energy  :  -128.0250544 Eh     change       -0.2599341E-06 Eh
 * total energy  :  -128.0250546 Eh     change       -0.1657376E-06 Eh
 * total energy  :  -128.0250547 Eh     change       -0.1223213E-06 Eh
 * total energy  :  -128.0250548 Eh     change       -0.1036540E-06 Eh
 * total energy  :  -128.0250549 Eh     change       -0.8424354E-07 Eh
   *** GEOMETRY OPTIMIZATION CONVERGED AFTER 31 ITERATIONS ***

 final structure:
================
70
 xtb: 6.7.1 (edcfbbe)
O           -3.58377921083728       -5.11412185659671       -1.74035734968875
C           -3.75789038198097       -4.17999345772749       -0.97018364094784
C           -5.06036102582481       -3.94414858253351       -0.31242910460814
C           -6.11641886479930       -4.81018277118327       -0.58574110104116
C           -7.35181561746917       -4.63084870130093        0.01143619478513
C           -7.54803335461464       -3.57868900518190        0.89394123180475
C           -6.50806925474415       -2.71047583481141        1.17437415279343
C           -5.25917428523383       -2.87936731212760        0.57948577164867
C           -4.18045810063237       -1.92939837855639        0.90923125989204
O           -4.34665614991899       -0.99795656158315        1.68161651258172
C           -2.87773875888572       -2.16376320037116        0.24589593538183
C           -1.83290864493333       -1.29448910930088        0.52224892207745
C           -0.58426309978201       -1.45514384348994       -0.07834051478081
N            0.44752679733843       -0.55547705491598        0.20096436471267
C            0.14146934462260        0.79460078945111        0.39540693270915
C            0.82526680301967        1.55710845444397        1.34763065438676
C            0.49876926423877        2.88267458611549        1.53532780973021
C           -0.51318654064513        3.49180176366905        0.79196613581349
C           -1.19873824478096        2.73153177716792       -0.16669930349838
C           -0.86427104372375        1.39911055927203       -0.35793340834178
C           -2.28075689953161        3.30989684907461       -0.99525989041903
O           -2.87063499993303        2.64439625411587       -1.83248700860214
C           -2.60449490752516        4.72690849503528       -0.74670923369154
C           -3.61838229695957        5.32511890935574       -1.49260379082310
C           -3.95596137537578        6.65151910744373       -1.29116591434110
C           -3.28074510646600        7.39985111617777       -0.33800185162181
C           -2.27084159911185        6.81844571910702        0.40841558992354
C           -1.92076746493623        5.48402628426807        0.21660573059947
C           -0.83430684763835        4.90799486461643        1.03669015773729
O           -0.23563714404279        5.57124559731310        1.87186142918680
C            1.76925623430545       -0.99470560129992        0.27865904633575
C            2.07426535554415       -2.26292738188211        0.78594814587433
C            3.38377730715979       -2.68503882133182        0.85356732716895
C            4.43185565376872       -1.86773281217148        0.42702639088072
C            4.13178593043734       -0.59330251326596       -0.07637533657051
C            2.81196438819367       -0.17209712312266       -0.14877091216130
C            5.19098322758166        0.32963164754916       -0.54484612702865
O            4.92561682374060        1.43863105390327       -0.98194544146454
C            6.57672918760205       -0.16573478728755       -0.44711983807604
C            7.61672157075688        0.66094289905776       -0.86820072376622
C            8.93131721460234        0.23605918934628       -0.79571016367750
C            9.22380604818034       -1.02633157844448       -0.30039254769909
C            8.20054466604492       -1.85723406034196        0.12093441381802
C            6.87276963724645       -1.44202182072377        0.05500339056710
C            5.81441438332138       -2.36467609471393        0.51672899551847
O            6.07374187333228       -3.47995951304219        0.94733305604324
C           -0.39242085642937       -2.52044781155448       -0.96435423021893
C           -1.42726217871461       -3.38902861484628       -1.23560261238942
C           -2.68123097867703       -3.23012713209658       -0.64374108064749
H           -5.94219409694795       -5.62346015180657       -1.27518017899735
H           -8.16030903366662       -5.31079007045831       -0.21041331643315
H           -8.50995259233047       -3.43522132594076        1.36225284404418
H           -6.63867293199064       -1.88464745880659        1.85849386860295
H           -2.01088682579353       -0.49143196718437        1.22256221287312
H            1.60022002360665        1.10113650123588        1.94459433740891
H            1.01422336653741        3.47684769919008        2.27517976714103
H           -1.40023243756771        0.84305610924419       -1.11342940846446
H           -4.13095808180266        4.72349664678489       -2.22907925431771
H           -4.74408453564894        7.10098322237327       -1.87601336963338
H           -3.54084349749383        8.43497684886847       -0.17684998317454
H           -1.73175705047068        7.38349560342599        1.15485537940589
H            1.28062896044176       -2.90591589461017        1.13420268956029
H            3.62783374054609       -3.65942579670140        1.24996111836101
H            2.61188042833684        0.80761695113612       -0.55750430528887
H            7.36619580130892        1.63944491936104       -1.25142876781561
H            9.72667420863681        0.88755462433398       -1.12449777974502
H           10.24792338496669       -1.36253643178015       -0.24250167832552
H            8.40657662720063       -2.84378765201585        0.51003107659682
H            0.56430373364055       -2.65235185183626       -1.44604842292703
H           -1.29116131389259       -4.20792628699561       -1.92629229653329

          :  Hamiltonian                  GFN2-xTB          :
         :: gradient norm              0.000045402473 Eh/a0 ::
         :: HOMO-LUMO gap              1.425608848721 eV    ::
         :: SCC energy              -130.082390518286 Eh    ::
         :: -> dispersion             -0.099973167241 Eh    ::
         :: -> Gsolv                  -0.064667695782 Eh    ::
         :: repulsion energy           2.057335600512 Eh    ::

    * Orbital Energies and Occupations

         #    Occupation            Energy/Eh            Energy/eV
      -------------------------------------------------------------
         1        2.0000           -0.7248490             -19.7241
       ...           ...                  ...                  ...
       103        2.0000           -0.4335119             -11.7965
       104        2.0000           -0.4329964             -11.7824
       105        2.0000           -0.4325290             -11.7697
       106        2.0000           -0.4316110             -11.7447
       107        2.0000           -0.4315277             -11.7425
       108        2.0000           -0.4312913             -11.7360
       109        2.0000           -0.4203895             -11.4394
       110        2.0000           -0.4202679             -11.4361
       111        2.0000           -0.4200323             -11.4297
       112        2.0000           -0.4027926             -10.9605
       113        2.0000           -0.4023426             -10.9483
       114        2.0000           -0.4014970             -10.9253
       115        2.0000           -0.3888835             -10.5821 (HOMO)
       116                         -0.3364934              -9.1565 (LUMO)
       117                         -0.3358951              -9.1402
       118                         -0.3309709              -9.0062
       119                         -0.2906531              -7.9091
       120                         -0.2889110              -7.8617
       121                         -0.2836397              -7.7182
       122                         -0.2601500              -7.0790
       123                         -0.2594405              -7.0597
       124                         -0.2536324              -6.9017
       125                         -0.2518896              -6.8543
       126                         -0.2509608              -6.8290
       ...                                ...                  ...
       217                          0.7142562              19.4359
      -------------------------------------------------------------
                  HL-Gap            0.0523901 Eh            1.4256 eV

     #   Z          covCN         q      C6AA      α(0)
     1   8 O        0.858    -0.404    21.751     6.253
     2   6 C        2.830     0.226    23.263     7.904
     3   6 C        2.974    -0.012    28.302     8.726
     4   6 C        2.923    -0.012    28.321     8.727
     5   6 C        2.917    -0.015    28.387     8.737
     6   6 C        2.917    -0.016    28.408     8.740
     7   6 C        2.923    -0.012    28.311     8.726
     8   6 C        2.974    -0.013    28.330     8.731
     9   6 C        2.831     0.228    23.217     7.896
    10   8 O        0.858    -0.399    21.654     6.239
    11   6 C        2.973    -0.009    28.244     8.717
    12   6 C        2.927    -0.030    28.751     8.793
    13   6 C        2.924     0.070    26.426     8.430
    14   7 N        2.753    -0.028    21.794     6.934
    15   6 C        2.924     0.071    26.421     8.429
    16   6 C        2.918    -0.035    28.866     8.810
    17   6 C        2.922    -0.011    28.284     8.721
    18   6 C        2.973    -0.017    28.428     8.746
    19   6 C        2.973    -0.009    28.244     8.718
    20   6 C        2.927    -0.030    28.743     8.792
    21   6 C        2.831     0.228    23.216     7.896
    22   8 O        0.858    -0.398    21.648     6.238
    23   6 C        2.974    -0.013    28.329     8.731
    24   6 C        2.923    -0.012    28.311     8.726
    25   6 C        2.917    -0.016    28.407     8.740
    26   6 C        2.917    -0.015    28.386     8.737
    27   6 C        2.923    -0.012    28.319     8.727
    28   6 C        2.974    -0.012    28.300     8.726
    29   6 C        2.830     0.226    23.260     7.903
    30   8 O        0.858    -0.403    21.744     6.252
    31   6 C        2.921     0.070    26.426     8.430
    32   6 C        2.919    -0.037    28.916     8.818
    33   6 C        2.922    -0.011    28.294     8.723
    34   6 C        2.973    -0.018    28.457     8.750
    35   6 C        2.973    -0.009    28.247     8.718
    36   6 C        2.926    -0.032    28.790     8.799
    37   6 C        2.831     0.228    23.223     7.897
    38   8 O        0.858    -0.397    21.627     6.235
    39   6 C        2.974    -0.013    28.333     8.731
    40   6 C        2.923    -0.012    28.314     8.726
    41   6 C        2.917    -0.016    28.409     8.740
    42   6 C        2.917    -0.015    28.389     8.737
    43   6 C        2.923    -0.012    28.323     8.728
    44   6 C        2.974    -0.012    28.304     8.727
    45   6 C        2.830     0.225    23.267     7.904
    46   8 O        0.858    -0.405    21.780     6.257
    47   6 C        2.918    -0.036    28.898     8.815
    48   6 C        2.922    -0.011    28.294     8.723
    49   6 C        2.973    -0.017    28.440     8.748
    50   1 H        0.926     0.068     2.111     2.272
    51   1 H        0.926     0.064     2.151     2.293
    52   1 H        0.926     0.064     2.156     2.296
    53   1 H        0.926     0.066     2.127     2.280
    54   1 H        0.926     0.069     2.097     2.265
    55   1 H        0.926     0.065     2.142     2.289
    56   1 H        0.926     0.074     2.039     2.233
    57   1 H        0.926     0.069     2.092     2.262
    58   1 H        0.926     0.067     2.124     2.279
    59   1 H        0.926     0.064     2.152     2.294
    60   1 H        0.926     0.064     2.148     2.292
    61   1 H        0.926     0.068     2.111     2.272
    62   1 H        0.926     0.065     2.137     2.286
    63   1 H        0.926     0.074     2.038     2.232
    64   1 H        0.926     0.070     2.083     2.257
    65   1 H        0.926     0.067     2.123     2.279
    66   1 H        0.926     0.063     2.161     2.299
    67   1 H        0.926     0.064     2.158     2.297
    68   1 H        0.926     0.067     2.117     2.275
    69   1 H        0.926     0.066     2.127     2.281
    70   1 H        0.926     0.075     2.030     2.228

molecular dipole:
                 x           y           z       tot (Debye)
 q only:       -0.133       0.122      -0.021
   full:       -0.143       0.149      -0.030       0.531

 projected vibrational frequencies (cm⁻¹)
eigval :       -0.00    -0.00    -0.00     0.00     0.00     0.00
eigval :       13.18    15.39    16.95    18.17    23.20    30.28
eigval :       32.49    36.27    37.38    82.31    90.76   100.75
eigval :      101.54   104.09   105.14   127.57   129.67   133.03
eigval :      144.63   147.51   157.95   162.47   186.29   199.03
eigval :      211.49   246.41   253.87   259.22   275.43   277.48
eigval :      291.33   312.23   339.71   366.57   369.57   370.63
eigval :      371.55   373.08   373.15   387.33   389.88   391.79
eigval :      397.40   399.97   402.59   403.81   410.22   414.51
eigval :      423.96   436.14   448.88   451.09   473.95   474.59
eigval :      502.44   521.14   523.16   531.73   588.32   593.22
eigval :      608.27   610.17   616.29   624.33   626.21   629.49
eigval :      636.45   657.85   658.99   671.41   673.64   674.70
eigval :      682.32   683.52   685.08   686.84   687.97   690.07
eigval :      693.05   765.88   769.67   770.99   772.34   773.68
eigval :      787.21   788.50   792.47   817.44   839.28   841.49
eigval :      849.48   873.82   878.73   890.29   893.93   895.46
eigval :      896.22   898.65   901.95   924.07   926.76   929.23
eigval :      929.65   930.21   932.24   933.66   934.77   936.43
eigval :      936.98   952.26   952.44   986.20  1025.50  1037.29
eigval :     1081.57  1081.82  1082.72  1084.99  1085.60  1086.04
eigval :     1114.97  1116.01  1117.68  1153.16  1167.64  1168.72
eigval :     1170.81  1172.06  1172.70  1181.30  1195.60  1197.12
eigval :     1218.63  1221.21  1221.83  1228.33  1233.14  1234.49
eigval :     1240.11  1250.19  1251.07  1252.86  1268.11  1268.28
eigval :     1291.09  1299.40  1308.65  1329.89  1334.46  1334.51
eigval :     1339.43  1347.73  1348.50  1400.04  1406.98  1413.96
eigval :     1416.14  1416.50  1417.13  1452.92  1453.79  1454.24
eigval :     1461.88  1465.84  1468.17  1540.24  1546.60  1548.35
eigval :     1554.70  1554.78  1566.97  1567.68  1567.77  1568.03
eigval :     1571.45  1571.80  1574.47  1639.61  1640.10  1643.89
eigval :     1653.05  1653.12  1654.26  3085.05  3085.66  3085.78
eigval :     3087.92  3088.00  3088.28  3090.89  3092.51  3092.72
eigval :     3093.36  3093.53  3093.70  3094.09  3094.17  3094.30
eigval :     3100.68  3101.44  3101.60  3102.44  3102.59  3104.09

   temp. (K)  partition function   enthalpy   heat capacity  entropy
                                   cal/mol     cal/K/mol   cal/K/mol   J/K/mol
 298.15  VIB  0.257E+18            22094.965    136.894    136.541
         ROT  0.110E+09              888.752      2.981     39.774
         INT  0.282E+26            22983.718    139.875    176.315
         TR   0.155E+29             1481.254      4.968     45.210
         TOT                       24464.9718   144.8430   221.5253   926.8620

       T/K    H(0)-H(T)+PV         H(T)/Eh          T*S/Eh         G(T)/Eh
   ------------------------------------------------------------------------
    298.15    0.389874E-01    0.535595E+00    0.105254E+00    0.430341E+00
   ------------------------------------------------------------------------

         :::::::::::::::::::::::::::::::::::::::::::::::::::::
         ::                  THERMODYNAMIC                  ::
         :::::::::::::::::::::::::::::::::::::::::::::::::::::
         :: total free energy        -127.594713996135 Eh   ::
         ::.................................................::
         :: total energy             -128.025054914280 Eh   ::
         :: zero point energy           0.496607342616 Eh   ::
         :: G(RRHO) w/o ZPVE           -0.066266424471 Eh   ::
         :: G(RRHO) contrib.            0.430340918145 Eh   ::
         :::::::::::::::::::::::::::::::::::::::::::::::::::::

           -------------------------------------------------
          | TOTAL ENERGY             -128.025054914280 Eh   |
          | TOTAL ENTHALPY           -127.489460157493 Eh   |
          | TOTAL FREE ENERGY        -127.594713996135 Eh   |
          | GRADIENT NORM               0.000045417330 Eh/α |
          | HOMO-LUMO GAP               1.425607445128 eV   |
           -------------------------------------------------

 * finished run on 2025/08/21 at 17:42:00.888
