   * xtb version 6.7.1 (edcfbbe) compiled by 'albert@albert-system' on 2024-07-22

   ID    Z sym.   atoms
    1    7 N      1, 7, 15, 23, 27
    2    6 C      2-6, 8-14, 16-22, 24-26, 28-40, 42
    3   16 S      41
    4    1 H      43-63

          program call               : xtb data2507/gas/BTITrz/BTITrz_gas_S0_finalOpt.xtbopt.xyz --gfn 2 --spinpol --tblite --uhf 2 --ohess vtight --parallel 40 --molden --ceasefiles --namespace data2507/gas/BTITrz/BTITrz_gas_T1_preOpt
 * total energy  :  -105.5888855 Eh     change        0.1119666E-07 Eh
 * total energy  :  -105.5924470 Eh     change       -0.3561491E-02 Eh
 * total energy  :  -105.5942803 Eh     change       -0.1833345E-02 Eh
 * total energy  :  -105.5944453 Eh     change       -0.1649597E-03 Eh
 * total energy  :  -105.5945049 Eh     change       -0.5955863E-04 Eh
 * total energy  :  -105.5945565 Eh     change       -0.5162922E-04 Eh
 * total energy  :  -105.5945729 Eh     change       -0.1639524E-04 Eh
 * total energy  :  -105.5945829 Eh     change       -0.1002235E-04 Eh
 * total energy  :  -105.5945884 Eh     change       -0.5545512E-05 Eh
 * total energy  :  -105.5945986 Eh     change       -0.1014169E-04 Eh
 * total energy  :  -105.5946468 Eh     change       -0.9414395E-06 Eh
 * total energy  :  -105.5946476 Eh     change       -0.8313786E-06 Eh
 * total energy  :  -105.5946484 Eh     change       -0.7676732E-06 Eh
 * total energy  :  -105.5946492 Eh     change       -0.8499755E-06 Eh
 * total energy  :  -105.5946500 Eh     change       -0.7996600E-06 Eh
 * total energy  :  -105.5946508 Eh     change       -0.7672657E-06 Eh
 * total energy  :  -105.5946514 Eh     change       -0.6481910E-06 Eh
 * total energy  :  -105.5946519 Eh     change       -0.4942748E-06 Eh
 * total energy  :  -105.5946520 Eh     change       -0.4474282E-07 Eh
   *** GEOMETRY OPTIMIZATION CONVERGED AFTER 44 ITERATIONS ***

 final structure:
================
63
 xtb: 6.7.1 (edcfbbe)
N            1.91048384895983        3.60024897466057       -0.89486212336420
C            1.44514313746259        2.61959573478316       -0.52272942101375
C            0.85101753490766        1.40703373369855       -0.10868871184986
C           -0.52282961705269        1.27670300985188       -0.18110753713298
C           -1.14864489973254        0.05683843916838        0.13020986196172
C           -2.55881178959563       -0.06794686709131        0.06397453248097
N           -3.32237545487858        1.00325403658937       -0.26994561894522
C           -4.61953153969602        0.87106269353873       -0.31348147975285
C           -5.44646330814303        2.02080706030732       -0.65466990475851
C           -6.83562171106191        1.89845816350642       -0.69510631946897
C           -7.61777473769791        2.99029175877070       -1.01497396244437
C           -7.02645029887332        4.21201812868074       -1.29755707345035
C           -5.64564456279555        4.33959545014298       -1.25930487995027
C           -4.85700733524956        3.25310589249977       -0.94007398881315
N           -5.23207020393403       -0.30127720731861       -0.05179970297736
C           -4.44952745102069       -1.35233204075298        0.26895006299955
C           -5.09091668697810       -2.63006673021053        0.54657535258216
C           -6.47976908030453       -2.74700515494125        0.48273933990449
C           -7.08528437677730       -3.96003514804005        0.74353657060492
C           -6.31656508439379       -5.06674971990993        1.06965977387104
C           -4.93517648506698       -4.95661685292710        1.13452378996555
C           -4.32245519338051       -3.74774264709951        0.87529563919570
N           -3.15002563567276       -1.25707856795073        0.33830200082962
C           -0.33336472445599       -1.04063431362315        0.49735485711668
C            1.02776832782234       -0.90842395147995        0.57965134154060
C            1.64744730835678        0.31312094720315        0.30181525650534
N            3.04003245322350        0.43548475482617        0.39771104163206
C            3.74980906934166        1.43750791735866        1.05620615815177
C            3.27488845118925        2.47976597043814        1.83079703162085
C            4.20362596470866        3.33757518699692        2.39617167149953
C            5.57045133625097        3.15364739010725        2.20761852818560
C            6.05427357902133        2.09372314188510        1.46694660261537
C            5.14308277471330        1.21463622006343        0.88894452706853
C            5.26372721450402        0.02277591896063        0.11755696661103
C            6.22808714474592       -0.84533036252770       -0.46370383925498
C            7.62178638655764       -0.78810543562243       -0.45119512935258
C            8.34983733155024       -1.76567797728803       -1.09741011707658
C            7.71360112404288       -2.80876377236681       -1.76194042535376
C            6.33050488609789       -2.88938233775211       -1.79150755802513
C            5.60034652448905       -1.91236473170135       -1.14650000648176
S            3.83493654669870       -1.84571497232262       -1.07491390243124
C            3.95575768365934       -0.40456914442419       -0.13760170567634
H           -1.12921442810359        2.11175915578418       -0.49658150388469
H           -7.28116488309179        0.94115895232753       -0.47237818116164
H           -8.69308821675353        2.89187948921311       -1.04485877510866
H           -7.64068386043234        5.06451625126009       -1.54743800089564
H           -5.18589274815246        5.29175587751453       -1.47977616524377
H           -3.78182422326110        3.33741423310408       -0.90616208005869
H           -7.06468487576138       -1.87695788459689        0.22710223159823
H           -8.16082742037317       -4.04666470069661        0.69296750676732
H           -6.79282055754013       -6.01458221616932        1.27284421505032
H           -4.33739622746543       -5.81984302866035        1.38822223560500
H           -3.24917846507409       -3.64630572767018        0.92080232571691
H           -0.81053816381529       -1.98114370641034        0.72018610275771
H            1.64079348044986       -1.74685180226162        0.87654535499481
H            2.21889845067452        2.62289742533956        1.99843703807601
H            3.85775926173187        4.16447292711315        2.99695152764587
H            6.26267367971618        3.84798284184054        2.65936838588645
H            7.11517892149377        1.94416268225300        1.34082180436707
H            8.11593522499177        0.02070632918401        0.06363147250273
H            9.42851431599261       -1.72193546662107       -1.08816805408670
H            8.30044684038306       -3.56426806782006       -2.26139721398537
H            5.83134704094290       -3.69520507925135       -2.30691146412006

 projected vibrational frequencies (cm⁻¹)
eigval :       -0.00    -0.00    -0.00     0.00     0.00     0.00
eigval :       10.87    14.23    21.06    24.81    27.89    39.99
eigval :       42.43    48.84    54.73    76.37    82.23    87.78
eigval :       99.70   116.80   120.15   130.45   147.15   157.61
eigval :      163.35   167.39   192.10   203.69   223.00   231.96
eigval :      246.06   273.70   291.36   299.24   306.63   351.97
eigval :      356.65   365.06   365.99   366.55   370.17   382.68
eigval :      389.56   403.96   408.94   409.36   414.57   424.86
eigval :      442.92   480.08   482.65   494.01   529.27   538.14
eigval :      538.52   545.32   554.88   576.32   587.36   588.11
eigval :      590.87   598.32   602.80   603.64   616.35   636.76
eigval :      653.74   662.23   663.01   667.30   672.13   678.34
eigval :      687.04   692.13   730.15   755.34   762.38   763.82
eigval :      763.87   771.26   799.58   806.56   815.94   856.62
eigval :      861.14   866.77   869.60   871.79   873.69   898.27
eigval :      900.18   900.80   902.71   903.35   903.41   916.18
eigval :      917.94   919.42   926.24   927.23   930.00   930.49
eigval :      952.89   962.92   984.00   991.93  1032.03  1063.29
eigval :     1068.94  1073.97  1075.60  1076.17  1100.84  1109.16
eigval :     1110.06  1122.01  1143.36  1146.88  1156.31  1169.79
eigval :     1174.74  1179.87  1180.28  1181.86  1185.74  1189.05
eigval :     1198.68  1214.17  1222.37  1234.05  1256.34  1263.81
eigval :     1267.42  1278.57  1280.62  1292.87  1322.67  1330.42
eigval :     1331.42  1334.51  1343.51  1353.92  1369.67  1386.73
eigval :     1399.97  1402.50  1416.15  1421.55  1426.74  1431.99
eigval :     1438.21  1453.89  1458.40  1463.99  1475.15  1484.46
eigval :     1490.87  1495.18  1549.64  1561.29  1568.06  1574.24
eigval :     1574.97  1582.85  1586.86  1587.26  1592.93  2361.91
eigval :     3075.53  3076.09  3080.30  3081.29  3083.06  3085.72
eigval :     3086.50  3090.47  3091.02  3092.53  3093.21  3098.91
eigval :     3099.03  3100.39  3100.78  3101.45  3101.58  3102.61
eigval :     3105.10  3105.81  3111.49

   temp. (K)  partition function   enthalpy   heat capacity  entropy
                                   cal/mol     cal/K/mol   cal/K/mol   J/K/mol
 298.15  VIB  0.336E+16            19611.641    121.330    122.398
         ROT  0.757E+08              888.752      2.981     39.033
         INT  0.254E+24            20500.393    124.311    161.431
         TR   0.127E+29             1481.254      4.968     44.810
         TOT                       21981.6474   129.2789   206.2407   862.9113

       T/K    H(0)-H(T)+PV         H(T)/Eh          T*S/Eh         G(T)/Eh
   ------------------------------------------------------------------------
    298.15    0.350300E-01    0.490240E+00    0.979916E-01    0.392249E+00
   ------------------------------------------------------------------------

         :::::::::::::::::::::::::::::::::::::::::::::::::::::
         ::                  THERMODYNAMIC                  ::
         :::::::::::::::::::::::::::::::::::::::::::::::::::::
         :: total free energy        -105.202403397961 Eh   ::
         ::.................................................::
         :: total energy             -105.594651960267 Eh   ::
         :: zero point energy           0.455210208826 Eh   ::
         :: G(RRHO) w/o ZPVE           -0.062961646519 Eh   ::
         :: G(RRHO) contrib.            0.392248562307 Eh   ::
         :::::::::::::::::::::::::::::::::::::::::::::::::::::

           -------------------------------------------------
          | TOTAL ENERGY             -105.594651960267 Eh   |
          | TOTAL ENTHALPY           -105.104411766623 Eh   |
          | TOTAL FREE ENERGY        -105.202403397961 Eh   |
          | GRADIENT NORM               0.000085891603 Eh/α |
           -------------------------------------------------

 * finished run on 2025/09/07 at 04:47:54.615
