   * xtb version 6.7.1 (edcfbbe) compiled by 'albert@albert-system' on 2024-07-22

   ID    Z sym.   atoms
    1    7 N      1, 7, 15, 23, 27
    2    6 C      2-6, 8-14, 16-22, 24-26, 28-40, 42
    3   16 S      41
    4    1 H      43-63

          program call               : xtb data2507/gas/BTITrz/BTITrz.xyz --gfn 2 --ohess vtight --parallel 40 --molden --ceasefiles --namespace data2507/gas/BTITrz/BTITrz_gas_S0_preOpt
          :  Hamiltonian                  GFN2-xTB          :
 * total energy  :  -105.6438679 Eh     change       -0.6102510E-08 Eh
 * total energy  :  -105.6600709 Eh     change       -0.1620302E-01 Eh
 * total energy  :  -105.6630723 Eh     change       -0.3001413E-02 Eh
 * total energy  :  -105.6641298 Eh     change       -0.1057518E-02 Eh
 * total energy  :  -105.6659659 Eh     change       -0.1836025E-02 Eh
 * total energy  :  -105.6665823 Eh     change       -0.6164317E-03 Eh
 * total energy  :  -105.6668969 Eh     change       -0.3145785E-03 Eh
 * total energy  :  -105.6670669 Eh     change       -0.1699945E-03 Eh
 * total energy  :  -105.6671486 Eh     change       -0.8172894E-04 Eh
 * total energy  :  -105.6671786 Eh     change       -0.2999223E-04 Eh
 * total energy  :  -105.6672909 Eh     change       -0.1352735E-06 Eh
 * total energy  :  -105.6672911 Eh     change       -0.1520486E-06 Eh
 * total energy  :  -105.6672912 Eh     change       -0.1336159E-06 Eh
 * total energy  :  -105.6672914 Eh     change       -0.1638992E-06 Eh
 * total energy  :  -105.6672916 Eh     change       -0.2298013E-06 Eh
 * total energy  :  -105.6672920 Eh     change       -0.3451595E-06 Eh
 * total energy  :  -105.6672925 Eh     change       -0.5098206E-06 Eh
 * total energy  :  -105.6672932 Eh     change       -0.7251572E-06 Eh
 * total energy  :  -105.6672932 Eh     change       -0.1494959E-07 Eh
   *** GEOMETRY OPTIMIZATION CONVERGED AFTER 68 ITERATIONS ***

 final structure:
================
63
 xtb: 6.7.1 (edcfbbe)
N            2.12262286072382        3.66447697288998       -0.73749373515888
C            1.68801144825480        2.65714232319445       -0.40495222329890
C            1.10378096844843        1.41554710804781       -0.06051670386802
C           -0.28046346070275        1.29449219801820       -0.12667123074818
C           -0.89010131000463        0.06697016258603        0.09768574081293
C           -2.34791864212968       -0.05162382223595        0.03009183106417
N           -3.04604661524708        1.04344321436172       -0.24762024148976
C           -4.36777126398082        0.89075643197032       -0.30363417936304
C           -5.18202186240727        2.06434450806717       -0.61389177824006
C           -6.57007744249288        1.95590050867382       -0.68032086066902
C           -7.33671957157110        3.06626123648612       -0.97492794938298
C           -6.72807541796879        4.29052065394378       -1.20519708968012
C           -5.34788833275606        4.40378627786031       -1.14041929982091
C           -4.57512471656974        3.29749052324572       -0.84629973463040
N           -4.98820574357536       -0.26638821020680       -0.09355380735728
C           -4.21137159445115       -1.30912052278399        0.18273967560040
C           -4.85178777066626       -2.60085481511384        0.42550037031840
C           -6.23941073318079       -2.71679548976993        0.36580424351478
C           -6.84154037153668       -3.93814857682469        0.59679748948884
C           -6.06785023353454       -5.05101645291966        0.88836052254760
C           -4.68718678386353       -4.94111263393077        0.94863896109451
C           -4.07857361492256       -3.72281409800367        0.71871634027118
N           -2.88283322207720       -1.24693221916239        0.25193464782759
C           -0.10161459672178       -1.05146349408698        0.37248174105365
C            1.26936353518349       -0.93836624433973        0.44914859562439
C            1.89234297871965        0.29346367085474        0.25549808392137
N            3.27730018715433        0.39141491415742        0.34456306702332
C            4.02258697646878        1.37006816747927        0.99838376857722
C            3.59136783168145        2.39597058557769        1.82305181268722
C            4.55066803205834        3.21468458765787        2.38668210505149
C            5.90826291518527        3.00876605755779        2.15277489434044
C            6.34780826557335        1.96153835256451        1.37033283112174
C            5.40353165787970        1.12155455901196        0.79116050825860
C            5.48176397174326       -0.05912208064161       -0.01181749115839
C            6.42282169671777       -0.92041645187549       -0.65129334766600
C            7.81447241260833       -0.87498759094894       -0.68633977721646
C            8.51054748424529       -1.83873602851066       -1.38537389746660
C            7.84296858996093       -2.85779068015975       -2.05788065235580
C            6.46240327785588       -2.92629336946427       -2.04145492050756
C            5.76377032255701       -1.96019698207536       -1.34171982018515
S            4.00762685186504       -1.87969847563140       -1.20747399963389
C            4.17832626528315       -0.46575691348359       -0.22826350356762
H           -0.88855569421758        2.15256121644445       -0.36762208543582
H           -7.02590250451281        0.99544554179663       -0.49847893477699
H           -8.41224091178793        2.98072494432490       -1.02627213966772
H           -7.33009379323303        5.15729119879230       -1.43569878542850
H           -4.87565394316715        5.35828701767032       -1.32049631703993
H           -3.50023093767608        3.36818695103981       -0.79262095820687
H           -6.82496221589259       -1.84024323476007        0.13769404935059
H           -7.91703373567642       -4.02648152680885        0.55030129384906
H           -6.54133848798869       -6.00503421273803        1.06872302625991
H           -4.08650891954548       -5.80965082072235        1.17574294892201
H           -3.00586179736619       -3.61904513001698        0.76139520042613
H           -0.58680009838487       -2.00087983233408        0.53172461527629
H            1.87614669099850       -1.80251102443202        0.67336166550638
H            2.54418076522359        2.55301982808048        2.03168592270993
H            4.23998632710089        4.02759306795119        3.02486448329926
H            6.62713685118575        3.67403017346391        2.60706555083348
H            7.40142923059803        1.78895564578325        1.21573546231196
H            8.33419485407615       -0.08529309661121       -0.16668952323527
H            9.58947023481769       -1.80372057665845       -1.41272235230954
H            8.40660828622281       -3.60233331628193       -2.59917492143096
H            5.93626956941676       -3.71186167602370       -2.56175218794799

          :  Hamiltonian                  GFN2-xTB          :
         :: gradient norm              0.000058261197 Eh/a0 ::
         :: HOMO-LUMO gap              1.863339413082 eV    ::
         :: SCC energy              -107.587642877762 Eh    ::
         :: -> dispersion             -0.088890011716 Eh    ::
         :: repulsion energy           1.920349655956 Eh    ::

    * Orbital Energies and Occupations

         #    Occupation            Energy/Eh            Energy/eV
      -------------------------------------------------------------
         1        2.0000           -0.7359403             -20.0260
       ...           ...                  ...                  ...
        86        2.0000           -0.4256613             -11.5828
        87        2.0000           -0.4231053             -11.5133
        88        2.0000           -0.4218594             -11.4794
        89        2.0000           -0.4156513             -11.3104
        90        2.0000           -0.4145201             -11.2797
        91        2.0000           -0.4120646             -11.2128
        92        2.0000           -0.4108102             -11.1787
        93        2.0000           -0.4098705             -11.1531
        94        2.0000           -0.4031149             -10.9693
        95        2.0000           -0.3786932             -10.3048
        96        2.0000           -0.3774472             -10.2709
        97        2.0000           -0.3767637             -10.2523
        98        2.0000           -0.3668473              -9.9824 (HOMO)
        99                         -0.2983708              -8.1191 (LUMO)
       100                         -0.2915792              -7.9343
       101                         -0.2784850              -7.5780
       102                         -0.2570513              -6.9947
       103                         -0.2470372              -6.7222
       104                         -0.2326925              -6.3319
       105                         -0.2326270              -6.3301
       106                         -0.2315283              -6.3002
       107                         -0.2291668              -6.2359
       108                         -0.2226827              -6.0595
       109                         -0.2158545              -5.8737
       ...                                ...                  ...
       194                          1.1632050              31.6524
      -------------------------------------------------------------
                  HL-Gap            0.0684765 Eh            1.8633 eV

     #   Z          covCN         q      C6AA      α(0)
     1   7 N        0.911    -0.228    25.988     7.373
     2   6 C        1.912     0.117    28.218     8.579
     3   6 C        2.972     0.007    27.864     8.659
     4   6 C        2.935    -0.016    28.411     8.742
     5   6 C        2.982     0.000    28.018     8.683
     6   6 C        2.986     0.202    23.712     7.988
     7   7 N        1.844    -0.295    28.506     7.913
     8   6 C        2.982     0.204    23.685     7.983
     9   6 C        2.984    -0.000    28.029     8.684
    10   6 C        2.924    -0.023    28.576     8.766
    11   6 C        2.918    -0.027    28.673     8.781
    12   6 C        2.920    -0.022    28.559     8.764
    13   6 C        2.918    -0.027    28.666     8.780
    14   6 C        2.924    -0.022    28.565     8.765
    15   7 N        1.844    -0.291    28.391     7.897
    16   6 C        2.982     0.203    23.692     7.984
    17   6 C        2.984    -0.000    28.025     8.684
    18   6 C        2.924    -0.023    28.574     8.766
    19   6 C        2.918    -0.027    28.671     8.781
    20   6 C        2.920    -0.022    28.566     8.765
    21   6 C        2.918    -0.027    28.675     8.781
    22   6 C        2.924    -0.023    28.578     8.767
    23   7 N        1.844    -0.295    28.499     7.912
    24   6 C        2.922    -0.017    28.442     8.746
    25   6 C        2.920    -0.039    28.978     8.828
    26   6 C        2.915     0.076    26.293     8.408
    27   7 N        2.804    -0.036    21.941     6.957
    28   6 C        3.105     0.041    26.942     8.505
    29   6 C        2.909    -0.041    29.007     8.831
    30   6 C        2.925    -0.031    28.781     8.798
    31   6 C        2.920    -0.035    28.863     8.810
    32   6 C        2.912    -0.033    28.821     8.803
    33   6 C        3.089    -0.008    28.118     8.692
    34   6 C        3.189    -0.043    28.564     8.719
    35   6 C        3.095     0.004    27.827     8.646
    36   6 C        2.916    -0.034    28.856     8.809
    37   6 C        2.918    -0.033    28.821     8.804
    38   6 C        2.923    -0.034    28.847     8.808
    39   6 C        2.935    -0.037    28.912     8.818
    40   6 C        3.015     0.032    27.265     8.565
    41  16 S        2.176    -0.097   145.084    20.273
    42   6 C        3.138     0.068    26.260     8.387
    43   1 H        0.926     0.070     2.082     2.256
    44   1 H        0.926     0.056     2.251     2.346
    45   1 H        0.926     0.038     2.472     2.459
    46   1 H        0.926     0.039     2.466     2.456
    47   1 H        0.926     0.040     2.454     2.450
    48   1 H        0.926     0.055     2.259     2.350
    49   1 H        0.926     0.056     2.246     2.343
    50   1 H        0.926     0.038     2.470     2.458
    51   1 H        0.926     0.038     2.471     2.458
    52   1 H        0.926     0.038     2.473     2.459
    53   1 H        0.926     0.054     2.266     2.354
    54   1 H        0.926     0.070     2.089     2.260
    55   1 H        0.926     0.056     2.242     2.341
    56   1 H        0.926     0.028     2.611     2.527
    57   1 H        0.926     0.037     2.486     2.465
    58   1 H        0.926     0.035     2.511     2.478
    59   1 H        0.926     0.036     2.506     2.475
    60   1 H        0.926     0.038     2.471     2.458
    61   1 H        0.926     0.035     2.519     2.482
    62   1 H        0.926     0.035     2.510     2.477
    63   1 H        0.926     0.039     2.467     2.456

molecular dipole:
                 x           y           z       tot (Debye)
 q only:       -0.714      -0.817       0.429
   full:       -0.839      -1.142       0.537       3.852

 projected vibrational frequencies (cm⁻¹)
eigval :       -0.00    -0.00    -0.00    -0.00    -0.00     0.00
eigval :        5.76    14.79    16.61    21.48    23.33    41.29
eigval :       42.99    49.71    57.47    78.32    83.67    88.96
eigval :       90.34   113.27   122.31   132.29   152.95   158.51
eigval :      167.48   168.46   181.75   204.39   210.63   239.06
eigval :      259.79   283.94   298.53   303.88   311.94   352.21
eigval :      359.78   361.16   363.77   364.56   384.37   401.55
eigval :      406.18   411.43   414.84   420.37   433.13   438.73
eigval :      466.54   484.97   489.42   501.41   534.15   544.19
eigval :      555.99   577.68   587.21   587.55   591.78   597.11
eigval :      608.70   614.04   626.88   627.45   646.01   651.17
eigval :      669.42   673.10   673.63   674.66   691.32   694.61
eigval :      700.26   751.46   755.18   768.03   773.46   774.27
eigval :      775.53   795.40   839.71   847.52   865.25   870.35
eigval :      874.52   876.61   876.84   887.18   901.17   903.90
eigval :      909.51   910.62   911.22   920.49   921.40   922.67
eigval :      929.35   929.86   930.55   933.91   934.20   957.75
eigval :      984.76   990.55  1040.28  1048.38  1071.18  1074.95
eigval :     1075.75  1078.37  1089.72  1107.74  1109.64  1112.34
eigval :     1127.49  1152.11  1155.00  1166.87  1172.35  1176.44
eigval :     1180.19  1180.96  1186.53  1192.01  1202.61  1207.25
eigval :     1209.76  1226.90  1231.80  1240.61  1261.85  1268.48
eigval :     1270.37  1306.78  1323.02  1328.43  1329.90  1334.44
eigval :     1354.42  1354.93  1372.24  1373.12  1384.06  1389.20
eigval :     1410.33  1419.89  1422.48  1432.49  1433.83  1447.84
eigval :     1467.71  1474.54  1478.78  1484.83  1505.97  1508.65
eigval :     1518.58  1550.98  1567.39  1576.91  1583.12  1583.53
eigval :     1585.69  1591.09  1594.68  1595.47  1608.89  2370.42
eigval :     3075.81  3076.25  3082.02  3082.16  3082.77  3083.17
eigval :     3086.60  3089.31  3091.10  3091.64  3096.40  3096.80
eigval :     3098.77  3102.24  3103.91  3107.82  3108.16  3108.23
eigval :     3109.88  3110.43  3117.32

   temp. (K)  partition function   enthalpy   heat capacity  entropy
                                   cal/mol     cal/K/mol   cal/K/mol   J/K/mol
 298.15  VIB  0.690E+16            19279.791    118.823    121.606
         ROT  0.753E+08              888.752      2.981     39.023
         INT  0.519E+24            20168.543    121.804    160.629
         TR   0.127E+29             1481.254      4.968     44.810
         TOT                       21649.7971   126.7717   205.4383   859.5539

       T/K    H(0)-H(T)+PV         H(T)/Eh          T*S/Eh         G(T)/Eh
   ------------------------------------------------------------------------
    298.15    0.345011E-01    0.494718E+00    0.976104E-01    0.397107E+00
   ------------------------------------------------------------------------

         :::::::::::::::::::::::::::::::::::::::::::::::::::::
         ::                  THERMODYNAMIC                  ::
         :::::::::::::::::::::::::::::::::::::::::::::::::::::
         :: total free energy        -105.270185811308 Eh   ::
         ::.................................................::
         :: total energy             -105.667293221808 Eh   ::
         :: zero point energy           0.460216636476 Eh   ::
         :: G(RRHO) w/o ZPVE           -0.063109225975 Eh   ::
         :: G(RRHO) contrib.            0.397107410501 Eh   ::
         :::::::::::::::::::::::::::::::::::::::::::::::::::::

           -------------------------------------------------
          | TOTAL ENERGY             -105.667293221808 Eh   |
          | TOTAL ENTHALPY           -105.172575437489 Eh   |
          | TOTAL FREE ENERGY        -105.270185811308 Eh   |
          | GRADIENT NORM               0.000058201441 Eh/α |
          | HOMO-LUMO GAP               1.863339816135 eV   |
           -------------------------------------------------

 * finished run on 2025/09/07 at 04:44:53.704
