   * xtb version 6.7.1 (edcfbbe) compiled by 'albert@albert-system' on 2024-07-22

   ID    Z sym.   atoms
    1    7 N      1, 7, 15, 23, 27
    2    6 C      2-6, 8-14, 16-22, 24-26, 28-40, 42
    3   16 S      41
    4    1 H      43-63

          program call               : xtb data2507/gas/BTITrz/BTITrz_gas_T1_crest.xyz --gfn 2 --spinpol --tblite --uhf 2 --ohess vtight --parallel 40 --molden --ceasefiles --namespace data2507/gas/BTITrz/BTITrz_gas_T1_finalOpt
 * total energy  :  -105.5945674 Eh     change       -0.2484140E-07 Eh
 * total energy  :  -105.5946294 Eh     change       -0.6200760E-04 Eh
 * total energy  :  -105.5946554 Eh     change       -0.2604389E-04 Eh
 * total energy  :  -105.5946555 Eh     change       -0.1054138E-06 Eh
 * total energy  :  -105.5946591 Eh     change       -0.3572059E-05 Eh
 * total energy  :  -105.5946600 Eh     change       -0.8541607E-06 Eh
 * total energy  :  -105.5946613 Eh     change       -0.1372069E-05 Eh
 * total energy  :  -105.5946623 Eh     change       -0.9919384E-06 Eh
 * total energy  :  -105.5946637 Eh     change       -0.1378976E-05 Eh
 * total energy  :  -105.5946646 Eh     change       -0.8458138E-06 Eh
 * total energy  :  -105.5946664 Eh     change       -0.7909269E-06 Eh
 * total energy  :  -105.5946669 Eh     change       -0.5314201E-06 Eh
 * total energy  :  -105.5946675 Eh     change       -0.6080193E-06 Eh
 * total energy  :  -105.5946683 Eh     change       -0.7092974E-06 Eh
 * total energy  :  -105.5946690 Eh     change       -0.7729675E-06 Eh
 * total energy  :  -105.5946696 Eh     change       -0.5677152E-06 Eh
 * total energy  :  -105.5946699 Eh     change       -0.2561803E-06 Eh
 * total energy  :  -105.5946700 Eh     change       -0.1264570E-06 Eh
 * total energy  :  -105.5946700 Eh     change       -0.1953991E-07 Eh
   *** GEOMETRY OPTIMIZATION CONVERGED AFTER 22 ITERATIONS ***

 final structure:
================
63
 xtb: 6.7.1 (edcfbbe)
N            1.92746491009219        3.61562806774313       -0.77366186801188
C            1.45570658562166        2.62789434855345       -0.42957076733110
C            0.85490809309788        1.40789642751460       -0.04827020875873
C           -0.51910235568704        1.28415300291237       -0.12882358831485
C           -1.15042501023359        0.06052148182170        0.15548505496449
C           -2.56044569293878       -0.05911405931276        0.07792319702555
N           -3.31797829727965        1.01449727291591       -0.26201419887939
C           -4.61471763726602        0.88481900863757       -0.32200448855387
C           -5.43484404007219        2.03458785037526       -0.67915852663514
C           -6.82329388755357        1.91334911038046       -0.74150515185397
C           -7.59906472426990        3.00426377456988       -1.07950468676485
C           -7.00200116890258        4.22404852131987       -1.35838370010266
C           -5.62188753887734        4.35059282617371       -1.29808447430926
C           -4.83959415498834        3.26494440669778       -0.96085408034349
N           -5.23305832369192       -0.28553780414030       -0.06508979287442
C           -4.45675743789602       -1.33810321749598        0.26566020717300
C           -5.10460571283401       -2.61250481903844        0.54351513825677
C           -6.49314590414350       -2.72560918519573        0.46736119396559
C           -7.10488181945076       -3.93493899476868        0.73082268015627
C           -6.34274860459879       -5.04171113086564        1.07186669520249
C           -4.96167640097214       -4.93543072170853        1.14879238130181
C           -4.34276806455762       -3.73027824266298        0.88699084977812
N           -3.15760423801388       -1.24685649471410        0.34530291083949
C           -0.34087513911730       -1.04651711656720        0.50627844164257
C            1.02071567179561       -0.92193711780564        0.59312181363069
C            1.64585143065444        0.30196438331321        0.33960545978286
N            3.03959857889434        0.41483441438917        0.43457202229432
C            3.75747467147433        1.39267318412415        1.11952632706219
C            3.29108889884732        2.41386159392773        1.92664790077500
C            4.22674609035812        3.24896782452833        2.51411494030982
C            5.59181705332079        3.06319771190309        2.31468299015574
C            6.06698597563916        2.02431023378653        1.53939147933536
C            5.14878842887892        1.16823547898465        0.93838083027830
C            5.25958466913062        0.00102725307102        0.12864192625692
C            6.21609520119572       -0.85083195770684       -0.48870485717639
C            7.61003731819331       -0.79903259254561       -0.48549597121961
C            8.32918718295495       -1.75568072111236       -1.17178221892242
C            7.68373065769494       -2.77251341274348       -1.86737140240236
C            6.30017107334168       -2.84748215438095       -1.88806045288373
C            5.57890472102139       -1.89123477680200       -1.20315248583443
S            3.81431054699697       -1.82034956444075       -1.11620653662491
C            3.94822803354216       -0.41189889988240       -0.13236819928478
H           -1.12137589148087        2.12794160836051       -0.42853378459180
H           -7.27330584700142        0.95747067018664       -0.52167912936161
H           -8.67382587537469        2.90659932641086       -1.12667448976065
H           -7.61121910225986        5.07577732295030       -1.62274032835072
H           -5.15767409393310        5.30121656150785       -1.51581206616886
H           -3.76499469530367        3.34836944161770       -0.91031945371678
H           -7.07291692675784       -1.85548440295254        0.20052080653293
H           -8.18018192669732       -4.01855770493099        0.67096327180927
H           -6.82388160480037       -5.98656474179214        1.27739925617277
H           -4.36902313571023       -5.79868120705995        1.41416354602399
H           -3.26968532583004       -3.63172783362345        0.94233776971086
H           -0.82262603327250       -1.98893571430720        0.71040502630591
H            1.63000693546466       -1.76855359905765        0.87413513843950
H            2.23637056491439        2.55773525476155        2.10166960842595
H            3.88793255083581        4.05926120544749        3.14098191647550
H            6.28964209041902        3.73945668718872        2.78486864521916
H            7.12656604266835        1.87335673325818        1.40408007584729
H            8.11134163671147       -0.01041176479427        0.05318681156672
H            9.40804983282842       -1.71581023511222       -1.17015578894282
H            8.26366656692855       -3.51170246339644       -2.39831516521199
H            5.79380773535011       -3.63285387081593       -2.42744704833199

 projected vibrational frequencies (cm⁻¹)
eigval :       -0.00    -0.00    -0.00     0.00     0.00     0.00
eigval :       10.78    14.71    21.07    24.72    27.77    39.96
eigval :       41.94    48.26    54.79    76.26    82.17    87.58
eigval :       99.61   115.99   119.89   130.02   146.66   157.54
eigval :      163.44   167.12   192.01   203.40   223.16   232.03
eigval :      246.00   273.57   291.13   299.25   306.76   351.61
eigval :      356.84   364.94   365.95   366.52   370.88   383.50
eigval :      390.01   403.99   408.77   409.36   414.47   424.94
eigval :      442.84   480.20   482.48   494.03   528.74   538.16
eigval :      538.67   544.66   554.67   576.49   587.29   588.12
eigval :      590.93   598.35   602.85   603.75   616.21   636.90
eigval :      653.72   662.21   663.43   666.80   672.17   678.33
eigval :      687.29   692.12   730.07   755.13   762.35   763.82
eigval :      763.85   771.23   799.45   806.49   816.46   856.56
eigval :      861.08   866.68   869.54   871.73   873.65   898.78
eigval :      900.21   900.74   902.47   903.18   903.41   916.01
eigval :      917.91   919.39   926.19   927.18   929.96   930.45
eigval :      952.92   963.28   983.66   992.18  1032.07  1063.81
eigval :     1068.86  1074.00  1075.93  1076.07  1100.84  1109.12
eigval :     1110.34  1122.04  1142.93  1146.85  1156.56  1169.63
eigval :     1174.72  1179.80  1180.26  1181.83  1185.64  1189.19
eigval :     1198.67  1214.06  1222.36  1234.60  1256.65  1263.79
eigval :     1267.40  1278.66  1280.86  1292.97  1323.03  1330.46
eigval :     1331.45  1334.75  1343.55  1354.32  1369.57  1386.57
eigval :     1399.80  1402.56  1416.23  1421.73  1426.57  1431.73
eigval :     1438.35  1453.95  1458.64  1464.00  1475.67  1484.44
eigval :     1490.70  1495.54  1549.71  1561.23  1568.13  1574.12
eigval :     1574.91  1582.73  1586.85  1587.38  1593.01  2362.30
eigval :     3075.42  3075.96  3080.14  3081.11  3082.60  3085.65
eigval :     3086.35  3090.26  3090.75  3092.39  3093.03  3098.71
eigval :     3098.92  3100.08  3100.68  3101.41  3101.46  3102.53
eigval :     3104.96  3105.84  3111.25

   temp. (K)  partition function   enthalpy   heat capacity  entropy
                                   cal/mol     cal/K/mol   cal/K/mol   J/K/mol
 298.15  VIB  0.343E+16            19615.714    121.304    122.422
         ROT  0.757E+08              888.752      2.981     39.033
         INT  0.260E+24            20504.467    124.285    161.455
         TR   0.127E+29             1481.254      4.968     44.810
         TOT                       21985.7207   129.2533   206.2649   863.0123

       T/K    H(0)-H(T)+PV         H(T)/Eh          T*S/Eh         G(T)/Eh
   ------------------------------------------------------------------------
    298.15    0.350365E-01    0.490239E+00    0.980031E-01    0.392236E+00
   ------------------------------------------------------------------------

         :::::::::::::::::::::::::::::::::::::::::::::::::::::
         ::                  THERMODYNAMIC                  ::
         :::::::::::::::::::::::::::::::::::::::::::::::::::::
         :: total free energy        -105.202434271363 Eh   ::
         ::.................................................::
         :: total energy             -105.594669992596 Eh   ::
         :: zero point energy           0.455202344676 Eh   ::
         :: G(RRHO) w/o ZPVE           -0.062966623444 Eh   ::
         :: G(RRHO) contrib.            0.392235721232 Eh   ::
         :::::::::::::::::::::::::::::::::::::::::::::::::::::

           -------------------------------------------------
          | TOTAL ENERGY             -105.594669992596 Eh   |
          | TOTAL ENTHALPY           -105.104431171747 Eh   |
          | TOTAL FREE ENERGY        -105.202434271363 Eh   |
          | GRADIENT NORM               0.000128055850 Eh/α |
           -------------------------------------------------

 * finished run on 2025/09/07 at 04:52:21.252
