   * xtb version 6.7.1 (edcfbbe) compiled by 'albert@albert-system' on 2024-07-22

   ID    Z sym.   atoms
    1    7 N      1, 7, 15, 23, 27
    2    6 C      2-6, 8-14, 16-22, 24-26, 28-40, 42
    3   16 S      41
    4    1 H      43-63

          program call               : xtb data2507/gas/BTITrz/BTITrz_gas_S0_crest.xyz --gfn 2 --ohess vtight --parallel 40 --molden --ceasefiles --namespace data2507/gas/BTITrz/BTITrz_gas_S0_finalOpt
          :  Hamiltonian                  GFN2-xTB          :
 * total energy  :  -105.6672957 Eh     change       -0.5746344E-08 Eh
 * total energy  :  -105.6672962 Eh     change       -0.5515932E-06 Eh
 * total energy  :  -105.6672969 Eh     change       -0.6688453E-06 Eh
 * total energy  :  -105.6672977 Eh     change       -0.7916959E-06 Eh
 * total energy  :  -105.6672984 Eh     change       -0.7220975E-06 Eh
 * total energy  :  -105.6672986 Eh     change       -0.2259861E-06 Eh
 * total energy  :  -105.6672989 Eh     change       -0.2375533E-06 Eh
 * total energy  :  -105.6672990 Eh     change       -0.1517802E-06 Eh
 * total energy  :  -105.6672992 Eh     change       -0.1595355E-06 Eh
 * total energy  :  -105.6672993 Eh     change       -0.1199289E-06 Eh
 * total energy  :  -105.6672994 Eh     change       -0.7353569E-07 Eh
   *** GEOMETRY OPTIMIZATION CONVERGED AFTER 11 ITERATIONS ***

 final structure:
================
63
 xtb: 6.7.1 (edcfbbe)
N            1.85141836814439        3.63583320539892       -0.89211538589851
C            1.42209184795538        2.64779583347479       -0.50015514133138
C            0.84534467873984        1.42504698983106       -0.08327614376840
C           -0.53669007479963        1.28586358123676       -0.15788674107040
C           -1.13733505249838        0.06871830692643        0.13642751329483
C           -2.59344229334127       -0.06669571090464        0.06461481343287
N           -3.30139437821176        1.01639941502904       -0.23460341182524
C           -4.62175837996529        0.85113564652697       -0.28585345966173
C           -5.44733345791711        2.01222373433701       -0.61272222835602
C           -6.83302286599402        1.88523485493985       -0.69398889356430
C           -7.61082521293312        2.98397555041396       -1.00250787248384
C           -7.01573100094249        4.21503221209830       -1.23193530648988
C           -5.63793885669426        4.34668171558611       -1.15260599640956
C           -4.85403743011802        3.25204533178146       -0.84463193174240
N           -5.23150306078182       -0.30776069796252       -0.05527756193266
C           -4.44506036094412       -1.33885449473121        0.23691218630977
C           -5.07404469447380       -2.63249200489014        0.49857978609861
C           -6.46259420587641       -2.75160071764063        0.48269086533311
C           -7.05436185233796       -3.97442589688001        0.73182007400112
C           -6.26923256311320       -5.08583981240481        0.99716897451524
C           -4.88759382441328       -4.97289645551062        1.01323594510891
C           -4.28930356620975       -3.75289215089805        0.76583550958682
N           -3.11725083234438       -1.26296705817637        0.30688000552206
C           -0.34150706568108       -1.02248087423538        0.48867653875413
C            1.02716608050467       -0.89020154422557        0.57596362203114
C            1.64048468838717        0.33392897760791        0.31442470188260
N            3.02244917980835        0.45431754237919        0.41967417167592
C            3.74380337301142        1.48318148996562        1.02137436191824
C            3.28518340319367        2.55440761991275        1.77014525755496
C            4.22394115912120        3.42093720399321        2.29555591415850
C            5.58794564285047        3.21875767209587        2.09872068664361
C            6.05442792768055        2.12874153946441        1.39418926850617
C            5.13118624639853        1.24014579483377        0.85501907651764
C            5.23837566429093        0.01059700090202        0.13280731178220
C            6.20161821889245       -0.87856583676670       -0.43094269241302
C            7.59304627853039       -0.81723155825919       -0.44343103218695
C            8.31381623760718       -1.81602594205930       -1.06379995341237
C            7.67139902310782       -2.88617324131663       -1.67901752331243
C            6.29168169785060       -2.97155839070227       -1.68342673470718
C            5.56829143057056       -1.97040485816351       -1.06255766896614
S            3.80907540223838       -1.90426481015506       -0.96584450492160
C            3.94415187821095       -0.42655149122063       -0.07961267516066
H           -1.14986066617237        2.12061697380618       -0.46010026338328
H           -7.27812169955801        0.91958442117916       -0.51311058201946
H           -8.68449087279179        2.88404903152137       -1.06530340372048
H           -7.62647242272398        5.07277051338425       -1.47301298723672
H           -5.17631480673548        5.30649003573322       -1.33196985982848
H           -3.78088228753802        3.33727910951997       -0.77860718975756
H           -7.05706766571443       -1.87599529896391        0.27491715510185
H           -8.13059314485155       -4.06505934596397        0.71999461165120
H           -6.73460371487354       -6.04110233158600        1.19150112261619
H           -4.27806324746250       -5.84045662796849        1.21947380377087
H           -3.21597082769994       -3.64694504993941        0.77321694944340
H           -0.81953966697022       -1.96500353660554        0.70158285532340
H            1.63924588725766       -1.73201799273633        0.86215366904158
H            2.23259877593157        2.71036307387771        1.95050229532347
H            3.89172758385372        4.26923522449039        2.87403537045730
H            6.29022323147899        3.92192350927397        2.52072039880169
H            7.11271727284012        1.96067064882965        1.26945852407351
H            8.09326557285648        0.01197416393361        0.03191734153987
H            9.39257278704271       -1.76873224242942       -1.07362944166839
H            8.25415041189691       -3.65760524226654       -2.15894364627303
H            5.78505234062970       -3.79686539062201       -2.15969690357087

          :  Hamiltonian                  GFN2-xTB          :
         :: gradient norm              0.000034281023 Eh/a0 ::
         :: HOMO-LUMO gap              1.864807163749 eV    ::
         :: SCC energy              -107.587677235572 Eh    ::
         :: -> dispersion             -0.088894658172 Eh    ::
         :: repulsion energy           1.920377851703 Eh    ::

    * Orbital Energies and Occupations

         #    Occupation            Energy/Eh            Energy/eV
      -------------------------------------------------------------
         1        2.0000           -0.7359656             -20.0266
       ...           ...                  ...                  ...
        86        2.0000           -0.4256369             -11.5822
        87        2.0000           -0.4230902             -11.5129
        88        2.0000           -0.4218794             -11.4799
        89        2.0000           -0.4156255             -11.3097
        90        2.0000           -0.4145345             -11.2801
        91        2.0000           -0.4120449             -11.2123
        92        2.0000           -0.4108178             -11.1789
        93        2.0000           -0.4098931             -11.1538
        94        2.0000           -0.4031451             -10.9701
        95        2.0000           -0.3786802             -10.3044
        96        2.0000           -0.3774869             -10.2719
        97        2.0000           -0.3767490             -10.2519
        98        2.0000           -0.3668730              -9.9831 (HOMO)
        99                         -0.2983426              -8.1183 (LUMO)
       100                         -0.2915538              -7.9336
       101                         -0.2784484              -7.5770
       102                         -0.2570554              -6.9948
       103                         -0.2470336              -6.7221
       104                         -0.2326708              -6.3313
       105                         -0.2326469              -6.3306
       106                         -0.2315418              -6.3006
       107                         -0.2291929              -6.2367
       108                         -0.2226978              -6.0599
       109                         -0.2158881              -5.8746
       ...                                ...                  ...
       194                          1.1632625              31.6540
      -------------------------------------------------------------
                  HL-Gap            0.0685304 Eh            1.8648 eV

     #   Z          covCN         q      C6AA      α(0)
     1   7 N        0.911    -0.228    25.990     7.373
     2   6 C        1.912     0.117    28.218     8.579
     3   6 C        2.972     0.007    27.864     8.659
     4   6 C        2.935    -0.016    28.411     8.742
     5   6 C        2.982     0.000    28.018     8.683
     6   6 C        2.986     0.202    23.712     7.988
     7   7 N        1.844    -0.295    28.507     7.913
     8   6 C        2.982     0.203    23.685     7.983
     9   6 C        2.984    -0.000    28.029     8.684
    10   6 C        2.924    -0.023    28.576     8.766
    11   6 C        2.918    -0.027    28.673     8.781
    12   6 C        2.920    -0.022    28.560     8.764
    13   6 C        2.918    -0.027    28.666     8.780
    14   6 C        2.924    -0.022    28.565     8.765
    15   7 N        1.844    -0.291    28.392     7.897
    16   6 C        2.982     0.203    23.691     7.984
    17   6 C        2.984    -0.000    28.024     8.684
    18   6 C        2.924    -0.023    28.574     8.766
    19   6 C        2.918    -0.027    28.671     8.781
    20   6 C        2.920    -0.022    28.566     8.765
    21   6 C        2.918    -0.027    28.675     8.781
    22   6 C        2.924    -0.023    28.578     8.767
    23   7 N        1.844    -0.295    28.498     7.912
    24   6 C        2.922    -0.017    28.442     8.746
    25   6 C        2.920    -0.039    28.979     8.828
    26   6 C        2.915     0.076    26.293     8.408
    27   7 N        2.804    -0.036    21.940     6.957
    28   6 C        3.105     0.041    26.943     8.505
    29   6 C        2.909    -0.041    29.007     8.831
    30   6 C        2.925    -0.031    28.781     8.798
    31   6 C        2.920    -0.035    28.863     8.810
    32   6 C        2.912    -0.033    28.821     8.803
    33   6 C        3.088    -0.008    28.118     8.692
    34   6 C        3.189    -0.043    28.562     8.718
    35   6 C        3.095     0.004    27.827     8.646
    36   6 C        2.916    -0.034    28.855     8.809
    37   6 C        2.918    -0.033    28.821     8.804
    38   6 C        2.923    -0.034    28.847     8.808
    39   6 C        2.935    -0.037    28.912     8.818
    40   6 C        3.015     0.032    27.266     8.565
    41  16 S        2.176    -0.096   145.078    20.272
    42   6 C        3.138     0.068    26.262     8.387
    43   1 H        0.926     0.070     2.082     2.257
    44   1 H        0.926     0.056     2.251     2.346
    45   1 H        0.926     0.038     2.472     2.459
    46   1 H        0.926     0.039     2.466     2.456
    47   1 H        0.926     0.040     2.454     2.450
    48   1 H        0.926     0.055     2.259     2.350
    49   1 H        0.926     0.056     2.246     2.344
    50   1 H        0.926     0.038     2.470     2.458
    51   1 H        0.926     0.038     2.471     2.458
    52   1 H        0.926     0.038     2.473     2.459
    53   1 H        0.926     0.054     2.266     2.354
    54   1 H        0.926     0.070     2.089     2.260
    55   1 H        0.926     0.056     2.242     2.341
    56   1 H        0.926     0.028     2.611     2.527
    57   1 H        0.926     0.037     2.485     2.465
    58   1 H        0.926     0.035     2.511     2.478
    59   1 H        0.926     0.036     2.505     2.475
    60   1 H        0.926     0.038     2.471     2.458
    61   1 H        0.926     0.035     2.519     2.482
    62   1 H        0.926     0.035     2.510     2.477
    63   1 H        0.926     0.039     2.467     2.456

molecular dipole:
                 x           y           z       tot (Debye)
 q only:       -0.711      -0.793       0.480
   full:       -0.834      -1.111       0.608       3.854

 projected vibrational frequencies (cm⁻¹)
eigval :       -0.00    -0.00     0.00     0.00     0.00     0.00
eigval :        6.02    14.78    16.92    21.36    23.48    41.22
eigval :       43.03    49.91    57.50    77.83    83.68    88.75
eigval :       90.49   113.72   122.14   132.78   153.10   158.01
eigval :      167.19   168.84   181.92   204.16   211.19   238.98
eigval :      259.80   283.60   298.84   303.83   311.90   352.36
eigval :      359.61   361.51   363.80   364.57   384.35   401.53
eigval :      406.23   410.84   414.94   420.40   433.78   438.34
eigval :      466.49   484.95   489.49   501.45   534.16   544.53
eigval :      555.28   578.17   587.20   587.55   591.80   597.14
eigval :      608.63   614.01   626.87   627.32   646.00   651.23
eigval :      669.50   673.11   673.68   674.59   691.35   694.63
eigval :      700.26   751.72   754.95   768.04   773.41   774.27
eigval :      775.55   795.40   839.66   847.57   865.25   870.36
eigval :      874.60   876.65   876.79   887.11   901.20   903.91
eigval :      909.57   910.60   911.23   920.50   921.41   922.63
eigval :      929.31   929.90   930.55   933.89   934.18   957.75
eigval :      984.76   990.56  1040.30  1048.38  1071.22  1074.96
eigval :     1075.76  1078.43  1089.76  1107.78  1109.66  1112.35
eigval :     1127.53  1152.11  1155.10  1166.90  1172.37  1176.46
eigval :     1180.19  1180.96  1186.54  1192.03  1202.57  1207.24
eigval :     1209.79  1226.95  1231.85  1240.63  1261.83  1268.50
eigval :     1270.38  1306.58  1323.02  1328.43  1329.93  1334.46
eigval :     1354.45  1354.95  1372.30  1373.11  1384.05  1389.20
eigval :     1410.37  1419.90  1422.48  1432.50  1433.84  1447.76
eigval :     1467.74  1474.56  1478.75  1484.85  1505.99  1508.65
eigval :     1518.56  1550.89  1567.39  1576.82  1583.12  1583.54
eigval :     1585.70  1591.10  1594.71  1595.49  1608.86  2370.48
eigval :     3075.89  3076.29  3082.13  3082.16  3082.81  3083.23
eigval :     3086.64  3089.32  3091.16  3091.68  3096.45  3096.81
eigval :     3098.79  3102.27  3103.95  3107.82  3108.12  3108.15
eigval :     3109.84  3110.33  3117.12

   temp. (K)  partition function   enthalpy   heat capacity  entropy
                                   cal/mol     cal/K/mol   cal/K/mol   J/K/mol
 298.15  VIB  0.647E+16            19278.293    118.823    121.542
         ROT  0.752E+08              888.752      2.981     39.022
         INT  0.487E+24            20167.045    121.804    160.564
         TR   0.127E+29             1481.254      4.968     44.810
         TOT                       21648.2994   126.7724   205.3737   859.2834

       T/K    H(0)-H(T)+PV         H(T)/Eh          T*S/Eh         G(T)/Eh
   ------------------------------------------------------------------------
    298.15    0.344988E-01    0.494720E+00    0.975797E-01    0.397141E+00
   ------------------------------------------------------------------------

         :::::::::::::::::::::::::::::::::::::::::::::::::::::
         ::                  THERMODYNAMIC                  ::
         :::::::::::::::::::::::::::::::::::::::::::::::::::::
         :: total free energy        -105.270158843999 Eh   ::
         ::.................................................::
         :: total energy             -105.667299383868 Eh   ::
         :: zero point energy           0.460221431067 Eh   ::
         :: G(RRHO) w/o ZPVE           -0.063080891198 Eh   ::
         :: G(RRHO) contrib.            0.397140539869 Eh   ::
         :::::::::::::::::::::::::::::::::::::::::::::::::::::

           -------------------------------------------------
          | TOTAL ENERGY             -105.667299383868 Eh   |
          | TOTAL ENTHALPY           -105.172579191770 Eh   |
          | TOTAL FREE ENERGY        -105.270158843999 Eh   |
          | GRADIENT NORM               0.000034237879 Eh/α |
          | HOMO-LUMO GAP               1.864806286130 eV   |
           -------------------------------------------------

 * finished run on 2025/09/07 at 04:47:45.392
