   * xtb version 6.7.1 (edcfbbe) compiled by 'albert@albert-system' on 2024-07-22

   ID    Z sym.   atoms
    1    8 O      1, 21, 25
    2   15 P      2, 24
    3    6 C      3-20, 22, 23, 26-48, 50-79
    4    7 N      49
    5    1 H      80-128

          program call               : xtb data2507/gas/9CzFDBFDPO/9CzFDBFDPO_gas_T1_crest.xyz --gfn 2 --spinpol --tblite --uhf 2 --ohess vtight --parallel 40 --molden --ceasefiles --namespace data2507/gas/9CzFDBFDPO/9CzFDBFDPO_gas_T1_finalOpt
 * total energy  :  -201.5261078 Eh     change       -0.1451542E-07 Eh
 * total energy  :  -201.5261653 Eh     change       -0.5753236E-04 Eh
 * total energy  :  -201.5261888 Eh     change       -0.2351230E-04 Eh
 * total energy  :  -201.5261924 Eh     change       -0.3510232E-05 Eh
 * total energy  :  -201.5261969 Eh     change       -0.4546439E-05 Eh
 * total energy  :  -201.5262014 Eh     change       -0.4493599E-05 Eh
 * total energy  :  -201.5262070 Eh     change       -0.5624530E-05 Eh
 * total energy  :  -201.5262116 Eh     change       -0.4582733E-05 Eh
 * total energy  :  -201.5262155 Eh     change       -0.3916109E-05 Eh
 * total energy  :  -201.5262195 Eh     change       -0.3945346E-05 Eh
 * total energy  :  -201.5262610 Eh     change       -0.7514972E-06 Eh
 * total energy  :  -201.5262621 Eh     change       -0.1015007E-05 Eh
 * total energy  :  -201.5262633 Eh     change       -0.1253205E-05 Eh
 * total energy  :  -201.5262636 Eh     change       -0.2660936E-06 Eh
 * total energy  :  -201.5262642 Eh     change       -0.6292119E-06 Eh
 * total energy  :  -201.5262643 Eh     change       -0.1242164E-06 Eh
 * total energy  :  -201.5262645 Eh     change       -0.1245117E-06 Eh
 * total energy  :  -201.5262646 Eh     change       -0.1132308E-06 Eh
 * total energy  :  -201.5262647 Eh     change       -0.7954969E-07 Eh
   *** GEOMETRY OPTIMIZATION CONVERGED AFTER 49 ITERATIONS ***

 final structure:
================
128
 xtb: 6.7.1 (edcfbbe)
O            8.15006878694738       -3.21572204144997        2.28218513732401
P            7.24232258244635       -2.50365376414674        1.37375938911673
C            7.07311490802910       -3.33088540291928       -0.23928238828072
C            6.10576261251409       -2.98330708773363       -1.17222198762808
C            6.01740503885109       -3.68536518709668       -2.36020715622916
C            6.89506928785782       -4.72542635683060       -2.62229482916568
C            7.86141481667177       -5.07255142342590       -1.69184713906013
C            7.94559558264434       -4.37952359678628       -0.49792332937352
C            7.81257498650113       -0.80572583088324        1.04715690375521
C            7.34787281105280        0.27441649843811        1.78039945004592
C            7.90395186380324        1.52602121792841        1.58311778809093
C            8.91946821503967        1.69696426216569        0.65684020318109
C            9.40024835258462        0.61232906655600       -0.05943727785089
C            8.85234285502143       -0.64142889703004        0.14318355457357
C            5.54692334603532       -2.39631479993428        2.02031265233579
C            5.22839094904474       -3.29258809507500        3.03501970810194
C            3.95189966429630       -3.37897929270656        3.57056294764766
C            2.93138156101040       -2.56944305667961        3.09576166094371
C            3.22204261594442       -1.66324687122065        2.09049941834785
C            4.52698092907896       -1.57072020596769        1.56109789223109
O            4.60874828034841       -0.60909207364494        0.60245264830359
C            3.36753028540861       -0.07416677348676        0.48328298346412
C            2.94272605040219        0.96556579412775       -0.37754695855465
P            3.98011452245715        1.93016242458264       -1.51260239442316
O            3.16948888873677        2.78648564733459       -2.38998708805139
C            5.03122515381146        0.77745949396750       -2.44787574823718
C            6.28009764298814        0.35974160754694       -2.01262095409677
C            7.04353578147195       -0.46168513978339       -2.82290159661892
C            6.55885621238207       -0.87606495826869       -4.05279685256711
C            5.30436113496391       -0.47030584428088       -4.48002389004640
C            4.54307790380108        0.36120437139368       -3.67956976280569
C            5.09639948258290        2.92273228570712       -0.46568966472485
C            4.77948429678658        3.22531805433563        0.84908486986646
C            5.55413473487798        4.13288998899904        1.55133962753589
C            6.63902854154994        4.73949711105820        0.93984333935178
C            6.95348841993786        4.43909390995502       -0.37619010515922
C            6.17917789055794        3.53614070065773       -1.08043916484911
C            1.62376358567312        1.31927352771990       -0.34336757887136
C            0.63867088724763        0.71032381327025        0.50503717284081
C           -0.70789012613663        1.09197215785901        0.46416088437286
C           -1.16840251786258        2.24899760860007       -0.26678712621675
C           -2.48240523388442        2.59123178981216       -0.32159361782764
C           -3.47587730423507        1.81344577325001        0.31203783739226
C           -4.92598461244036        2.21141202932231        0.28833478487404
C           -5.85776165201380        1.02375428621957        0.21264693411857
C           -7.08521000901349        1.03004308159934        0.86301338501636
C           -7.95335971841867       -0.03768805105152        0.74278084116915
C           -7.61232587484837       -1.13039646748596       -0.04873692661907
N           -8.48963074441204       -2.21525465416279       -0.17523678701562
C           -9.82876264287002       -2.13784478327558       -0.50075745312940
C          -10.59861410015275       -1.02688874830540       -0.81600038235544
C          -11.92729925714876       -1.23356704194377       -1.13510643618660
C          -12.48137351925318       -2.51138183186346       -1.15124878576754
C          -11.71360922896359       -3.62319983754910       -0.86227777959748
C          -10.37656745479642       -3.44110457017354       -0.53859446712353
C           -9.30589581506805       -4.34319195022157       -0.21346561656441
C           -9.22652159589766       -5.72190864230036       -0.07774383455439
C           -8.01408048213351       -6.28320909351304        0.27453076622640
C           -6.89517778875387       -5.48639859927699        0.50491922010907
C           -6.94963485409788       -4.11147193157209        0.37640719759241
C           -8.15876427827521       -3.54390172419166       -0.00079334468729
C           -6.39009913718765       -1.13564539760770       -0.71546852175273
C           -5.52488128536932       -0.06915434310287       -0.58158580472599
C           -5.14772702614772        3.09845562537118        1.50230573589869
C           -4.99008018086817        2.78910010689871        2.83725262184642
C           -5.22652131852019        3.77828500807046        3.78108550374627
C           -5.60199887834244        5.05682073975985        3.39376686254006
C           -5.75467662394486        5.37506728632695        2.05450040999682
C           -5.52598769923378        4.39090867141757        1.10674419268420
C           -5.61775440101549        4.42552663195570       -0.34242398557371
C           -5.97351066149027        5.44889815744544       -1.20610371413310
C           -5.97984326934292        5.19574428870076       -2.56803017084988
C           -5.64023450188694        3.94431236024289       -3.05939373252565
C           -5.28286949701671        2.91466907028866       -2.19876482197243
C           -5.26951261579175        3.16308746443243       -0.84351848675212
C           -3.05036266226822        0.69610352440025        1.06627736341821
C           -1.73923049001870        0.35135764919242        1.15066865977727
C            1.12167005829221       -0.32811143728456        1.39994886075542
C            2.44240467555580       -0.68649648899983        1.36579437053138
H            5.43148897466663       -2.16521186446640       -0.97542347837808
H            5.26219245441523       -3.41749323320327       -3.08469461619321
H            6.82238927130175       -5.26927646447501       -3.55293326460291
H            8.54358294366726       -5.88502310011873       -1.89579132459364
H            8.67923212548302       -4.63828331535586        0.25239339032965
H            6.56103733330702        0.13225369411786        2.50819707488353
H            7.54655302439289        2.37048729541931        2.15276542728342
H            9.34404931283010        2.67771127656780        0.50200007015427
H           10.20364567498583        0.74562641842814       -0.76945982913465
H            9.22501725321997       -1.50714794437583       -0.38946459977937
H            6.02274304229825       -3.92540697593177        3.40339981829168
H            3.75198087770781       -4.08763711330160        4.35967759816095
H            1.93260732972627       -2.63707353067344        3.49868576191176
H            6.65140836028635        0.68249055979567       -1.05148410039316
H            8.02191753912005       -0.77791498886586       -2.49406156198631
H            7.16253453052654       -1.51612018693423       -4.67968971145796
H            4.92680395679692       -0.79396606634784       -5.43927765510287
H            3.57338617587344        0.71563435823149       -3.99992910428728
H            3.92346989839998        2.75778768297417        1.31678057440845
H            5.30601974346799        4.37338721075429        2.57542722348689
H            7.23782606774564        5.45217665654041        1.48846225777884
H            7.79457425255747        4.91914694627932       -0.85507655761416
H            6.39840042924547        3.30447069280656       -2.11441294810812
H            1.32691738064180        2.09254312894265       -1.03452017477667
H           -0.44908765819524        2.88067517136873       -0.76040962129905
H           -2.78172341655928        3.47460190243401       -0.86692861879706
H           -7.36059420987858        1.87360899749189        1.47869344731597
H           -8.89304621974292       -0.03708370746774        1.27453256250237
H          -10.17317460463915       -0.03477850301521       -0.82466628452519
H          -12.54854864800051       -0.38530287899861       -1.38137325863141
H          -13.52438247429714       -2.63103261153896       -1.40335431682605
H          -12.13945444387561       -4.61465900879158       -0.89115763420724
H          -10.09718383089755       -6.33874544059581       -0.24085738805497
H           -7.93037313230267       -7.35419585157421        0.38273002692378
H           -5.96500259868399       -5.95285784590255        0.79369946012452
H           -6.08161622318769       -3.50087656200721        0.57386831362591
H           -6.13280307151796       -1.97006928658719       -1.35065559618636
H           -4.57658336298904       -0.08302385904737       -1.09907540001892
H           -4.69481665348649        1.79790352189328        3.14714951452319
H           -5.11573107870118        3.54970219207139        4.83081861143425
H           -5.77572958659454        5.81161943045189        4.14661432129426
H           -6.04550103541949        6.37081190985029        1.75479393904570
H           -6.23957466141663        6.42382882904017       -0.82590075441021
H           -6.25304342000144        5.98184417865923       -3.25663112846279
H           -5.65278727721077        3.76741939118499       -4.12466855313095
H           -5.01857733445886        1.94266891999342       -2.58794279716118
H           -3.79360851132575        0.09816263936124        1.57539146633765
H           -1.47096983270377       -0.52345820271578        1.71958213918470
H            0.46181249936007       -0.79749610126204        2.10776104027880

 projected vibrational frequencies (cm⁻¹)
eigval :       -0.00    -0.00    -0.00    -0.00     0.00     0.00
eigval :        4.59     5.25    10.09    12.31    17.27    20.97
eigval :       22.93    24.77    27.21    28.92    31.18    32.68
eigval :       39.92    42.28    43.35    49.88    52.23    55.32
eigval :       61.90    67.16    71.22    74.18    79.96    84.40
eigval :       89.23    95.36    98.56   102.26   106.04   108.75
eigval :      127.01   130.68   135.34   144.56   150.26   150.99
eigval :      158.42   165.47   173.67   176.65   185.92   194.93
eigval :      201.64   206.14   219.77   228.33   237.22   238.40
eigval :      239.12   243.44   253.18   253.76   258.92   270.75
eigval :      271.27   274.00   279.31   281.28   283.64   315.28
eigval :      317.83   328.39   332.57   349.69   359.37   361.44
eigval :      363.38   366.78   369.18   370.63   384.53   387.47
eigval :      389.72   394.07   398.98   406.21   412.30   414.29
eigval :      417.53   423.23   435.08   435.32   441.32   449.49
eigval :      455.48   466.10   472.95   477.79   485.50   495.12
eigval :      502.62   508.34   514.56   516.79   518.01   524.76
eigval :      536.17   537.12   539.69   543.56   563.80   568.51
eigval :      579.35   584.51   585.94   586.09   586.62   587.09
eigval :      587.28   593.80   595.05   599.32   615.19   622.69
eigval :      624.70   642.06   653.42   657.14   657.71   658.54
eigval :      661.19   670.96   673.40   674.19   680.09   689.42
eigval :      691.69   691.91   708.67   711.16   719.56   720.06
eigval :      722.75   728.04   731.06   740.26   741.96   743.06
eigval :      744.66   753.98   756.91   766.41   766.91   769.58
eigval :      777.89   780.02   783.95   785.69   795.97   818.76
eigval :      827.51   833.30   841.56   867.16   872.87   875.03
eigval :      876.74   877.37   878.12   880.14   881.41   882.26
eigval :      889.87   890.44   891.54   898.25   898.76   900.23
eigval :      901.30   903.47   903.57   903.88   904.36   905.24
eigval :      907.68   910.20   911.59   913.63   913.90   920.13
eigval :      921.43   925.04   925.21   926.88   927.27   927.56
eigval :      928.73   929.61   933.28   934.53   935.05   936.13
eigval :      936.52   952.69   962.81   972.62   973.20   975.27
eigval :      976.31   977.27  1002.83  1011.96  1022.46  1042.26
eigval :     1069.64  1073.16  1075.42  1077.99  1078.38  1078.49
eigval :     1079.18  1080.11  1081.63  1096.04  1103.51  1112.60
eigval :     1113.56  1114.99  1115.43  1117.55  1122.87  1124.79
eigval :     1130.47  1131.70  1138.58  1142.85  1145.58  1149.85
eigval :     1158.97  1170.84  1172.77  1176.21  1177.11  1179.55
eigval :     1179.69  1180.42  1181.02  1181.88  1182.11  1183.38
eigval :     1189.25  1190.48  1192.51  1193.19  1193.33  1199.06
eigval :     1202.06  1208.39  1216.92  1221.50  1233.33  1234.83
eigval :     1238.32  1242.97  1249.19  1249.66  1251.86  1256.34
eigval :     1263.84  1268.43  1270.41  1271.01  1271.72  1273.38
eigval :     1274.40  1285.90  1297.79  1298.06  1308.84  1317.52
eigval :     1319.91  1321.14  1323.12  1323.89  1325.69  1326.69
eigval :     1342.39  1355.24  1355.85  1356.73  1362.24  1364.12
eigval :     1366.36  1380.79  1390.27  1407.50  1421.71  1422.03
eigval :     1423.88  1424.89  1425.87  1427.59  1427.97  1428.69
eigval :     1453.12  1454.25  1454.54  1456.90  1457.48  1457.86
eigval :     1460.01  1470.19  1470.56  1483.12  1486.40  1488.72
eigval :     1491.26  1505.47  1554.15  1564.12  1572.39  1574.38
eigval :     1579.13  1582.33  1583.45  1585.65  1585.71  1585.93
eigval :     1586.12  1586.28  1586.87  1588.37  1588.63  1590.80
eigval :     1591.21  1593.25  1595.99  1600.57  1611.27  3050.26
eigval :     3058.69  3061.10  3065.62  3066.31  3071.52  3072.54
eigval :     3073.09  3075.98  3076.68  3077.05  3077.21  3077.73
eigval :     3078.78  3079.46  3079.52  3079.74  3080.56  3081.58
eigval :     3082.76  3083.36  3083.60  3083.91  3084.57  3085.08
eigval :     3085.57  3087.41  3088.32  3089.01  3090.20  3090.34
eigval :     3090.49  3090.83  3091.62  3092.53  3093.65  3094.68
eigval :     3095.74  3096.08  3097.60  3097.85  3098.15  3098.75
eigval :     3099.70  3100.15  3106.85  3113.95  3117.31  3128.29

   temp. (K)  partition function   enthalpy   heat capacity  entropy
                                   cal/mol     cal/K/mol   cal/K/mol   J/K/mol
 298.15  VIB  0.992E+33            39546.724    241.843    250.577
         ROT  0.438E+09              888.752      2.981     42.521
         INT  0.434E+42            40435.477    244.824    293.098
         TR   0.329E+29             1481.254      4.968     46.706
         TOT                       41916.7306   249.7925   339.8038  1421.7390

       T/K    H(0)-H(T)+PV         H(T)/Eh          T*S/Eh         G(T)/Eh
   ------------------------------------------------------------------------
    298.15    0.667986E-01    0.103581E+01    0.161452E+00    0.874356E+00
   ------------------------------------------------------------------------

         :::::::::::::::::::::::::::::::::::::::::::::::::::::
         ::                  THERMODYNAMIC                  ::
         :::::::::::::::::::::::::::::::::::::::::::::::::::::
         :: total free energy        -200.651908623131 Eh   ::
         ::.................................................::
         :: total energy             -201.526264696529 Eh   ::
         :: zero point energy           0.969009254149 Eh   ::
         :: G(RRHO) w/o ZPVE           -0.094653180750 Eh   ::
         :: G(RRHO) contrib.            0.874356073399 Eh   ::
         :::::::::::::::::::::::::::::::::::::::::::::::::::::

           -------------------------------------------------
          | TOTAL ENERGY             -201.526264696529 Eh   |
          | TOTAL ENTHALPY           -200.490456880203 Eh   |
          | TOTAL FREE ENERGY        -200.651908623131 Eh   |
          | GRADIENT NORM               0.000146890004 Eh/α |
           -------------------------------------------------

 * finished run on 2025/07/17 at 09:17:57.707
