   * xtb version 6.7.1 (edcfbbe) compiled by 'albert@albert-system' on 2024-07-22

   ID    Z sym.   atoms
    1    8 O      1, 21, 25
    2   15 P      2, 24
    3    6 C      3-20, 22, 23, 26-48, 50-79
    4    7 N      49
    5    1 H      80-128

          program call               : xtb data2507/gas/9CzFDBFDPO/9CzFDBFDPO_gas_S0_finalOpt.xtbopt.xyz --gfn 2 --spinpol --tblite --uhf 2 --ohess vtight --parallel 40 --molden --ceasefiles --namespace data2507/gas/9CzFDBFDPO/9CzFDBFDPO_gas_T1_preOpt
 * total energy  :  -201.5181370 Eh     change       -0.1238791E-07 Eh
 * total energy  :  -201.5197005 Eh     change       -0.1563484E-02 Eh
 * total energy  :  -201.5201115 Eh     change       -0.4109975E-03 Eh
 * total energy  :  -201.5202027 Eh     change       -0.9118055E-04 Eh
 * total energy  :  -201.5203061 Eh     change       -0.1034292E-03 Eh
 * total energy  :  -201.5203643 Eh     change       -0.5821289E-04 Eh
 * total energy  :  -201.5204116 Eh     change       -0.4722564E-04 Eh
 * total energy  :  -201.5204391 Eh     change       -0.2757493E-04 Eh
 * total energy  :  -201.5204575 Eh     change       -0.1835853E-04 Eh
 * total energy  :  -201.5204744 Eh     change       -0.1693085E-04 Eh
 * total energy  :  -201.5205820 Eh     change       -0.3231972E-06 Eh
 * total energy  :  -201.5205822 Eh     change       -0.2350020E-06 Eh
 * total energy  :  -201.5205825 Eh     change       -0.2667755E-06 Eh
 * total energy  :  -201.5205827 Eh     change       -0.1707430E-06 Eh
 * total energy  :  -201.5205830 Eh     change       -0.3407445E-06 Eh
 * total energy  :  -201.5205832 Eh     change       -0.1626483E-06 Eh
 * total energy  :  -201.5205831 Eh     change        0.7711554E-07 Eh
 * total energy  :  -201.5205834 Eh     change       -0.2606632E-06 Eh
 * total energy  :  -201.5205835 Eh     change       -0.9924588E-07 Eh
   *** GEOMETRY OPTIMIZATION CONVERGED AFTER 60 ITERATIONS ***

 final structure:
================
128
 xtb: 6.7.1 (edcfbbe)
O            8.48164511507670       -2.00695405967468        2.87948419364303
P            7.49426203081937       -1.63053633873348        1.85827241077980
C            7.26381180184382       -2.96453507258575        0.63464461401935
C            6.18519589520173       -3.83249159140256        0.69530385890771
C            6.14410089179536       -4.93787412050084       -0.13750491640533
C            7.17907017948397       -5.17667640408264       -1.02661344297968
C            8.25885749013120       -4.30971824063106       -1.08565940749581
C            8.30443002912086       -3.20875050016284       -0.25108796165880
C            7.99900285928506       -0.15177026599310        0.92705296166033
C            8.77154439524599        0.77301981381668        1.61740551791416
C            9.25684215864348        1.89240742787859        0.96687902688473
C            8.97942293601269        2.08004587409830       -0.37799276945356
C            8.20741967784818        1.15746417113114       -1.06494972797965
C            7.70862326085120        0.04255648639122       -0.41510466808148
C            5.85847046421624       -1.33122104276347        2.58973789336451
C            5.70025391687203       -1.73354467487277        3.91690936649579
C            4.48606594480592       -1.61972165649015        4.58011990678528
C            3.37523296634284       -1.10299356864751        3.94195330042070
C            3.50964344772134       -0.68195344406849        2.61984042243434
C            4.74995530632669       -0.79176395690979        1.95768516402547
O            4.67634124532575       -0.31332442461262        0.68406566454376
C            3.39339951602853        0.10613579137467        0.50424368782256
C            2.83926405877754        0.67223873400701       -0.63514506629812
P            3.70042070056223        1.11623254051851       -2.17057599187703
O            2.77492408782429        1.38317609824548       -3.28004796906804
C            4.84963532423223       -0.23880455320043       -2.56938575529694
C            5.91242858219123        0.05011050026709       -3.41327632022455
C            6.75382627683648       -0.96256088726636       -3.83705557059938
C            6.51963434931231       -2.26667572643341       -3.43066403668819
C            5.43852048696312       -2.55922536014305       -2.61581541921749
C            4.60123553225729       -1.54612595654744       -2.18315297865845
C            4.71420892460080        2.56758960267645       -1.74492194562946
C            5.47116022786307        2.65075456369955       -0.58417328098934
C            6.18204726547142        3.80497152092982       -0.31179475558421
C            6.14708889192400        4.87105576426566       -1.19681823160148
C            5.39219064673378        4.78894673748323       -2.35592564268436
C            4.67057425389423        3.64047914318323       -2.62564216200447
C            1.48694410117390        1.00047059419835       -0.59005812824368
C            0.69370284561494        0.78495858600927        0.53964974037730
C           -0.73174335813458        1.13391378222044        0.51217826178880
C           -1.17791089045104        2.27883769180708       -0.14654729004415
C           -2.52046765029428        2.59815004518141       -0.18105829427355
C           -3.46032862236803        1.77629641123572        0.42906538919820
C           -4.92721456104770        2.13958133300018        0.43662820847597
C           -5.83215799074855        0.94341736552840        0.30488201087527
C           -7.08655346512178        0.90835527764091        0.93152273132542
C           -7.94321436079241       -0.14464947235525        0.74386390658746
C           -7.57479354937822       -1.22818244505800       -0.08106150277301
N           -8.42154824348158       -2.30082420965326       -0.25671264495254
C           -9.78967078316639       -2.22526222031312       -0.46457069079714
C          -10.59197575548588       -1.11194793493356       -0.63265456116903
C          -11.95283175632986       -1.31509681893729       -0.86575013302926
C          -12.47822463196985       -2.60362731237285       -0.93951446163915
C          -11.67574349590047       -3.72629723048924       -0.81120815875631
C          -10.30959311520928       -3.54968251617438       -0.58721939460893
C           -9.20730502825465       -4.44013554814200       -0.45726532849495
C           -9.07789776117397       -5.82962484657344       -0.47646820770975
C           -7.82584259460485       -6.38325073416810       -0.26041341215262
C           -6.70733263687905       -5.59030309356013       -0.01219858658811
C           -6.80894153645064       -4.19853067375509        0.00269178281068
C           -8.04629356392100       -3.63533985635544       -0.24841176994893
C           -6.31908604374731       -1.18895421989871       -0.72371535828979
C           -5.48188767986295       -0.12098310012491       -0.54224329336222
C           -5.21499999156046        2.98010529477955        1.66792904890921
C           -5.00926528988003        2.65985157585352        2.99080967574980
C           -5.34232245018127        3.59664163862600        3.96229713028286
C           -5.86622687987163        4.83172893012778        3.60735567731441
C           -6.06874272478575        5.16218814688481        2.27869509651867
C           -5.74051779715674        4.23091594618228        1.30316180337316
C           -5.83716156625586        4.29073514573785       -0.14007708804535
C           -6.30031245801680        5.29165984557744       -0.98239199530869
C           -6.26234831304722        5.08164630395256       -2.34890751049326
C           -5.77261958340679        3.89108408797592       -2.87365380155042
C           -5.31672149947207        2.88097008602354       -2.03860751722168
C           -5.34262582546589        3.08773420023668       -0.67599974182387
C           -3.01823711145085        0.64095304959963        1.10142512537774
C           -1.67614801571020        0.32434749943664        1.14191456744335
C            1.26586482330642        0.23360857916092        1.68236104866562
C            2.61519853981516       -0.10587420861419        1.66078112414740
H            5.38478153431459       -3.64649401328318        1.39865316395708
H            5.30598376068223       -5.61861433729874       -0.08753871920347
H            7.14668467560484       -6.04315872807992       -1.67139528397825
H            9.06946632393053       -4.50073213597363       -1.77391485869543
H            9.14924330832444       -2.53291173202824       -0.26924947204838
H            8.99721476164093        0.58681020955133        2.65807675995698
H            9.85912049367675        2.61214903800841        1.50237805235732
H            9.36660179814831        2.94660653966378       -0.89407478928582
H            7.99510861917716        1.30546980272177       -2.11301670969496
H            7.10339007348866       -0.67755274480141       -0.94487970572610
H            6.56498201167514       -2.14357764752813        4.41680854974799
H            4.41173858031411       -1.94594601916943        5.60676235098987
H            2.42518475413834       -1.01843977321959        4.44614458565602
H            6.06363480402584        1.07323460546441       -3.73331255114662
H            7.58820536446614       -0.73958834553255       -4.48633450747107
H            7.17460691548644       -3.06054937265293       -3.75780412629233
H            5.24899266935447       -3.57946015731948       -2.31806055330060
H            3.75106856312186       -1.76823789107468       -1.55323598351275
H            5.51107456015245        1.81668129895378        0.09784902245477
H            6.76752374519991        3.87122748916338        0.59358747535184
H            6.70647244731488        5.76948258803465       -0.97976438435860
H            5.36322199945606        5.62119052170332       -3.04428918333846
H            4.06068149575661        3.55525953383601       -3.51392292327126
H            1.05104046524397        1.40523030751067       -1.49148715969232
H           -0.46179292454637        2.93325338329652       -0.62012624117174
H           -2.84490590789329        3.49372661478886       -0.69050341438864
H           -7.37111063682568        1.71573414945821        1.58938617307126
H           -8.87872549996207       -0.18893416513166        1.28026515690369
H          -10.18579009564219       -0.11251274035146       -0.61042361234635
H          -12.59988842477997       -0.46300385953607       -0.99809973145951
H          -13.53655655234048       -2.72770122685140       -1.11658064509775
H          -12.09258872604834       -4.71804383239124       -0.88915471776795
H           -9.93898329097455       -6.45578792123335       -0.64919301827004
H           -7.71390834641786       -7.45756753829263       -0.26968167377753
H           -5.75248787145160       -6.05321427979274        0.17820385087130
H           -5.94512971265011       -3.59195793542478        0.22642460095520
H           -6.05636269306106       -1.97941648920163       -1.41006929614320
H           -4.53382230183286       -0.09368780716779       -1.05872182513577
H           -4.59812266929038        1.70197936043379        3.27316286295473
H           -5.18951344711204        3.36042778720038        5.00486268311602
H           -6.11651734631078        5.54436376255935        4.37968502365430
H           -6.47329917978731        6.12527297251654        2.00564832783892
H           -6.68278920964971        6.21654248090636       -0.57703366673945
H           -6.61748817739738        5.85056532126677       -3.01925257407188
H           -5.74657439683816        3.75034565957829       -3.94387573268255
H           -4.94009418989829        1.95795094487724       -2.45384031343387
H           -3.73524478797070       -0.00603453937012        1.58724766782106
H           -1.35603180540508       -0.57502929412419        1.64734884951766
H            0.68607670608697        0.08878893964584        2.58030937044197

 projected vibrational frequencies (cm⁻¹)
eigval :       -0.00    -0.00    -0.00     0.00     0.00     0.00
eigval :        5.07     5.44    10.93    13.20    16.12    17.86
eigval :       21.26    25.61    27.57    30.82    31.53    32.47
eigval :       38.92    42.63    44.83    49.52    52.76    57.65
eigval :       64.48    70.04    73.39    74.82    81.53    85.28
eigval :       92.96    95.33   100.68   102.82   106.49   114.21
eigval :      129.90   133.31   141.63   146.66   149.89   157.75
eigval :      160.37   167.23   175.30   177.51   192.00   196.11
eigval :      199.38   211.04   226.12   227.88   234.96   237.01
eigval :      239.34   249.47   253.73   258.05   258.76   267.76
eigval :      271.65   274.68   277.60   291.58   300.15   307.44
eigval :      323.33   337.17   340.79   347.19   361.23   363.18
eigval :      366.55   368.92   370.79   375.60   378.32   384.66
eigval :      385.82   392.37   394.94   406.13   409.65   412.23
eigval :      421.38   427.70   434.53   438.07   443.88   459.42
eigval :      461.28   467.25   468.01   477.47   479.00   485.47
eigval :      497.47   498.69   504.24   511.73   515.85   527.12
eigval :      531.09   544.77   548.20   549.49   565.69   568.95
eigval :      578.92   584.80   585.92   586.02   586.96   587.44
eigval :      591.57   594.12   600.04   605.70   611.00   622.35
eigval :      634.24   647.33   656.62   657.44   658.70   659.57
eigval :      661.89   670.85   674.28   677.20   678.63   681.12
eigval :      690.27   697.39   699.97   707.37   716.27   718.26
eigval :      720.36   720.77   740.06   741.79   741.99   742.93
eigval :      743.11   744.11   744.25   748.75   761.30   778.56
eigval :      788.66   789.49   803.97   810.32   818.71   825.71
eigval :      826.61   835.63   838.32   858.03   861.34   862.73
eigval :      868.97   870.89   873.06   873.87   875.33   877.16
eigval :      878.18   878.31   880.18   881.47   888.22   888.53
eigval :      896.53   897.13   898.28   900.20   900.85   901.96
eigval :      904.02   904.73   905.42   906.24   908.33   914.31
eigval :      917.88   920.24   922.01   922.40   924.55   925.03
eigval :      926.46   926.86   928.47   929.44   932.64   933.12
eigval :      933.88   934.67   936.40   972.73   973.07   976.22
eigval :      977.12   994.23  1000.05  1000.84  1012.40  1051.61
eigval :     1057.82  1058.98  1072.26  1072.99  1078.09  1078.22
eigval :     1078.39  1079.20  1080.88  1090.34  1100.56  1100.70
eigval :     1112.48  1113.55  1114.87  1115.34  1121.56  1123.04
eigval :     1124.25  1129.82  1131.55  1136.34  1139.78  1142.57
eigval :     1145.38  1149.17  1156.91  1169.12  1172.70  1173.66
eigval :     1179.26  1179.69  1179.84  1181.18  1181.95  1182.40
eigval :     1188.73  1189.35  1190.72  1191.68  1193.21  1193.76
eigval :     1199.29  1199.85  1209.95  1213.52  1215.41  1220.89
eigval :     1226.81  1233.31  1235.85  1242.23  1250.14  1251.72
eigval :     1251.88  1260.13  1264.58  1268.25  1270.51  1271.46
eigval :     1271.70  1272.16  1273.91  1275.48  1279.44  1305.23
eigval :     1318.72  1319.90  1321.27  1323.20  1324.05  1327.29
eigval :     1329.14  1337.27  1340.20  1348.48  1355.18  1363.86
eigval :     1378.00  1378.68  1384.09  1385.31  1403.22  1413.22
eigval :     1421.10  1421.70  1423.78  1424.77  1425.69  1427.45
eigval :     1428.79  1438.17  1441.77  1450.05  1453.50  1453.87
eigval :     1453.96  1457.07  1457.50  1457.85  1459.97  1465.89
eigval :     1474.10  1478.05  1494.93  1516.33  1528.30  1536.75
eigval :     1538.66  1541.67  1555.35  1558.31  1560.27  1577.56
eigval :     1580.00  1580.56  1583.35  1583.60  1585.44  1585.98
eigval :     1586.47  1588.88  1589.04  1590.95  1594.94  3050.13
eigval :     3058.60  3061.47  3066.25  3067.84  3070.98  3071.50
eigval :     3071.90  3075.18  3076.13  3076.19  3076.53  3077.15
eigval :     3078.44  3080.23  3080.60  3080.96  3080.98  3082.24
eigval :     3082.62  3082.91  3083.20  3084.10  3084.56  3086.34
eigval :     3086.54  3086.95  3087.67  3088.29  3088.81  3089.79
eigval :     3090.23  3090.80  3091.73  3092.38  3093.94  3094.97
eigval :     3095.25  3096.05  3096.92  3097.23  3097.39  3098.28
eigval :     3099.63  3099.80  3100.24  3106.74  3107.28  3116.14

   temp. (K)  partition function   enthalpy   heat capacity  entropy
                                   cal/mol     cal/K/mol   cal/K/mol   J/K/mol
 298.15  VIB  0.554E+33            39492.012    242.687    249.591
         ROT  0.436E+09              888.752      2.981     42.515
         INT  0.242E+42            40380.765    245.668    292.105
         TR   0.329E+29             1481.254      4.968     46.706
         TOT                       41862.0186   250.6360   338.8115  1417.5875

       T/K    H(0)-H(T)+PV         H(T)/Eh          T*S/Eh         G(T)/Eh
   ------------------------------------------------------------------------
    298.15    0.667114E-01    0.103261E+01    0.160980E+00    0.871628E+00
   ------------------------------------------------------------------------

         :::::::::::::::::::::::::::::::::::::::::::::::::::::
         ::                  THERMODYNAMIC                  ::
         :::::::::::::::::::::::::::::::::::::::::::::::::::::
         :: total free energy        -200.648955236507 Eh   ::
         ::.................................................::
         :: total energy             -201.520583475639 Eh   ::
         :: zero point energy           0.965897161404 Eh   ::
         :: G(RRHO) w/o ZPVE           -0.094268922272 Eh   ::
         :: G(RRHO) contrib.            0.871628239133 Eh   ::
         :::::::::::::::::::::::::::::::::::::::::::::::::::::

           -------------------------------------------------
          | TOTAL ENERGY             -201.520583475639 Eh   |
          | TOTAL ENTHALPY           -200.487974941199 Eh   |
          | TOTAL FREE ENERGY        -200.648955236507 Eh   |
          | GRADIENT NORM               0.000053663259 Eh/α |
           -------------------------------------------------

 * finished run on 2025/07/17 at 08:40:33.364
