   * xtb version 6.7.1 (edcfbbe) compiled by 'albert@albert-system' on 2024-07-22

   ID    Z sym.   atoms
    1    8 O      1, 21, 25
    2   15 P      2, 24
    3    6 C      3-20, 22, 23, 26-48, 50-79
    4    7 N      49
    5    1 H      80-128

          program call               : xtb data2507/gas/9CzFDBFDPO/9CzFDBFDPO.xyz --gfn 2 --ohess vtight --parallel 40 --molden --ceasefiles --namespace data2507/gas/9CzFDBFDPO/9CzFDBFDPO_gas_S0_preOpt
          :  Hamiltonian                  GFN2-xTB          :
 * total energy  :  -201.5862529 Eh     change       -0.3885646E-08 Eh
 * total energy  :  -201.6122803 Eh     change       -0.2602748E-01 Eh
 * total energy  :  -201.6206041 Eh     change       -0.8323782E-02 Eh
 * total energy  :  -201.6228917 Eh     change       -0.2287589E-02 Eh
 * total energy  :  -201.6248703 Eh     change       -0.1978578E-02 Eh
 * total energy  :  -201.6258752 Eh     change       -0.1004879E-02 Eh
 * total energy  :  -201.6265101 Eh     change       -0.6349247E-03 Eh
 * total energy  :  -201.6269620 Eh     change       -0.4518751E-03 Eh
 * total energy  :  -201.6272670 Eh     change       -0.3050674E-03 Eh
 * total energy  :  -201.6275223 Eh     change       -0.2553062E-03 Eh
 * total energy  :  -201.6298631 Eh     change       -0.1007374E-05 Eh
 * total energy  :  -201.6298642 Eh     change       -0.1100829E-05 Eh
 * total energy  :  -201.6298651 Eh     change       -0.9521760E-06 Eh
 * total energy  :  -201.6298660 Eh     change       -0.8451174E-06 Eh
 * total energy  :  -201.6298668 Eh     change       -0.7884895E-06 Eh
 * total energy  :  -201.6298675 Eh     change       -0.7303208E-06 Eh
 * total energy  :  -201.6298681 Eh     change       -0.6165951E-06 Eh
 * total energy  :  -201.6298687 Eh     change       -0.5912985E-06 Eh
 * total energy  :  -201.6298687 Eh     change       -0.4436998E-08 Eh
   *** GEOMETRY OPTIMIZATION CONVERGED AFTER 152 ITERATIONS ***

 final structure:
================
128
 xtb: 6.7.1 (edcfbbe)
O            7.63893434050875        0.63386540042936       -0.52408649561953
P            7.71726653826899       -0.12490681677841        0.72968903485499
C            9.23155774272443        0.21325236154381        1.67946710860210
C            9.69043347812364       -0.64185492061874        2.67357875527926
C           10.84830696909415       -0.33099297351823        3.36265022590002
C           11.54797096132177        0.82735046203264        3.06025667001242
C           11.09422525211159        1.67638161164291        2.06419003896060
C            9.93562679627294        1.36826041223687        1.37343443984516
C            7.74206194322094       -1.93535031950539        0.52196105874129
C            8.75945173777123       -2.43334922615352       -0.28159630675073
C            8.91069557040722       -3.79716618294789       -0.44244897433642
C            8.03769326926492       -4.66558669592024        0.19512561570426
C            7.01182022765648       -4.16891529722767        0.98126359757545
C            6.86406377501741       -2.80279097596003        1.15140423163708
C            6.35039518464617        0.21722963090618        1.88774293795492
C            6.47688894490876        0.39332573525057        3.25906089949054
C            5.37456152185731        0.68479251141055        4.05650146912452
C            4.10807221558148        0.82116800894649        3.51846424064212
C            3.95328254503951        0.65767554888726        2.14844744258710
C            5.07709222396275        0.35205031717686        1.35403562486116
O            4.75304434575149        0.22016386415604        0.04895794063742
C            3.41976355507600        0.46005247216517       -0.03722827753042
C            2.65082992731246        0.45242115675280       -1.18914744362896
P            3.31777332612174        0.14356241128919       -2.85624817377283
O            2.25473861770200       -0.19121836610120       -3.81332820385505
C            4.51942855317639       -1.20462593186935       -2.61694678874810
C            5.77400979297468       -1.19663116689427       -3.20410670093939
C            6.59258596736494       -2.30577179614621       -3.08359179979553
C            6.15580058054171       -3.42024546973622       -2.38864859363953
C            4.90415911589163       -3.42511580280649       -1.79495444333920
C            4.08472886943078       -2.31868126690614       -1.91232418578084
C            4.24258818487521        1.64733488421664       -3.27929469597651
C            3.74177122589089        2.41645079074277       -4.32083678081895
C            4.38322030585239        3.58613176923380       -4.68666795542440
C            5.52392885319389        3.98531313352342       -4.00898433404082
C            6.02262354682298        3.21568929568429       -2.96919338751397
C            5.38555737974115        2.04591316928498       -2.59660582807464
C            1.29888124681571        0.71509781856338       -1.05227498976278
C            0.70727712015607        0.98133088037368        0.18849653500744
C           -0.73514119616817        1.25447308361449        0.26989635618396
C           -1.63954217725542        0.55566190200860       -0.52653615681539
C           -2.99321234257162        0.81530373246805       -0.45209234206690
C           -3.48675277587193        1.77615338776610        0.42379448656744
C           -4.96398618368480        2.10930971932779        0.44260668534594
C           -5.84448308973483        0.89121993229327        0.25834732910778
C           -7.03483792046237        0.97209622833303       -0.45292237984786
C           -7.86123152124478       -0.12809718270759       -0.57670965334699
C           -7.51907358106628       -1.33229514616212        0.02960381554999
N           -8.35347303914579       -2.45140432577885       -0.09489934795691
C           -7.95805021594257       -3.71214056037473       -0.49511268082014
C           -6.70721814323162       -4.16141796554545       -0.89378669032656
C           -6.58863175282478       -5.48358616650470       -1.27666653464516
C           -7.68489976675706       -6.34336111783183       -1.27362186378328
C           -8.93627638599705       -5.89650308766286       -0.89966382312132
C           -9.08095005468109       -4.57125431336803       -0.51075678680903
C          -10.20463869641259       -3.78128547182005       -0.09219430291403
C          -11.55042672457354       -4.06218861881155        0.10355962528573
C          -12.38004634432107       -3.05061390978064        0.54394159420891
C          -11.88043757894284       -1.77602487470516        0.80276674787480
C          -10.54579036874168       -1.47192973603022        0.61562335475246
C           -9.71154026897443       -2.47844938052058        0.15042506911801
C           -6.33846837347981       -1.41376177513777        0.76180832916472
C           -5.51294270508181       -0.31256074117981        0.87113438142054
C           -5.41036831593311        2.81352159751574        1.71039615838902
C           -5.44446805977094        2.32586879421861        2.99905673301223
C           -5.91169541890732        3.15299927751732        4.01171293521087
C           -6.34066574321572        4.44212145730702        3.73514245805909
C           -6.31465405612465        4.93539687836788        2.44070141731580
C           -5.84865536912842        4.11476650708639        1.42690035271297
C           -5.70556059419138        4.35151225464762       -0.00045291362176
C           -5.97993410292088        5.47216260544652       -0.76683682105792
C           -5.73951721357243        5.41867321072628       -2.13022877517801
C           -5.23201823263712        4.26936021823468       -2.71687132251919
C           -4.95455043967913        3.14347164534935       -1.95332601752911
C           -5.19908105869110        3.18881873580257       -0.59763467827704
C           -2.58648924707208        2.48390230151324        1.20956180707680
C           -1.23181999959411        2.22333345607838        1.13781115034286
C            1.49365252837172        0.98925060114240        1.33561429723195
C            2.85204247423795        0.72881296367128        1.22324523388929
H            9.14408889950313       -1.54831971854225        2.89597583075508
H           11.20936924076594       -0.99336432016599        4.13600076643653
H           12.45252445561341        1.06461913176432        3.60072039714872
H           11.64434017647880        2.57500659623861        1.82666037329564
H            9.56358846644273        2.00692654317540        0.58511332374252
H            9.42521664799595       -1.73430602890591       -0.76993021500830
H            9.70747206249387       -4.18614716000315       -1.05963787513273
H            8.15600469883754       -5.73286720379087        0.07608546956901
H            6.32941992713599       -4.84813070565582        1.47139375930518
H            6.07279271300770       -2.41213144760472        1.77619404346835
H            7.45288011903254        0.30667608651546        3.71292438395599
H            5.51806515491923        0.81202989399930        5.11909306156167
H            3.25956691078372        1.05283477422592        4.14358318518372
H            6.10579666456102       -0.32747185984220       -3.75353456750911
H            7.57183671385487       -2.30369452993768       -3.53928912942143
H            6.79050588910137       -4.29038545367170       -2.31061759982999
H            4.56785413714776       -4.29524935487311       -1.24932344433683
H            3.09633431989484       -2.30953961784762       -1.46977402477167
H            2.85515363455578        2.07582990178944       -4.83648587306168
H            3.99714390199217        4.18465463606432       -5.49915744002496
H            6.02828722588596        4.89739790969349       -4.29461948199892
H            6.91615336777758        3.52269437892599       -2.44608194067812
H            5.78565467688573        1.44149537939817       -1.79746305623660
H            0.70129304004395        0.71925986688364       -1.95241762895176
H           -1.27951703592332       -0.20837547669916       -1.19919276651429
H           -3.67632892726310        0.25758908116978       -1.07632272879882
H           -7.31514487208169        1.90149656485706       -0.92607207516713
H           -8.77014368025301       -0.06202721853947       -1.15570036700994
H           -5.85512614124322       -3.49881895240873       -0.91621229415271
H           -5.62485297231885       -5.85790047580971       -1.58921820154865
H           -7.55037842747690       -7.37075398120549       -1.57791499337893
H           -9.78916885934550       -6.55835547352519       -0.91219128419884
H          -11.93422228344841       -5.05406685777430       -0.08223494545158
H          -13.43036200318986       -3.24726164972113        0.70019447689510
H          -12.55104401084187       -1.00883066290804        1.16120722398374
H          -10.16455529720520       -0.48597703527615        0.83565908095526
H           -6.07938994363493       -2.33935493032222        1.25400385724792
H           -4.59602595791724       -0.39173422101394        1.43679922766550
H           -5.11259610975161        1.32258933941051        3.22151325117752
H           -5.94158521976953        2.78685264543082        5.02747648983286
H           -6.70041959340384        5.06785231017701        4.53893181774966
H           -6.65133201821813        5.93897884823039        2.22735707503527
H           -6.37170976126173        6.36964473888413       -0.31170357397177
H           -5.94732936448506        6.28291801322010       -2.74410710072845
H           -5.04881037084559        4.24930046293592       -3.78100197488077
H           -4.55735356211416        2.25229762189491       -2.41582037141096
H           -2.94715084089955        3.24903776362579        1.88147944616286
H           -0.54814476920392        2.79902787940958        1.74446987359697
H            1.05407328090300        1.17512741429393        2.30363780375386

          :  Hamiltonian                  GFN2-xTB          :
         :: gradient norm              0.000049268022 Eh/a0 ::
         :: HOMO-LUMO gap              2.362102650189 eV    ::
         :: SCC energy              -205.323005644901 Eh    ::
         :: -> dispersion             -0.203313592814 Eh    ::
         :: repulsion energy           3.693136926683 Eh    ::

    * Orbital Energies and Occupations

         #    Occupation            Energy/Eh            Energy/eV
      -------------------------------------------------------------
         1        2.0000           -0.7463384             -20.3089
       ...           ...                  ...                  ...
       175        2.0000           -0.4042025             -10.9989
       176        2.0000           -0.4031726             -10.9709
       177        2.0000           -0.4015953             -10.9280
       178        2.0000           -0.4003879             -10.8951
       179        2.0000           -0.4002143             -10.8904
       180        2.0000           -0.3989532             -10.8561
       181        2.0000           -0.3969368             -10.8012
       182        2.0000           -0.3938470             -10.7171
       183        2.0000           -0.3910802             -10.6418
       184        2.0000           -0.3842070             -10.4548
       185        2.0000           -0.3797764             -10.3342
       186        2.0000           -0.3736473             -10.1675
       187        2.0000           -0.3573947              -9.7252 (HOMO)
       188                         -0.2705890              -7.3631 (LUMO)
       189                         -0.2597431              -7.0680
       190                         -0.2546554              -6.9295
       191                         -0.2532176              -6.8904
       192                         -0.2473566              -6.7309
       193                         -0.2417747              -6.5790
       194                         -0.2410025              -6.5580
       195                         -0.2389101              -6.5011
       196                         -0.2383684              -6.4863
       197                         -0.2348701              -6.3911
       198                         -0.2336618              -6.3583
       ...                                ...                  ...
       375                          1.2234087              33.2906
      -------------------------------------------------------------
                  HL-Gap            0.0868056 Eh            2.3621 eV

     #   Z          covCN         q      C6AA      α(0)
     1   8 O        0.808    -0.355    20.826     6.117
     2  15 P        4.063     0.099   155.884    22.428
     3   6 C        2.921     0.007    27.872     8.658
     4   6 C        2.979    -0.026    28.649     8.780
     5   6 C        2.920    -0.028    28.692     8.784
     6   6 C        2.921    -0.025    28.616     8.772
     7   6 C        2.919    -0.026    28.663     8.779
     8   6 C        3.022    -0.020    28.474     8.753
     9   6 C        2.921     0.012    27.752     8.639
    10   6 C        3.042    -0.018    28.415     8.743
    11   6 C        2.919    -0.025    28.632     8.775
    12   6 C        2.921    -0.024    28.604     8.770
    13   6 C        2.920    -0.026    28.644     8.777
    14   6 C        2.968    -0.022    28.558     8.766
    15   6 C        2.907    -0.015    28.396     8.738
    16   6 C        2.965    -0.031    28.779     8.799
    17   6 C        2.920    -0.038    28.950     8.823
    18   6 C        2.913    -0.030    28.760     8.794
    19   6 C        3.058    -0.021    28.483     8.752
    20   6 C        3.220     0.139    24.323     8.019
    21   8 O        1.716    -0.190    17.182     5.597
    22   6 C        3.171     0.129    24.824     8.139
    23   6 C        2.907    -0.013    28.334     8.728
    24  15 P        4.069     0.080   156.714    22.488
    25   8 O        0.808    -0.359    20.895     6.128
    26   6 C        2.922     0.023    27.492     8.598
    27   6 C        2.979    -0.014    28.367     8.737
    28   6 C        2.921    -0.023    28.572     8.766
    29   6 C        2.921    -0.026    28.651     8.778
    30   6 C        2.920    -0.027    28.686     8.783
    31   6 C        3.026    -0.017    28.410     8.743
    32   6 C        2.922     0.013    27.721     8.634
    33   6 C        3.032    -0.022    28.522     8.760
    34   6 C        2.919    -0.029    28.728     8.789
    35   6 C        2.920    -0.026    28.647     8.777
    36   6 C        2.921    -0.025    28.636     8.775
    37   6 C        2.976    -0.027    28.674     8.784
    38   6 C        3.022    -0.030    28.724     8.791
    39   6 C        2.975     0.005    27.904     8.665
    40   6 C        2.977     0.008    27.831     8.654
    41   6 C        2.924    -0.034    28.852     8.809
    42   6 C        2.922    -0.034    28.836     8.806
    43   6 C        2.980     0.016    27.641     8.624
    44   6 C        3.947     0.008    20.382     6.415
    45   6 C        2.979     0.014    27.685     8.631
    46   6 C        2.923    -0.035    28.867     8.811
    47   6 C        2.922    -0.043    29.080     8.843
    48   6 C        2.913     0.062    26.614     8.459
    49   7 N        2.803    -0.044    22.092     6.981
    50   6 C        3.076     0.047    26.874     8.499
    51   6 C        2.910    -0.051    29.262     8.870
    52   6 C        2.924    -0.034    28.835     8.806
    53   6 C        2.920    -0.041    29.023     8.835
    54   6 C        2.912    -0.033    28.822     8.803
    55   6 C        3.068    -0.017    28.372     8.734
    56   6 C        3.068    -0.017    28.371     8.734
    57   6 C        2.912    -0.033    28.824     8.804
    58   6 C        2.920    -0.041    29.026     8.835
    59   6 C        2.924    -0.034    28.839     8.807
    60   6 C        2.910    -0.051    29.266     8.871
    61   6 C        3.076     0.047    26.875     8.499
    62   6 C        2.921    -0.044    29.091     8.845
    63   6 C        2.924    -0.033    28.831     8.805
    64   6 C        3.058     0.004    27.887     8.660
    65   6 C        2.914    -0.034    28.841     8.806
    66   6 C        2.922    -0.032    28.807     8.802
    67   6 C        2.921    -0.032    28.810     8.802
    68   6 C        2.915    -0.034    28.843     8.807
    69   6 C        3.035     0.001    27.962     8.673
    70   6 C        3.035     0.001    27.975     8.675
    71   6 C        2.915    -0.034    28.841     8.806
    72   6 C        2.921    -0.032    28.803     8.801
    73   6 C        2.923    -0.031    28.784     8.798
    74   6 C        2.914    -0.033    28.826     8.804
    75   6 C        3.059     0.004    27.885     8.660
    76   6 C        2.922    -0.036    28.891     8.815
    77   6 C        2.925    -0.035    28.862     8.810
    78   6 C        2.918    -0.037    28.931     8.820
    79   6 C        3.054    -0.023    28.513     8.757
    80   1 H        0.925     0.037     2.495     2.470
    81   1 H        0.926     0.037     2.489     2.467
    82   1 H        0.926     0.039     2.460     2.453
    83   1 H        0.926     0.041     2.438     2.442
    84   1 H        0.926     0.061     2.187     2.313
    85   1 H        0.925     0.048     2.339     2.392
    86   1 H        0.926     0.040     2.451     2.448
    87   1 H        0.926     0.039     2.460     2.453
    88   1 H        0.926     0.038     2.479     2.462
    89   1 H        0.925     0.033     2.548     2.496
    90   1 H        0.926     0.046     2.375     2.410
    91   1 H        0.926     0.043     2.413     2.429
    92   1 H        0.926     0.045     2.386     2.416
    93   1 H        0.926     0.047     2.359     2.402
    94   1 H        0.926     0.037     2.487     2.466
    95   1 H        0.926     0.031     2.574     2.509
    96   1 H        0.926     0.031     2.570     2.507
    97   1 H        0.925     0.037     2.491     2.468
    98   1 H        0.926     0.060     2.200     2.320
    99   1 H        0.926     0.035     2.518     2.482
   100   1 H        0.926     0.034     2.535     2.490
   101   1 H        0.926     0.041     2.438     2.442
   102   1 H        0.926     0.075     2.030     2.228
   103   1 H        0.926     0.072     2.060     2.244
   104   1 H        0.926     0.040     2.442     2.444
   105   1 H        0.926     0.034     2.532     2.488
   106   1 H        0.926     0.037     2.491     2.468
   107   1 H        0.926     0.041     2.432     2.439
   108   1 H        0.926     0.027     2.632     2.537
   109   1 H        0.926     0.029     2.604     2.524
   110   1 H        0.926     0.027     2.628     2.535
   111   1 H        0.926     0.030     2.587     2.515
   112   1 H        0.926     0.030     2.585     2.514
   113   1 H        0.926     0.027     2.631     2.536
   114   1 H        0.926     0.028     2.617     2.530
   115   1 H        0.926     0.026     2.638     2.540
   116   1 H        0.926     0.041     2.440     2.443
   117   1 H        0.926     0.036     2.502     2.474
   118   1 H        0.926     0.029     2.601     2.522
   119   1 H        0.926     0.030     2.580     2.512
   120   1 H        0.926     0.031     2.577     2.510
   121   1 H        0.926     0.032     2.561     2.502
   122   1 H        0.926     0.032     2.565     2.504
   123   1 H        0.926     0.031     2.568     2.506
   124   1 H        0.926     0.033     2.547     2.496
   125   1 H        0.926     0.032     2.561     2.503
   126   1 H        0.926     0.032     2.556     2.500
   127   1 H        0.926     0.032     2.563     2.504
   128   1 H        0.926     0.044     2.391     2.418

molecular dipole:
                 x           y           z       tot (Debye)
 q only:        1.436       0.201       2.148
   full:        1.764       0.209       2.618       8.042

 projected vibrational frequencies (cm⁻¹)
eigval :       -0.00    -0.00    -0.00    -0.00     0.00     0.00
eigval :        4.77     6.29     9.97    10.27    11.16    15.83
eigval :       18.44    20.08    25.48    28.66    29.41    32.88
eigval :       35.35    40.33    43.97    45.98    48.43    51.44
eigval :       54.21    62.51    64.50    67.98    70.35    79.45
eigval :       84.05    88.67    91.86    96.22   102.72   105.81
eigval :      129.75   135.59   142.18   145.56   154.91   156.43
eigval :      159.70   165.55   175.01   178.49   193.83   196.57
eigval :      198.10   214.84   223.32   232.10   232.91   235.66
eigval :      241.18   247.89   250.96   265.34   271.10   271.84
eigval :      273.41   278.23   278.90   295.79   304.10   313.16
eigval :      328.12   349.03   356.36   358.42   359.76   361.93
eigval :      365.27   369.31   377.06   385.35   387.94   389.16
eigval :      391.85   395.17   405.90   412.53   415.15   419.00
eigval :      420.21   425.15   436.00   438.19   452.59   457.13
eigval :      469.74   475.26   478.95   495.37   502.05   505.10
eigval :      507.64   515.48   519.22   522.41   530.33   534.61
eigval :      539.44   540.63   541.30   557.91   573.55   581.55
eigval :      585.59   585.86   586.41   586.60   588.36   594.63
eigval :      596.47   597.10   604.04   618.64   620.43   628.16
eigval :      637.55   657.73   658.10   659.68   661.35   672.83
eigval :      673.60   674.23   684.10   687.33   690.49   693.56
eigval :      699.73   708.34   711.77   715.51   717.97   726.01
eigval :      727.82   730.20   740.97   742.35   744.26   747.78
eigval :      754.73   757.44   768.11   769.66   780.88   785.07
eigval :      795.40   798.09   811.90   820.99   849.51   854.28
eigval :      865.61   867.54   873.67   875.25   876.20   877.41
eigval :      877.49   878.64   881.26   882.98   884.76   891.13
eigval :      892.43   896.95   899.55   900.76   900.95   902.11
eigval :      902.61   903.47   906.57   907.48   909.38   912.13
eigval :      912.39   917.93   919.94   921.39   921.86   924.06
eigval :      925.68   926.93   927.53   927.99   929.67   932.21
eigval :      933.62   933.97   934.86   935.20   936.70   937.78
eigval :      942.84   956.70   972.63   973.30   976.40   976.93
eigval :     1007.72  1012.19  1014.79  1026.94  1066.00  1070.17
eigval :     1073.76  1076.11  1076.60  1077.06  1078.26  1079.56
eigval :     1081.42  1088.08  1100.16  1108.34  1112.51  1114.59
eigval :     1114.95  1116.60  1118.43  1122.90  1125.82  1130.11
eigval :     1132.20  1140.53  1144.55  1147.49  1152.83  1168.14
eigval :     1175.50  1176.46  1177.34  1180.03  1180.29  1180.76
eigval :     1181.49  1182.43  1184.11  1185.34  1186.15  1190.00
eigval :     1190.68  1191.84  1192.75  1193.21  1204.02  1205.67
eigval :     1208.65  1225.27  1228.28  1235.29  1237.22  1239.63
eigval :     1242.44  1251.21  1255.28  1255.47  1261.80  1264.94
eigval :     1268.21  1270.84  1271.69  1272.51  1273.09  1277.68
eigval :     1285.81  1301.17  1305.15  1310.11  1315.29  1321.66
eigval :     1321.83  1322.16  1323.29  1324.75  1327.25  1338.54
eigval :     1353.08  1357.61  1362.62  1366.29  1369.89  1384.99
eigval :     1394.68  1403.46  1408.71  1423.71  1424.72  1426.18
eigval :     1428.34  1428.61  1429.08  1431.91  1433.73  1450.55
eigval :     1452.75  1453.79  1456.39  1458.46  1462.36  1472.69
eigval :     1474.50  1476.98  1488.91  1494.22  1499.67  1556.46
eigval :     1566.37  1570.74  1576.12  1581.75  1583.90  1584.62
eigval :     1585.21  1585.60  1586.26  1586.33  1587.69  1589.16
eigval :     1589.43  1589.46  1591.55  1594.68  1598.98  1599.50
eigval :     1599.69  1603.88  1604.62  1610.05  1615.64  3046.05
eigval :     3061.74  3063.72  3065.94  3070.28  3072.71  3073.93
eigval :     3074.73  3075.01  3075.06  3075.28  3075.72  3075.76
eigval :     3076.10  3076.76  3077.32  3078.86  3079.22  3080.16
eigval :     3080.56  3081.54  3081.98  3082.11  3082.60  3083.76
eigval :     3084.02  3085.14  3085.45  3085.52  3086.91  3087.53
eigval :     3088.85  3088.98  3089.19  3090.29  3090.43  3090.64
eigval :     3092.30  3092.99  3093.38  3093.54  3093.65  3094.20
eigval :     3094.44  3095.36  3096.08  3096.92  3100.06  3115.17

   temp. (K)  partition function   enthalpy   heat capacity  entropy
                                   cal/mol     cal/K/mol   cal/K/mol   J/K/mol
 298.15  VIB  0.511E+34            39228.324    238.233    250.000
         ROT  0.458E+09              888.752      2.981     42.613
         INT  0.234E+43            40117.077    241.214    292.613
         TR   0.329E+29             1481.254      4.968     46.706
         TOT                       41598.3304   246.1818   339.3188  1419.7099

       T/K    H(0)-H(T)+PV         H(T)/Eh          T*S/Eh         G(T)/Eh
   ------------------------------------------------------------------------
    298.15    0.662912E-01    0.104016E+01    0.161221E+00    0.878943E+00
   ------------------------------------------------------------------------

         :::::::::::::::::::::::::::::::::::::::::::::::::::::
         ::                  THERMODYNAMIC                  ::
         :::::::::::::::::::::::::::::::::::::::::::::::::::::
         :: total free energy        -200.750925395519 Eh   ::
         ::.................................................::
         :: total energy             -201.629868718217 Eh   ::
         :: zero point energy           0.973873474268 Eh   ::
         :: G(RRHO) w/o ZPVE           -0.094930151570 Eh   ::
         :: G(RRHO) contrib.            0.878943322698 Eh   ::
         :::::::::::::::::::::::::::::::::::::::::::::::::::::

           -------------------------------------------------
          | TOTAL ENERGY             -201.629868718217 Eh   |
          | TOTAL ENTHALPY           -200.589704084806 Eh   |
          | TOTAL FREE ENERGY        -200.750925395519 Eh   |
          | GRADIENT NORM               0.000049259939 Eh/α |
          | HOMO-LUMO GAP               2.362101944774 eV   |
           -------------------------------------------------

 * finished run on 2025/07/17 at 08:15:53.699
