   * xtb version 6.7.1 (edcfbbe) compiled by 'albert@albert-system' on 2024-07-22

   ID    Z sym.   atoms
    1    8 O      1, 21, 25
    2   15 P      2, 24
    3    6 C      3-20, 22, 23, 26-48, 50-79
    4    7 N      49
    5    1 H      80-128

          program call               : xtb data2507/gas/9CzFDBFDPO/9CzFDBFDPO_gas_S0_crest.xyz --gfn 2 --ohess vtight --parallel 40 --molden --ceasefiles --namespace data2507/gas/9CzFDBFDPO/9CzFDBFDPO_gas_S0_finalOpt
          :  Hamiltonian                  GFN2-xTB          :
 * total energy  :  -201.6308469 Eh     change       -0.3682828E-08 Eh
 * total energy  :  -201.6308486 Eh     change       -0.1718583E-05 Eh
 * total energy  :  -201.6308514 Eh     change       -0.2770614E-05 Eh
 * total energy  :  -201.6308547 Eh     change       -0.3253361E-05 Eh
 * total energy  :  -201.6308563 Eh     change       -0.1605497E-05 Eh
 * total energy  :  -201.6308588 Eh     change       -0.2527498E-05 Eh
 * total energy  :  -201.6308626 Eh     change       -0.3847601E-05 Eh
 * total energy  :  -201.6308663 Eh     change       -0.3653447E-05 Eh
 * total energy  :  -201.6308692 Eh     change       -0.2946119E-05 Eh
 * total energy  :  -201.6308721 Eh     change       -0.2831212E-05 Eh
 * total energy  :  -201.6309666 Eh     change       -0.3434993E-06 Eh
 * total energy  :  -201.6309670 Eh     change       -0.3073984E-06 Eh
 * total energy  :  -201.6309672 Eh     change       -0.2788958E-06 Eh
 * total energy  :  -201.6309676 Eh     change       -0.3446710E-06 Eh
 * total energy  :  -201.6309680 Eh     change       -0.3983232E-06 Eh
 * total energy  :  -201.6309683 Eh     change       -0.3651807E-06 Eh
 * total energy  :  -201.6309687 Eh     change       -0.3518069E-06 Eh
 * total energy  :  -201.6309691 Eh     change       -0.3722286E-06 Eh
 * total energy  :  -201.6309691 Eh     change       -0.2127393E-08 Eh
   *** GEOMETRY OPTIMIZATION CONVERGED AFTER 94 ITERATIONS ***

 final structure:
================
128
 xtb: 6.7.1 (edcfbbe)
O            8.42698450837762       -2.07451766179909        2.87090998960767
P            7.45532264535268       -1.68208666042699        1.84164275558388
C            7.21769378431117       -2.99999141266335        0.60398569784807
C            6.13117023481892       -3.85927869694049        0.64665357808378
C            6.08665288329629       -4.95350872715636       -0.20063437125744
C            7.12578060880854       -5.18984373551045       -1.08556728717500
C            8.21330029526820       -4.33151186143551       -1.12648053971634
C            8.26237753803998       -3.24143223860273       -0.27791665911813
C            7.97066440926378       -0.19235166546279        0.93545411823469
C            8.75206423279601        0.71460122974994        1.63932458862889
C            9.24587052553001        1.83983885577939        1.00518179213896
C            8.96863758608946        2.05003452742192       -0.33627079170236
C            8.18886483391881        1.14424614001377       -1.03685063477061
C            7.68132662430078        0.02374156164079       -0.40358875115962
C            5.81160752158580       -1.38073952567666        2.56614236453342
C            5.64237528869445       -1.79713948776645        3.88105343037297
C            4.42493922588571       -1.68634949876715        4.54121642147367
C            3.32236594428421       -1.15488160349751        3.90089723332984
C            3.46806222343425       -0.72025496489573        2.59005664364534
C            4.70906458783869       -0.82726476874560        1.93114052512534
O            4.64727366096423       -0.33448665712869        0.66519778739150
C            3.36594750551340        0.09485160535299        0.48249079101596
C            2.81894527678634        0.67903745962396       -0.65143883094857
P            3.68851230231315        1.13749208556733       -2.18400355980746
O            2.76437158556066        1.41832030879535       -3.28981777434813
C            4.83191861050950       -0.22015303621323       -2.58642328896152
C            5.90545459234661        0.07181675964178       -3.41570089919594
C            6.74534415263187       -0.94133162749611       -3.84141818261212
C            6.49888920096116       -2.24835377259383       -3.45195264753810
C            5.40698948938865       -2.54341952881660       -2.65246871390769
C            4.57103328328284       -1.53021009991872       -2.21753436991080
C            4.70166752475225        2.58099148568575       -1.73316964915372
C            5.45452048025354        2.64767295487403       -0.56898936892022
C            6.17274659981354        3.79447520870213       -0.28375559630059
C            6.14939498261560        4.86790194264922       -1.15996016874375
C            5.39938178663685        4.80143494754231       -2.32313858607025
C            4.67037261520598        3.66053536102099       -2.60577220483973
C            1.47265838531629        1.00793866349940       -0.61021598025736
C            0.66958096200989        0.78483914118700        0.51230542661198
C           -0.75562076475844        1.14294001116244        0.48345259666753
C           -1.18952814657822        2.30492150628821       -0.14889707272118
C           -2.53096778398373        2.63305566151825       -0.18287242069759
C           -3.47934485256244        1.80351645478649        0.40147981048766
C           -4.94639239705772        2.17922813034692        0.41349646921881
C           -5.85288998191090        0.97416571186189        0.26992772970592
C           -7.06277615545620        0.90178513557181        0.94805882885748
C           -7.90365099370564       -0.18184130940640        0.78075424608429
C           -7.55638363497553       -1.20969370393931       -0.08972334504447
N           -8.40216692310286       -2.31439852661823       -0.25735322675708
C           -9.75450478817612       -2.26464755210452       -0.53007607055253
C          -10.57052400916772       -1.16538115576229       -0.75608451366021
C          -11.90270910476073       -1.39883463268832       -1.03813959963430
C          -12.41729306332538       -2.69190659117110       -1.10410048449381
C          -11.60524326486925       -3.79004782820729       -0.90386427855103
C          -10.26225227120033       -3.58126125265017       -0.61892645990769
C           -9.15404283047138       -4.46281546693329       -0.38079363701897
C           -9.02765422717585       -5.84442015017609       -0.32129350112355
C           -7.78826543985865       -6.38406016207684       -0.04159572254503
C           -6.68628974079155       -5.56417812622029        0.19142144677275
C           -6.78680659792922       -4.18727627927350        0.13766135606063
C           -8.02496233992927       -3.63925130669493       -0.16577223172872
C           -6.35711225346037       -1.13056713595518       -0.79139206805935
C           -5.51708703547344       -0.05047415114763       -0.60895676766285
C           -5.20619152530483        2.98577594177558        1.67215657105173
C           -5.02090674534182        2.61321897122669        2.98617406489474
C           -5.31313407226970        3.53132501478445        3.98588891366378
C           -5.77719698889969        4.79964164664430        3.67219904202804
C           -5.95874231189782        5.18184755044090        2.35294959433294
C           -5.66952401081703        4.26946383215878        1.35178752601410
C           -5.75702721609765        4.38298592598761       -0.09499647654901
C           -6.16905017028083        5.43269194677987       -0.89922219403561
C           -6.14873436872643        5.26296029764981       -2.27407516286035
C           -5.72668841779563        4.06726651471028       -2.83497978977467
C           -5.31404938665784        3.01136549771364       -2.03337570311791
C           -5.32704349910497        3.17652206119554       -0.66502242711504
C           -3.04741099771034        0.65034306001003        1.04755100189620
C           -1.70696901283753        0.32376401163240        1.08662793465800
C            1.23604595421280        0.21997394159520        1.64867144480627
C            2.57869787022632       -0.12522887727062        1.62899030880506
H            5.32716122205221       -3.67674843118140        1.34678138434889
H            5.24261651571091       -5.62756542021391       -0.16486657501876
H            7.09053564391547       -6.04792636062461       -1.74108160652073
H            9.02706431938815       -4.52083037584745       -1.81124668141978
H            9.11277675791159       -2.57239549538089       -0.28186797000755
H            8.97785562862166        0.51053770976569        2.67654771850482
H            9.85468107910036        2.54610552848169        1.55084704873481
H            9.36262817305385        2.92094039401934       -0.83951848624328
H            7.97771977951896        1.30954477200936       -2.08247200297856
H            7.07043823191094       -0.68382716500107       -0.94372344083197
H            6.50205610312275       -2.21791005896226        4.38186805147317
H            4.34279111535782       -2.02540879721890        5.56264182483189
H            2.36935615862908       -1.07178606983297        4.40006887604891
H            6.06592483858118        1.09726238227991       -3.72344689509986
H            7.58769214928768       -0.71634835437473       -4.47937841514967
H            7.15231945862901       -3.04251378622208       -3.78108144838826
H            5.20739362264970       -3.56575198368733       -2.36911864614587
H            3.71203020001516       -1.75488568337399       -1.60065434625090
H            5.48606117783900        1.80733240661975        0.10579363163944
H            6.75484506373225        3.84877546667770        0.62454629922814
H            6.71448220705815        5.76013198276626       -0.93287841826402
H            5.37970774850907        5.63949117099522       -3.00445207674939
H            4.06344958812352        3.58732982231697       -3.49714808721142
H            1.04236260802018        1.42959051806622       -1.50723975646839
H           -0.46745297592223        2.96749917064833       -0.60216704029072
H           -2.84406535590625        3.54359345493121       -0.67213341531547
H           -7.34731292624336        1.69386379922995        1.62476836795878
H           -8.82789129111492       -0.24232053345108        1.33561209201564
H          -10.17715132575357       -0.16035172980531       -0.72492760870725
H          -12.55931487411133       -0.55963820915864       -1.21511757121102
H          -13.46512751265439       -2.83202409979973       -1.32450867372038
H          -12.00020062676319       -4.79260980974533       -0.97074134002487
H           -9.88517133733183       -6.47907743434106       -0.48687475074821
H           -7.66784529680806       -7.45613558631587        0.00695989669949
H           -5.73225722541304       -6.01504691761619        0.42247841651705
H           -5.93043117208117       -3.56033351556611        0.33594668894808
H           -6.09424993948776       -1.91275692564793       -1.48783650231326
H           -4.58517819110550       -0.00643392468972       -1.15338096524422
H           -4.65913855776484        1.62717126667649        3.23727569964000
H           -5.17684333607787        3.25364390562785        5.02077275283808
H           -5.99791375013177        5.49765172424168        4.46655435919409
H           -6.31752179678786        6.17115343319652        2.11106584113795
H           -6.49965114801163        6.36415513001109       -0.46434632620485
H           -6.46593995404760        6.07061466522696       -2.91747434460514
H           -5.71847957708363        3.95492614362641       -3.90908655675207
H           -4.98663776476904        2.08338953872508       -2.47775042546771
H           -3.76888969658239       -0.00673452393333        1.51156674300550
H           -1.39626936451533       -0.59109229013529        1.57005358282960
H            0.64927962002079        0.06416461208187        2.54072132749231

          :  Hamiltonian                  GFN2-xTB          :
         :: gradient norm              0.000036304913 Eh/a0 ::
         :: HOMO-LUMO gap              2.337720908179 eV    ::
         :: SCC energy              -205.323769590695 Eh    ::
         :: -> dispersion             -0.207817046484 Eh    ::
         :: repulsion energy           3.692800526339 Eh    ::

    * Orbital Energies and Occupations

         #    Occupation            Energy/Eh            Energy/eV
      -------------------------------------------------------------
         1        2.0000           -0.7530978             -20.4928
       ...           ...                  ...                  ...
       175        2.0000           -0.4095241             -11.1437
       176        2.0000           -0.4085798             -11.1180
       177        2.0000           -0.4069437             -11.0735
       178        2.0000           -0.4055546             -11.0357
       179        2.0000           -0.4033977             -10.9770
       180        2.0000           -0.4023944             -10.9497
       181        2.0000           -0.4013512             -10.9213
       182        2.0000           -0.4008702             -10.9082
       183        2.0000           -0.3984607             -10.8427
       184        2.0000           -0.3884300             -10.5697
       185        2.0000           -0.3823641             -10.4047
       186        2.0000           -0.3756276             -10.2213
       187        2.0000           -0.3593781              -9.7792 (HOMO)
       188                         -0.2734685              -7.4415 (LUMO)
       189                         -0.2647884              -7.2053
       190                         -0.2557447              -6.9592
       191                         -0.2511374              -6.8338
       192                         -0.2502068              -6.8085
       193                         -0.2467678              -6.7149
       194                         -0.2444890              -6.6529
       195                         -0.2436992              -6.6314
       196                         -0.2424591              -6.5976
       197                         -0.2387054              -6.4955
       198                         -0.2374347              -6.4609
       ...                                ...                  ...
       375                          1.2076924              32.8630
      -------------------------------------------------------------
                  HL-Gap            0.0859097 Eh            2.3377 eV

     #   Z          covCN         q      C6AA      α(0)
     1   8 O        0.808    -0.359    20.902     6.128
     2  15 P        4.079     0.080   156.709    22.487
     3   6 C        2.921     0.017    27.630     8.620
     4   6 C        2.981    -0.020    28.503     8.758
     5   6 C        2.920    -0.026    28.644     8.777
     6   6 C        2.920    -0.024    28.614     8.772
     7   6 C        2.919    -0.025    28.627     8.774
     8   6 C        3.021    -0.017    28.415     8.744
     9   6 C        2.922     0.016    27.659     8.624
    10   6 C        3.037    -0.020    28.463     8.751
    11   6 C        2.919    -0.027    28.676     8.782
    12   6 C        2.920    -0.023    28.588     8.768
    13   6 C        2.921    -0.025    28.636     8.775
    14   6 C        2.973    -0.021    28.515     8.759
    15   6 C        2.908    -0.013    28.334     8.728
    16   6 C        3.044    -0.024    28.571     8.767
    17   6 C        2.919    -0.037    28.911     8.817
    18   6 C        2.913    -0.030    28.750     8.792
    19   6 C        3.058    -0.020    28.450     8.747
    20   6 C        3.131     0.131    24.941     8.176
    21   8 O        1.715    -0.213    17.534     5.654
    22   6 C        3.131     0.129    24.985     8.183
    23   6 C        2.907    -0.013    28.342     8.729
    24  15 P        4.083     0.081   156.672    22.485
    25   8 O        0.808    -0.358    20.873     6.124
    26   6 C        2.922     0.020    27.553     8.608
    27   6 C        3.022    -0.018    28.424     8.745
    28   6 C        2.919    -0.025    28.634     8.775
    29   6 C        2.921    -0.025    28.620     8.773
    30   6 C        2.920    -0.026    28.653     8.778
    31   6 C        2.983    -0.015    28.387     8.740
    32   6 C        2.921     0.012    27.752     8.639
    33   6 C        2.973    -0.025    28.624     8.776
    34   6 C        2.920    -0.027    28.664     8.780
    35   6 C        2.921    -0.025    28.616     8.772
    36   6 C        2.919    -0.028    28.693     8.784
    37   6 C        3.031    -0.021    28.500     8.757
    38   6 C        3.059    -0.031    28.711     8.787
    39   6 C        2.975     0.006    27.877     8.661
    40   6 C        2.977     0.008    27.836     8.654
    41   6 C        2.924    -0.033    28.820     8.804
    42   6 C        2.922    -0.034    28.850     8.808
    43   6 C        2.980     0.017    27.620     8.621
    44   6 C        3.947     0.008    20.383     6.415
    45   6 C        2.979     0.014    27.691     8.632
    46   6 C        2.923    -0.035    28.875     8.812
    47   6 C        2.922    -0.044    29.089     8.845
    48   6 C        2.913     0.062    26.616     8.460
    49   7 N        2.803    -0.044    22.091     6.981
    50   6 C        3.076     0.047    26.873     8.499
    51   6 C        2.910    -0.051    29.263     8.870
    52   6 C        2.924    -0.033    28.834     8.806
    53   6 C        2.920    -0.041    29.021     8.834
    54   6 C        2.912    -0.033    28.821     8.803
    55   6 C        3.068    -0.017    28.370     8.734
    56   6 C        3.068    -0.017    28.367     8.733
    57   6 C        2.913    -0.033    28.819     8.803
    58   6 C        2.920    -0.041    29.024     8.835
    59   6 C        2.924    -0.034    28.840     8.807
    60   6 C        2.910    -0.051    29.268     8.871
    61   6 C        3.076     0.047    26.875     8.499
    62   6 C        2.922    -0.044    29.090     8.845
    63   6 C        2.924    -0.033    28.832     8.806
    64   6 C        3.058     0.003    27.891     8.661
    65   6 C        2.914    -0.034    28.841     8.806
    66   6 C        2.922    -0.032    28.805     8.801
    67   6 C        2.921    -0.032    28.805     8.801
    68   6 C        2.915    -0.034    28.839     8.806
    69   6 C        3.035     0.001    27.962     8.673
    70   6 C        3.035     0.001    27.972     8.675
    71   6 C        2.915    -0.034    28.837     8.806
    72   6 C        2.921    -0.032    28.798     8.800
    73   6 C        2.922    -0.031    28.784     8.798
    74   6 C        2.914    -0.033    28.827     8.804
    75   6 C        3.057     0.003    27.892     8.661
    76   6 C        2.922    -0.034    28.855     8.809
    77   6 C        2.924    -0.035    28.862     8.810
    78   6 C        2.919    -0.037    28.917     8.818
    79   6 C        3.054    -0.021    28.477     8.752
    80   1 H        0.925     0.033     2.539     2.492
    81   1 H        0.926     0.037     2.487     2.466
    82   1 H        0.926     0.039     2.465     2.455
    83   1 H        0.926     0.039     2.464     2.454
    84   1 H        0.925     0.043     2.404     2.425
    85   1 H        0.926     0.060     2.200     2.319
    86   1 H        0.926     0.039     2.458     2.452
    87   1 H        0.926     0.036     2.496     2.471
    88   1 H        0.926     0.033     2.540     2.492
    89   1 H        0.926     0.041     2.441     2.443
    90   1 H        0.926     0.076     2.016     2.220
    91   1 H        0.926     0.047     2.358     2.401
    92   1 H        0.926     0.045     2.383     2.414
    93   1 H        0.925     0.040     2.449     2.447
    94   1 H        0.926     0.038     2.473     2.459
    95   1 H        0.926     0.037     2.493     2.469
    96   1 H        0.926     0.036     2.507     2.476
    97   1 H        0.926     0.036     2.501     2.473
    98   1 H        0.926     0.042     2.419     2.432
    99   1 H        0.926     0.034     2.532     2.488
   100   1 H        0.926     0.038     2.477     2.461
   101   1 H        0.926     0.040     2.445     2.445
   102   1 H        0.926     0.064     2.148     2.292
   103   1 H        0.926     0.076     2.023     2.224
   104   1 H        0.926     0.038     2.479     2.462
   105   1 H        0.926     0.035     2.513     2.479
   106   1 H        0.926     0.037     2.495     2.470
   107   1 H        0.926     0.041     2.436     2.441
   108   1 H        0.926     0.027     2.633     2.538
   109   1 H        0.926     0.028     2.611     2.527
   110   1 H        0.926     0.027     2.624     2.533
   111   1 H        0.926     0.030     2.581     2.512
   112   1 H        0.926     0.030     2.581     2.512
   113   1 H        0.926     0.027     2.627     2.535
   114   1 H        0.926     0.028     2.620     2.531
   115   1 H        0.926     0.026     2.648     2.545
   116   1 H        0.926     0.041     2.429     2.437
   117   1 H        0.926     0.037     2.486     2.466
   118   1 H        0.926     0.029     2.601     2.522
   119   1 H        0.926     0.031     2.575     2.510
   120   1 H        0.926     0.031     2.570     2.507
   121   1 H        0.926     0.032     2.555     2.500
   122   1 H        0.926     0.032     2.559     2.502
   123   1 H        0.926     0.032     2.563     2.503
   124   1 H        0.926     0.033     2.549     2.497
   125   1 H        0.926     0.031     2.574     2.509
   126   1 H        0.926     0.032     2.556     2.500
   127   1 H        0.926     0.032     2.556     2.500
   128   1 H        0.926     0.046     2.371     2.408

molecular dipole:
                 x           y           z       tot (Debye)
 q only:       -0.008       0.755       0.162
   full:        0.060       0.823       0.217       2.168

 projected vibrational frequencies (cm⁻¹)
eigval :       -0.00    -0.00     0.00     0.00     0.00     0.00
eigval :        5.18     6.03    10.57    13.54    16.29    17.65
eigval :       22.21    25.99    27.68    30.37    31.40    32.74
eigval :       38.96    44.20    44.98    49.61    52.86    56.98
eigval :       63.72    68.78    73.15    75.12    81.13    85.45
eigval :       93.51    94.56   101.00   104.02   106.14   114.98
eigval :      131.30   134.93   145.14   147.30   149.91   158.49
eigval :      161.19   167.23   175.49   178.26   196.19   197.31
eigval :      200.12   211.93   228.09   231.23   237.32   238.93
eigval :      241.39   250.87   253.74   258.79   270.06   271.86
eigval :      272.76   275.49   278.94   294.97   303.60   314.05
eigval :      325.43   338.44   346.77   358.93   361.29   366.54
eigval :      368.95   370.86   376.91   385.53   388.54   389.53
eigval :      392.38   398.63   406.05   411.81   415.46   421.63
eigval :      425.63   428.39   438.13   442.32   456.47   461.31
eigval :      469.66   477.26   481.21   483.72   497.71   504.81
eigval :      509.87   516.49   519.73   521.07   532.50   534.72
eigval :      539.44   541.30   547.73   557.01   573.47   581.15
eigval :      586.00   586.02   586.97   587.64   588.26   593.98
eigval :      595.44   596.78   604.18   618.72   619.36   628.06
eigval :      637.53   657.51   657.74   658.84   662.04   673.14
eigval :      674.14   675.66   681.45   687.71   691.00   693.32
eigval :      701.53   708.32   709.74   715.96   720.40   722.31
eigval :      728.11   729.74   740.92   742.18   744.01   745.18
eigval :      754.73   757.43   767.91   769.60   780.85   784.97
eigval :      791.36   802.19   812.41   821.09   845.46   854.49
eigval :      864.65   867.46   873.68   875.67   877.25   877.35
eigval :      878.00   878.42   880.32   881.47   883.31   892.72
eigval :      896.42   897.01   900.34   901.29   901.82   902.42
eigval :      902.93   903.84   904.98   905.62   907.61   909.28
eigval :      911.88   920.05   921.50   921.59   922.42   925.34
eigval :      927.00   927.03   927.54   928.09   928.86   929.86
eigval :      933.32   933.50   935.01   935.14   936.86   937.27
eigval :      937.96   956.47   972.84   973.41   976.48   977.38
eigval :     1007.86  1012.21  1014.96  1026.65  1065.07  1070.25
eigval :     1073.87  1076.30  1078.17  1078.58  1078.79  1079.33
eigval :     1081.63  1092.28  1102.76  1108.47  1112.68  1113.65
eigval :     1115.14  1115.57  1118.42  1123.90  1124.97  1131.33
eigval :     1132.61  1140.72  1144.70  1147.61  1152.89  1162.10
eigval :     1175.42  1176.44  1177.30  1179.29  1179.60  1179.65
eigval :     1181.01  1181.49  1181.67  1184.24  1185.34  1186.84
eigval :     1189.39  1190.81  1193.33  1193.99  1204.09  1205.65
eigval :     1208.31  1219.45  1226.21  1228.98  1237.15  1237.24
eigval :     1242.10  1251.00  1253.37  1255.87  1257.00  1263.94
eigval :     1270.43  1271.34  1271.75  1271.85  1273.61  1277.67
eigval :     1285.88  1301.12  1305.11  1310.10  1315.41  1319.85
eigval :     1321.16  1322.48  1322.99  1323.83  1327.34  1339.81
eigval :     1353.50  1357.61  1362.68  1366.32  1369.90  1381.71
eigval :     1389.58  1403.00  1408.76  1423.54  1424.59  1425.45
eigval :     1427.29  1428.61  1429.10  1432.05  1433.67  1453.30
eigval :     1453.62  1453.88  1456.49  1457.57  1462.42  1470.21
eigval :     1472.74  1476.97  1488.90  1494.02  1500.37  1555.20
eigval :     1566.48  1571.03  1576.14  1578.42  1583.47  1584.25
eigval :     1585.60  1586.23  1586.40  1586.58  1587.27  1587.59
eigval :     1588.67  1588.87  1589.47  1594.66  1599.19  1599.52
eigval :     1599.62  1603.99  1604.66  1610.32  1615.64  3050.80
eigval :     3058.92  3061.82  3066.49  3072.50  3072.73  3073.78
eigval :     3073.92  3074.54  3074.93  3075.57  3075.67  3077.64
eigval :     3078.22  3078.64  3079.90  3080.25  3080.66  3080.75
eigval :     3081.54  3081.93  3082.49  3084.03  3084.56  3085.14
eigval :     3085.27  3085.30  3086.28  3087.24  3087.58  3088.20
eigval :     3089.14  3089.25  3090.24  3091.51  3091.55  3092.76
eigval :     3093.55  3094.03  3094.18  3094.57  3095.57  3096.08
eigval :     3096.72  3097.05  3098.41  3100.75  3101.62  3115.72

   temp. (K)  partition function   enthalpy   heat capacity  entropy
                                   cal/mol     cal/K/mol   cal/K/mol   J/K/mol
 298.15  VIB  0.288E+33            39028.044    239.316    246.957
         ROT  0.436E+09              888.752      2.981     42.513
         INT  0.126E+42            39916.796    242.297    289.469
         TR   0.329E+29             1481.254      4.968     46.706
         TOT                       41398.0504   247.2652   336.1754  1406.5577

       T/K    H(0)-H(T)+PV         H(T)/Eh          T*S/Eh         G(T)/Eh
   ------------------------------------------------------------------------
    298.15    0.659720E-01    0.104021E+01    0.159728E+00    0.880484E+00
   ------------------------------------------------------------------------

         :::::::::::::::::::::::::::::::::::::::::::::::::::::
         ::                  THERMODYNAMIC                  ::
         :::::::::::::::::::::::::::::::::::::::::::::::::::::
         :: total free energy        -200.750484871630 Eh   ::
         ::.................................................::
         :: total energy             -201.630969064355 Eh   ::
         :: zero point energy           0.974239963172 Eh   ::
         :: G(RRHO) w/o ZPVE           -0.093755770447 Eh   ::
         :: G(RRHO) contrib.            0.880484192725 Eh   ::
         :::::::::::::::::::::::::::::::::::::::::::::::::::::

           -------------------------------------------------
          | TOTAL ENERGY             -201.630969064355 Eh   |
          | TOTAL ENTHALPY           -200.590757108618 Eh   |
          | TOTAL FREE ENERGY        -200.750484871630 Eh   |
          | GRADIENT NORM               0.000036312148 Eh/α |
          | HOMO-LUMO GAP               2.337720832149 eV   |
           -------------------------------------------------

 * finished run on 2025/07/17 at 08:39:42.489
